
                                 *****************
                                 * O   R   C   A *
                                 *****************

                                            #,                                       
                                            ###                                      
                                            ####                                     
                                            #####                                    
                                            ######                                   
                                           ########,                                 
                                     ,,################,,,,,                         
                               ,,#################################,,                 
                          ,,##########################################,,             
                       ,#########################################, ''#####,          
                    ,#############################################,,   '####,        
                  ,##################################################,,,,####,       
                ,###########''''           ''''###############################       
              ,#####''   ,,,,##########,,,,          '''####'''          '####       
            ,##' ,,,,###########################,,,                        '##       
           ' ,,###''''                  '''############,,,                           
         ,,##''                                '''############,,,,        ,,,,,,###''
      ,#''                                            '''#######################'''  
     '                                                          ''''####''''         
             ,#######,   #######,   ,#######,      ##                                
            ,#'     '#,  ##    ##  ,#'     '#,    #''#        ,####,   ,####,        
            ##       ##  ##   ,#'  ##            #'  '#       #'       #'  '#        
            ##       ##  #######   ##           ,######,      #####,   #    #        
            '#,     ,#'  ##    ##  '#,     ,#' ,#      #,     #,   #   #,  ,#        
             '#######'   ##     ##  '#######'  #'      '#     '####' # '####'        



                #########################################################
                #                        -***-                          #
                #          Department of theory and spectroscopy        #
                #                                                       #
                #                      Frank Neese                      #
                #                                                       #
                #     Directorship, Architecture, Infrastructure        #
                #                    SHARK, DRIVERS                     #
                #        Core code/Algorithms in most modules           #
                #                                                       #
                #        Max Planck Institute fuer Kohlenforschung      #
                #                Kaiser Wilhelm Platz 1                 #
                #                 D-45470 Muelheim/Ruhr                 #
                #                      Germany                          #
                #                                                       #
                #                  All rights reserved                  #
                #                        -***-                          #
                #########################################################


                         Program Version 6.0.0  -   RELEASE  -


 With contributions from (in alphabetic order):
   Daniel Aravena         : Magnetic Suceptibility
   Michael Atanasov       : Ab Initio Ligand Field Theory (pilot matlab implementation)
   Alexander A. Auer      : GIAO ZORA, VPT2 properties, NMR spectrum
   Ute Becker             : All parallelization in ORCA, NUMFREQ, NUMCALC
   Giovanni Bistoni       : ED, misc. LED, open-shell LED, HFLD
   Martin Brehm           : Molecular dynamics
   Dmytro Bykov           : pre 5.0 version of the SCF Hessian
   Marcos Casanova-Páez   : Triplet and SCS-CIS(D). UHF-(DLPNO)-IP/EA/STEOM-CCSD. UHF-CVS-IP/STEOM-CCSD
   Vijay G. Chilkuri      : MRCI spin determinant printing, contributions to CSF-ICE
   Pauline Colinet        : FMM embedding
   Dipayan Datta          : RHF DLPNO-CCSD density
   Achintya Kumar Dutta   : EOM-CC, STEOM-CC
   Nicolas Foglia         : Exact transition moments, OPA infrastructure, MCD improvements
   Dmitry Ganyushin       : Spin-Orbit,Spin-Spin,Magnetic field MRCI
   Miquel Garcia          : C-PCM and meta-GGA Hessian, CCSD/C-PCM, Gaussian charge scheme
   Tiago L. C. Gouveia    : GS-ROHF, GS-ROCIS
   Yang Guo               : DLPNO-NEVPT2, F12-NEVPT2, CIM, IAO-localization
   Andreas Hansen         : Spin unrestricted coupled pair/coupled cluster methods
   Ingolf Harden          : AUTO-CI MPn and infrastructure 
   Benjamin Helmich-Paris : MC-RPA, TRAH-(SCF,CASSCF), AVAS, COSX integrals, SCF dyn. polar.
   Lee Huntington         : MR-EOM, pCC
   Robert Izsak           : Overlap fitted RIJCOSX, COSX-SCS-MP3, EOM
   Riya Kayal             : Wick's Theorem for AUTO-CI, AUTO-CI UHF-CCSDT
   Emily Kempfer          : AUTO-CI, RHF CISDT and CCSDT
   Christian Kollmar      : KDIIS, OOCD, Brueckner-CCSD(T), CCSD density, CASPT2, CASPT2-K, improved NEVPT2
   Axel Koslowski         : Symmetry handling
   Simone Kossmann        : Meta GGA functionals, TD-DFT gradient, OOMP2, (MP2 Hessian; deprecated post 5.0)
   Lucas Lang             : DCDCAS
   Marvin Lechner         : AUTO-CI (C++ implementation), FIC-MRCC
   Spencer Leger          : CASSCF response
   Dagmar Lenk            : GEPOL surface, SMD, ORCA-2-JSON
   Dimitrios Liakos       : Extrapolation schemes; Compound Job, initial MDCI parallelization
   Dimitrios Manganas     : Further ROCIS development; embedding schemes. LFT, Crystal Embedding
   Dimitrios Pantazis     : SARC Basis sets
   Anastasios Papadopoulos: AUTO-CI, single reference methods and gradients
   Taras Petrenko         : pre 6.0 DFT Hessian and TD-DFT gradient, (ASA, deprecated), ECA, 1-Electron XAS/XES, NRVS
   Peter Pinski           : DLPNO-MP2, DLPNO-MP2 Gradient
   Christoph Reimann      : Effective Core Potentials
   Marius Retegan         : Local ZFS, SOC
   Christoph Riplinger    : Optimizer, TS searches, QM/MM, DLPNO-CCSD(T), (RO)-DLPNO pert. Triples
   Michael Roemelt        : Original ROCIS implementation
   Masaaki Saitow         : Open-shell DLPNO-CCSD energy and density
   Barbara Sandhoefer     : DKH picture change effects
   Kantharuban Sivalingam : CASSCF convergence/infrastructure, NEVPT2 and variants, FIC-MRCI
   Bernardo de Souza      : ESD, SOC TD-DFT
   Georgi Stoychev        : AutoAux, RI-MP2 NMR, DLPNO-MP2 response, X2C
   Van Anh Tran           : RI-MP2 g-tensors
   Willem Van den Heuvel  : Paramagnetic NMR
   Zikuan Wang            : NOTCH, Electric field optimization 
   Frank Wennmohs         : Technical directorship and infrastructure
   Hang Xu                : AUTO-CI-Response properties 


 We gratefully acknowledge several colleagues who have allowed us to
 interface, adapt or use parts of their codes:
   Stefan Grimme, W. Hujo, H. Kruse, P. Pracht,  : VdW corrections, initial TS optimization,
                  C. Bannwarth, S. Ehlert,         DFT functionals, gCP, sTDA/sTD-DF
                  L. Wittmann, M. Mueller
   Ed Valeev, F. Pavosevic, A. Kumar             : LibInt (2-el integral package), F12 methods
   Garnet Chan, S. Sharma, J. Yang, R. Olivares  : DMRG
   Ulf Ekstrom                                   : XCFun DFT Library
   Mihaly Kallay                                 : mrcc  (arbitrary order and MRCC methods)
   Frank Weinhold                                : gennbo (NPA and NBO analysis)
   Simon Mueller                                 : openCOSMO-RS
   Christopher J. Cramer and Donald G. Truhlar   : smd solvation model
   Lars Goerigk                                  : TD-DFT with DH, B97 family of functionals
   V. Asgeirsson, H. Jonsson                     : NEB implementation
   FAccTs GmbH                                   : IRC, NEB, NEB-TS, DLPNO-Multilevel, CI-OPT
                                                   MM, QMMM, 2- and 3-layer-ONIOM, Crystal-QMMM,
                                                   LR-CPCM, SF, NACMEs, symmetry and pop. for TD-DFT,
                                                   nearIR, NL-DFT gradient (VV10), updates on ESD,
                                                   ML-optimized integration grids, MBIS, APM,
                                                   GOAT, DOCKER, SOLVATOR, interface openCOSMO-RS
   S Lehtola, MJT Oliveira, MAL Marques          : LibXC Library
   Liviu Ungur et al                             : ANISO software


 Your calculation uses the libint2 library for the computation of 2-el integrals
 For citations please refer to: http://libint.valeyev.net

 Your ORCA version has been built with support for libXC version: 6.2.2
 For citations please refer to: https://libxc.gitlab.io

 This ORCA versions uses:
   CBLAS   interface :  Fast vector & matrix operations
   LAPACKE interface :  Fast linear algebra routines
   SCALAPACK package :  Parallel linear algebra routines
   Shared memory     :  Shared parallel matrices
   BLAS/LAPACK       :  OpenBLAS 0.3.27  USE64BITINT DYNAMIC_ARCH NO_AFFINITY SkylakeX SINGLE_THREADED
        Core in use  :  SkylakeX
   Copyright (c) 2011-2014, The OpenBLAS Project


Your calculation utilizes the geometrical counterpoise correction gCP
Please cite in your paper:
H.Kruse, S. Grimme J.Chem.Phys., 136, (2012), 154101 
   

Your calculation utilizes the atom-pairwise dispersion correction
based on EEQ partial charges (D4)


================================================================================

----- Orbital basis set information -----
Your calculation utilizes the basis: def2-mTZVPP
   Stefan Grimme, Andreas Hansen, Sebastian Ehlert, and Jan-Michael Mewes 
   J. Chem. Phys. 154, 064103 (2021). DOI: 10.1063/5.0040021

----- AuxJ basis set information -----
Your calculation utilizes the auxiliary basis: def2/J
   F. Weigend, Phys. Chem. Chem. Phys. 8, 1057 (2006).

================================================================================
                                        WARNINGS
                       Please study these warnings very carefully!
================================================================================

Using LibXC functional ID 497 : Re-regularized SCAN exchange by Furness et al
[ 1]  J. W. Furness, A. D. Kaplan, J. Ning, J. P. Perdew, and J. Sun.,  J. Phys. Chem. Lett. 11, 8208-8215 (2020)
[ 2]  J. W. Furness, A. D. Kaplan, J. Ning, J. P. Perdew, and J. Sun.,  J. Phys. Chem. Lett. 11, 9248-9248 (2020)
Using LibXC functional ID 498 : Re-regularized SCAN correlation by Furness et al
[ 1]  J. W. Furness, A. D. Kaplan, J. Ning, J. P. Perdew, and J. Sun.,  J. Phys. Chem. Lett. 11, 8208-8215 (2020)
[ 2]  J. W. Furness, A. D. Kaplan, J. Ning, J. P. Perdew, and J. Sun.,  J. Phys. Chem. Lett. 11, 9248-9248 (2020)
Using LibXC functional ID 497 : Re-regularized SCAN exchange by Furness et al
[ 1]  J. W. Furness, A. D. Kaplan, J. Ning, J. P. Perdew, and J. Sun.,  J. Phys. Chem. Lett. 11, 8208-8215 (2020)
[ 2]  J. W. Furness, A. D. Kaplan, J. Ning, J. P. Perdew, and J. Sun.,  J. Phys. Chem. Lett. 11, 9248-9248 (2020)
Using LibXC functional ID 498 : Re-regularized SCAN correlation by Furness et al
[ 1]  J. W. Furness, A. D. Kaplan, J. Ning, J. P. Perdew, and J. Sun.,  J. Phys. Chem. Lett. 11, 8208-8215 (2020)
[ 2]  J. W. Furness, A. D. Kaplan, J. Ning, J. P. Perdew, and J. Sun.,  J. Phys. Chem. Lett. 11, 9248-9248 (2020)

================================================================================
                                       INPUT FILE
================================================================================
NAME = sp_gas.inp
|  1> ! r2scan-3c def2/J RI DEFGRID2 scfconv6 printgap
|  2> %output
|  3>     printlevel normal
|  4> end
|  5> * xyz 0 1
|  6> C -2.4840006468 -0.7588633122 1.0354106751
|  7> C -2.0660855439 -0.7769607073 -0.429888145
|  8> C -1.4067414321 0.5431036323 -0.8481278473
|  9> C -0.1135199012 0.7672850475 -0.1078555907
| 10> O 0.1112502916 1.7037690994 0.6328835779
| 11> O 0.7733005763 -0.1839803687 -0.3602998489
| 12> C 2.053971931 -0.0961404345 0.2847774125
| 13> C 2.9576206183 -1.1597015732 -0.3082387756
| 14> H -1.6224406209 -0.5901800941 1.6791411036
| 15> H -3.2004061298 0.0386297524 1.218140472
| 16> H -2.9411320185 -1.7050763613 1.3121598454
| 17> H -2.943864662 -0.9395450099 -1.0560498911
| 18> H -1.3640985908 -1.5931153724 -0.60506354
| 19> H -2.0661230347 1.3856667653 -0.6401381619
| 20> H -1.1794710844 0.5124596793 -1.9142917129
| 21> H 2.451874745 0.912203975 0.1291379614
| 22> H 1.9091721766 -0.2419030199 1.3604664716
| 23> H 3.9310818611 -1.1096645691 0.1681487205
| 24> H 2.5291857911 -2.1442660129 -0.1466336164
| 25> H 3.0718965815 -0.9981590314 -1.3760323522
| 26> *
| 27> 
| 28>                          ****END OF INPUT****
================================================================================

                       ****************************
                       * Single Point Calculation *
                       ****************************

---------------------------------
CARTESIAN COORDINATES (ANGSTROEM)
---------------------------------
  C     -2.484001   -0.758863    1.035411
  C     -2.066086   -0.776961   -0.429888
  C     -1.406741    0.543104   -0.848128
  C     -0.113520    0.767285   -0.107856
  O      0.111250    1.703769    0.632884
  O      0.773301   -0.183980   -0.360300
  C      2.053972   -0.096140    0.284777
  C      2.957621   -1.159702   -0.308239
  H     -1.622441   -0.590180    1.679141
  H     -3.200406    0.038630    1.218140
  H     -2.941132   -1.705076    1.312160
  H     -2.943865   -0.939545   -1.056050
  H     -1.364099   -1.593115   -0.605064
  H     -2.066123    1.385667   -0.640138
  H     -1.179471    0.512460   -1.914292
  H      2.451875    0.912204    0.129138
  H      1.909172   -0.241903    1.360466
  H      3.931082   -1.109665    0.168149
  H      2.529186   -2.144266   -0.146634
  H      3.071897   -0.998159   -1.376032

----------------------------
CARTESIAN COORDINATES (A.U.)
----------------------------
  NO LB      ZA    FRAG     MASS         X           Y           Z
   0 C     6.0000    0    12.011   -4.694081   -1.434044    1.956643
   1 C     6.0000    0    12.011   -3.904336   -1.468243   -0.812371
   2 C     6.0000    0    12.011   -2.658356    1.026317   -1.602729
   3 C     6.0000    0    12.011   -0.214522    1.449959   -0.203818
   4 O     8.0000    0    15.999    0.210233    3.219657    1.195977
   5 O     8.0000    0    15.999    1.461326   -0.347673   -0.680868
   6 C     6.0000    0    12.011    3.881444   -0.181679    0.538151
   7 C     6.0000    0    12.011    5.589093   -2.191518   -0.582487
   8 H     1.0000    0     1.008   -3.065968   -1.115279    3.173117
   9 H     1.0000    0     1.008   -6.047891    0.073000    2.301952
  10 H     1.0000    0     1.008   -5.557934   -3.222127    2.479623
  11 H     1.0000    0     1.008   -5.563098   -1.775483   -1.995645
  12 H     1.0000    0     1.008   -2.577773   -3.010552   -1.143404
  13 H     1.0000    0     1.008   -3.904407    2.618531   -1.209686
  14 H     1.0000    0     1.008   -2.228877    0.968408   -3.617487
  15 H     1.0000    0     1.008    4.633372    1.723816    0.244035
  16 H     1.0000    0     1.008    3.607813   -0.457130    2.570909
  17 H     1.0000    0     1.008    7.428668   -2.096962    0.317755
  18 H     1.0000    0     1.008    4.779468   -4.052076   -0.277097
  19 H     1.0000    0     1.008    5.805043   -1.886247   -2.600324

--------------------------------
INTERNAL COORDINATES (ANGSTROEM)
--------------------------------
 C      0   0   0     0.000000000000     0.00000000     0.00000000
 C      1   0   0     1.523837649203     0.00000000     0.00000000
 C      2   1   0     1.533697808249   111.70972982     0.00000000
 C      3   2   1     1.506878312538   111.28648823    64.47136649
 O      4   3   2     1.214997339476   124.95548230   241.13308814
 O      4   3   2     1.324796042744   111.96571471    61.36812519
 C      6   4   3     1.436648755251   117.85658694   180.14889038
 C      7   6   4     1.516381035611   108.22460880   188.32327599
 H      1   2   3     1.088636105810   110.69520552   300.64979261
 H      1   2   3     1.087484336822   110.54566611    60.22868163
 H      1   2   3     1.086682257397   110.48228360   180.44266166
 H      2   1   3     1.090416602911   109.46195481   239.76849621
 H      2   1   3     1.090678934747   109.86732621   120.94294245
 H      3   2   1     1.089934144878   110.68569646   304.25659231
 H      3   2   1     1.090548600985   109.39077637   183.47330606
 H      7   6   4     1.095129552289   108.44377067   309.96093419
 H      7   6   4     1.095134992612   108.36314354    67.04085610
 H      8   7   6     1.084931121986   109.30708646   180.06371371
 H      8   7   6     1.085835974980   110.03722844   300.09824427
 H      8   7   6     1.085973347189   110.05378492    60.02119164

---------------------------
INTERNAL COORDINATES (A.U.)
---------------------------
 C      0   0   0     0.000000000000     0.00000000     0.00000000
 C      1   0   0     2.879635829552     0.00000000     0.00000000
 C      2   1   0     2.898268829787   111.70972982     0.00000000
 C      3   2   1     2.847587327841   111.28648823    64.47136649
 O      4   3   2     2.296012225052   124.95548230   241.13308814
 O      4   3   2     2.503501704088   111.96571471    61.36812519
 C      6   4   3     2.714872698064   117.85658694   180.14889038
 C      7   6   4     2.865544871977   108.22460880   188.32327599
 H      1   2   3     2.057224099480   110.69520552   300.64979261
 H      1   2   3     2.055047571522   110.54566611    60.22868163
 H      1   2   3     2.053531861071   110.48228360   180.44266166
 H      2   1   3     2.060588751382   109.46195481   239.76849621
 H      2   1   3     2.061084486709   109.86732621   120.94294245
 H      3   2   1     2.059677037829   110.68569646   304.25659231
 H      3   2   1     2.060838191593   109.39077637   183.47330606
 H      7   6   4     2.069494934991   108.44377067   309.96093419
 H      7   6   4     2.069505215711   108.36314354    67.04085610
 H      8   7   6     2.050222694721   109.30708646   180.06371371
 H      8   7   6     2.051932619071   110.03722844   300.09824427
 H      8   7   6     2.052192214925   110.05378492    60.02119164

---------------------
BASIS SET INFORMATION
---------------------
There are 3 groups of distinct atoms

 Group   1 Type C   : 11s6p1d contracted to 5s3p1d pattern {62111/411/1}
 Group   2 Type O   : 11s6p2d contracted to 5s3p2d pattern {62111/411/11}
 Group   3 Type H   : 4s1p contracted to 2s1p pattern {31/1}

Atom   0C    basis set group =>   1
Atom   1C    basis set group =>   1
Atom   2C    basis set group =>   1
Atom   3C    basis set group =>   1
Atom   4O    basis set group =>   2
Atom   5O    basis set group =>   2
Atom   6C    basis set group =>   1
Atom   7C    basis set group =>   1
Atom   8H    basis set group =>   3
Atom   9H    basis set group =>   3
Atom  10H    basis set group =>   3
Atom  11H    basis set group =>   3
Atom  12H    basis set group =>   3
Atom  13H    basis set group =>   3
Atom  14H    basis set group =>   3
Atom  15H    basis set group =>   3
Atom  16H    basis set group =>   3
Atom  17H    basis set group =>   3
Atom  18H    basis set group =>   3
Atom  19H    basis set group =>   3
---------------------------------
AUXILIARY/J BASIS SET INFORMATION
---------------------------------
There are 3 groups of distinct atoms

 Group   1 Type C   : 12s5p4d2f1g contracted to 6s4p3d1f1g pattern {711111/2111/211/2/1}
 Group   2 Type O   : 12s5p4d2f1g contracted to 6s4p3d1f1g pattern {711111/2111/211/2/1}
 Group   3 Type H   : 5s2p1d contracted to 3s1p1d pattern {311/2/1}

Atom   0C    basis set group =>   1
Atom   1C    basis set group =>   1
Atom   2C    basis set group =>   1
Atom   3C    basis set group =>   1
Atom   4O    basis set group =>   2
Atom   5O    basis set group =>   2
Atom   6C    basis set group =>   1
Atom   7C    basis set group =>   1
Atom   8H    basis set group =>   3
Atom   9H    basis set group =>   3
Atom  10H    basis set group =>   3
Atom  11H    basis set group =>   3
Atom  12H    basis set group =>   3
Atom  13H    basis set group =>   3
Atom  14H    basis set group =>   3
Atom  15H    basis set group =>   3
Atom  16H    basis set group =>   3
Atom  17H    basis set group =>   3
Atom  18H    basis set group =>   3
Atom  19H    basis set group =>   3

Checking for AutoStart:
The File: sp_gas.gbw exists
Trying to determine its content:
     ... Fine, the file contains calculation information
     ... Fine, the calculation information was read
     ... Fine, the file contains a basis set
     ... Fine, the basis set was read
     ... Fine, the file contains a geometry
     ... Fine, the geometry was read
     ... Fine, the file contains a set of orbitals
     ... Fine, the orbitals can be read
     => possible old guess file was deleted
     => GBW file was renamed to GES file
     => GES file is set as startup file
     => Guess is set to MORead
     ... now leaving AutoStart

------------------------------------------------------------------------------
                             ORCA STARTUP CALCULATIONS
                           -- RI-GTO INTEGRALS CHOSEN --
------------------------------------------------------------------------------
------------------------------------------------------------------------------
                   ___                                                        
                  /   \      - P O W E R E D   B Y -                         
                 /     \                                                     
                 |  |  |   _    _      __       _____    __    __             
                 |  |  |  | |  | |    /  \     |  _  \  |  |  /  |          
                  \  \/   | |  | |   /    \    | | | |  |  | /  /          
                 / \  \   | |__| |  /  /\  \   | |_| |  |  |/  /          
                |  |  |   |  __  | /  /__\  \  |    /   |      \           
                |  |  |   | |  | | |   __   |  |    \   |  |\   \          
                \     /   | |  | | |  |  |  |  | |\  \  |  | \   \       
                 \___/    |_|  |_| |__|  |__|  |_| \__\ |__|  \__/        
                                                                              
                      - O R C A' S   B I G   F R I E N D -                    
                                      &                                       
                       - I N T E G R A L  F E E D E R -                       
                                                                              
 v1 FN, 2020, v2 2021, v3 2022-2024                                           
------------------------------------------------------------------------------


----------------------
SHARK INTEGRAL PACKAGE
----------------------

Number of atoms                             ...     20
Number of basis functions                   ...    222
Number of shells                            ...    110
Maximum angular momentum                    ...      2
Integral batch strategy                     ... SHARK/LIBINT Hybrid
RI-J (if used) integral strategy            ... SPLIT-RIJ (Revised 2003 algorithm where possible)
Printlevel                                  ...      1
Contraction scheme used                     ... SEGMENTED contraction
Prescreening option                         ... SCHWARTZ
   Thresh                                   ... 1.000e-10
   Tcut                                     ... 1.000e-11
   Tpresel                                  ... 1.000e-11 
Coulomb Range Separation                    ... NOT USED
Exchange Range Separation                   ... NOT USED
Multipole approximations                    ... NOT USED
Finite Nucleus Model                        ... NOT USED
CABS basis                                  ... NOT available
Auxiliary Coulomb fitting basis             ... AVAILABLE
   # of basis functions in Aux-J            ...    524
   # of shells in Aux-J                     ...    180
   Maximum angular momentum in Aux-J        ...      4
Auxiliary J/K fitting basis                 ... NOT available
Auxiliary Correlation fitting basis         ... NOT available
Auxiliary 'external' fitting basis          ... NOT available

Checking pre-screening integrals            ... done (  0.0 sec) Dimension = 110
Check shell pair data                       ... done (  0.0 sec)
Shell pair information
Shell pair cut-off parameter TPreSel        ...   1.0e-11
Total number of shell pairs                 ...      6105
Shell pairs after pre-screening             ...      5330
Total number of primitive shell pairs       ...     21533
Primitive shell pairs kept                  ...     13289
          la=0 lb=0:   1794 shell pairs
          la=1 lb=0:   2013 shell pairs
          la=1 lb=1:    587 shell pairs
          la=2 lb=0:    564 shell pairs
          la=2 lb=1:    320 shell pairs
          la=2 lb=2:     52 shell pairs

Calculating one electron integrals          ... done (  0.0 sec)
Calculating RI/J V-Matrix + Cholesky decomp.... done (  0.1 sec)
Calculating Nuclear repulsion               ... done (  0.0 sec) ENN=    395.073008540961 Eh

Diagonalization of the overlap matrix:
Smallest eigenvalue                        ... 1.646e-04
Time for diagonalization                   ...    0.010 sec
Threshold for overlap eigenvalues          ... 1.000e-07
Number of eigenvalues below threshold      ... 0
Time for construction of square roots      ...    0.018 sec
Total time needed                          ...    0.037 sec

-------------------
DFT GRID GENERATION
-------------------

General Integration Accuracy     IntAcc      ... 4.388
Radial Grid Type                 RadialGrid  ... OptM3 with GC (2021)
Angular Grid (max. ang.)         AngularGrid ... 4 (Lebedev-302)
Angular grid pruning method      GridPruning ... 4 (adaptive)
Weight generation scheme         WeightScheme... mBecke (2022)
Basis function cutoff            BFCut       ... 1.0000e-10
Integration weight cutoff        WCut        ... 1.0000e-14
Partially contracted basis set               ... off
Rotationally invariant grid construction     ... off
Angular grids for H and He will be reduced by one unit
Diffuse basis detected: some atoms will have their outermost
                        angular grid increased by 1.

Total number of grid points                  ...    87388
Total number of batches                      ...     1373
Average number of points per batch           ...       63
Average number of grid points per atom       ...     4369
Initializing property integral containers    ... done (  0.0 sec)

SHARK setup successfully completed in   1.3 seconds

Maximum memory used throughout the entire STARTUP-calculation: 39.4 MB
-------------------------------------------------------------------------------
                                 ORCA GUESS
                   Start orbitals & Density for SCF / CASSCF
-------------------------------------------------------------------------------

------------
SCF SETTINGS
------------
Hamiltonian:
 Density Functional     Method          .... DFT(GTOs)
  Functional kind                       .... Exchange
  Functional name                       .... Re-regularized SCAN exchange by Furness et al
  Functional family                     .... MGGA
  Functional refs                              
    [ 0] J. W. Furness, A. D. Kaplan, J. Ning, J. P. Perdew, and J. Sun.,  J. Phys. Chem. Lett. 11, 8208-8215 (2020), doi: 10.1021/acs.jpclett.0c02405
    [ 1] J. W. Furness, A. D. Kaplan, J. Ning, J. P. Perdew, and J. Sun.,  J. Phys. Chem. Lett. 11, 9248-9248 (2020), doi: 10.1021/acs.jpclett.0c03077
  Functional external parameters        .... 6
    Parameter  0 _c1        =  6.670000e-01 : c1 parameter        
    Parameter  1 _c2        =  8.000000e-01 : c2 parameter        
    Parameter  2 _d         =  1.240000e+00 : d parameter         
    Parameter  3 _k1        =  6.500000e-02 : k1 parameter        
    Parameter  4 _eta       =  1.000000e-03 : eta parameter       
    Parameter  5 _dp2       =  3.610000e-01 : dp2 parameter       
  Functional kind                       .... Correlation
  Functional name                       .... Re-regularized SCAN correlation by Furness et al
  Functional family                     .... MGGA
  Functional refs                              
    [ 0] J. W. Furness, A. D. Kaplan, J. Ning, J. P. Perdew, and J. Sun.,  J. Phys. Chem. Lett. 11, 8208-8215 (2020), doi: 10.1021/acs.jpclett.0c02405
    [ 1] J. W. Furness, A. D. Kaplan, J. Ning, J. P. Perdew, and J. Sun.,  J. Phys. Chem. Lett. 11, 9248-9248 (2020), doi: 10.1021/acs.jpclett.0c03077
  Functional external parameters        .... 1
    Parameter  0 _eta       =  1.000000e-03 : Regularization parameter
 Gradients option       PostSCFGGA      .... off
 RI-approximation to the Coulomb term is turned on
   Number of AuxJ basis functions       .... 524


General Settings:
 Integral files         IntName         .... sp_gas
 Hartree-Fock type      HFTyp           .... RHF
 Total Charge           Charge          ....    0
 Multiplicity           Mult            ....    1
 Number of Electrons    NEL             ....   64
 Basis Dimension        Dim             ....  222
 Nuclear Repulsion      ENuc            ....    395.0730085410 Eh

Convergence Acceleration:
 AO-DIIS                CNVDIIS         .... on
   Start iteration      DIISMaxIt       ....    12
   Startup error        DIISStart       ....  0.200000
   # of expansion vecs  DIISMaxEq       ....     5
   Bias factor          DIISBfac        ....   1.050
   Max. coefficient     DIISMaxC        ....  10.000
 MO-DIIS                CNVKDIIS        .... off
 Trust-Rad. Augm. Hess. CNVTRAH         .... auto
   Auto Start mean grad. ratio tolernc. ....  1.125000
   Auto Start start iteration           ....     1
   Auto Start num. interpolation iter.  ....    10
   Max. Number of Micro iterations      ....    24
   Max. Number of Macro iterations      .... Maxiter - #DIIS iter
   Number of Davidson start vectors     ....     2
   Converg. threshold    (grad. norm)   ....   3.330e-04
   Grad. Scal. Fac. for Micro threshold ....   0.100
   Minimum threshold for Micro iter.    ....   1.000e-02
   NR start threshold (gradient norm)   ....   1.000e-04
   Initial trust radius                 ....   0.400
   Minimum AH scaling param. (alpha)    ....   1.000
   Maximum AH scaling param. (alpha)    .... 1000.000
   Quad. conv. algorithm                .... NR
   White noise on init. David. guess    .... on
   Maximum white noise                  ....   0.010
   Pseudo random numbers                .... off
   Inactive MOs                         .... canonical
   Orbital update algorithm             .... Taylor
   Preconditioner                       .... Diag
   Full preconditioner red. dimension   ....   250
   COSX micro iterations for RIJONX calc.... off
 SOSCF                  CNVSOSCF        .... on
   Start iteration      SOSCFMaxIt      ....   150
   Startup grad/error   SOSCFStart      ....  0.003300
   Hessian update       SOSCFHessUp     .... L-BFGS
 Level Shifting         CNVShift        .... on
   Level shift para.    LevelShift      ....    0.2500
   Turn off err/grad.   ShiftErr        ....    0.0010
 Zerner damping         CNVZerner       .... off
 Static damping         CNVDamp         .... on
   Fraction old density DampFac         ....    0.7000
   Max. Damping (<1)    DampMax         ....    0.9800
   Min. Damping (>=0)   DampMin         ....    0.0000
   Turn off err/grad.   DampErr         ....    0.1000

SCF Procedure:
 Maximum # iterations   MaxIter         ....   125
 SCF integral mode      SCFMode         .... Direct
   Integral package                     .... SHARK and LIBINT hybrid scheme
 Reset frequency        DirectResetFreq ....    20
 Integral Threshold     Thresh          ....  1.000e-10 Eh
 Primitive CutOff       TCut            ....  1.000e-11 Eh

Convergence Tolerance:
 Convergence Check Mode ConvCheckMode   .... Total+1el-Energy
 Convergence forced     ConvForced      .... 0
 Energy Change          TolE            ....  1.000e-06 Eh
 1-El. energy change                    ....  1.000e-03 Eh
 Orbital Gradient       TolG            ....  3.330e-04
 Orbital Rotation angle TolX            ....  3.330e-04
 DIIS Error             TolErr          ....  1.000e-06

---------------------
INITIAL GUESS: MOREAD
---------------------
Guess MOs are being read from file: sp_gas.ges
Input Geometry matches current geometry (good)
Atom 0: N(Shells)= 9 and 6 - projection required
Input basis set needs projection
NBasis(read)= 136
NBasis(calc)= 222
Basis set overlap was calculated
Using GuessMode=FMatrix for the initial guess
C*T matrix was formed
Effective Fockian was calculated
Effective Fockian was diagonalized
Initial density was built
                      ------------------
                      INITIAL GUESS DONE (   0.1 sec)
                      ------------------
             **** ENERGY FILE WAS UPDATED (sp_gas.en.tmp) ****
Finished Guess after   0.3 sec
Maximum memory used throughout the entire GUESS-calculation: 15.1 MB

-------------------------------------------------------------------------------------------
                                      ORCA LEAN-SCF
                              memory conserving SCF solver
-------------------------------------------------------------------------------------------

----------------------------------------D-I-I-S--------------------------------------------
Iteration    Energy (Eh)           Delta-E    RMSDP     MaxDP     DIISErr   Damp  Time(sec)
-------------------------------------------------------------------------------------------
               ***  Starting incremental Fock matrix formation  ***
    1    -386.0469480669256654     0.00e+00  3.85e-03  1.52e-01  6.27e-01  0.700   3.1
    2    -386.1050403288525104    -5.81e-02  3.13e-03  8.99e-02  4.41e-01  0.700   2.8
    3    -386.1460983290404556    -4.11e-02  2.29e-03  6.33e-02  3.09e-01  0.700   2.8
    4    -386.1749201427505795    -2.88e-02  1.64e-03  4.46e-02  2.16e-01  0.700   2.7
                               ***Turning on AO-DIIS***
    5    -386.1951344134375859    -2.02e-02  1.18e-03  3.21e-02  1.52e-01  0.700   2.8
    6    -386.2093029191778442    -1.42e-02  8.39e-04  2.27e-02  1.06e-01  0.700   2.8
    7    -386.2192342467199069    -9.93e-03  5.91e-04  1.59e-02  7.42e-02  0.700   2.6
    8    -386.2261919914295731    -6.96e-03  1.39e-03  3.72e-02  5.20e-02  0.000   2.5
                              *** Initializing SOSCF ***
---------------------------------------S-O-S-C-F--------------------------------------
Iteration    Energy (Eh)           Delta-E    RMSDP     MaxDP     MaxGrad    Time(sec)
--------------------------------------------------------------------------------------
    9    -386.2424467653387410    -1.63e-02  8.37e-06  3.74e-04  8.63e-05     2.8
               *** Restarting incremental Fock matrix formation ***
   10    -386.2424468457717239    -8.04e-08  4.82e-06  1.16e-04  3.93e-05     3.0
                  *** Gradient check signals convergence ***

               *****************************************************
               *                     SUCCESS                       *
               *           SCF CONVERGED AFTER  10 CYCLES          *
               *****************************************************

             **** ENERGY FILE WAS UPDATED (sp_gas.en.tmp) ****

----------------
TOTAL SCF ENERGY
----------------

Total Energy       :       -386.24244684577172 Eh          -10510.19131 eV

Components:
Nuclear Repulsion  :        395.07300854096127 Eh           10750.48311 eV
Electronic Energy  :       -781.31545538673299 Eh          -21260.67441 eV
One Electron Energy:      -1307.26891155081580 Eh          -35572.59556 eV
Two Electron Energy:        525.95345616408281 Eh           14311.92115 eV

Virial components:
Potential Energy   :       -770.88534423871533 Eh          -20976.85666 eV
Kinetic Energy     :        384.64289739294361 Eh           10466.66535 eV
Virial Ratio       :          2.00415853110423

DFT components:
N(Alpha)           :       32.000040062385 electrons
N(Beta)            :       32.000040062385 electrons
N(Total)           :       64.000080124770 electrons
E(X)               :      -52.079683009046 Eh       
E(C)               :       -2.037163072292 Eh       
E(XC)              :      -54.116846081339 Eh       

---------------
SCF CONVERGENCE
---------------

  Last Energy change         ...    8.0433e-08  Tolerance :   1.0000e-06
  Last MAX-Density change    ...    1.1640e-04  Tolerance :   1.0000e-05
  Last RMS-Density change    ...    4.8171e-06  Tolerance :   1.0000e-06
  Last DIIS Error            ...    8.6281e-05  Tolerance :   1.0000e-06
  Last Orbital Gradient      ...    3.9273e-05  Tolerance :   3.3300e-04
  Last Orbital Rotation      ...    1.5317e-04  Tolerance :   3.3300e-04


----------------
ORBITAL ENERGIES
----------------

  NO   OCC          E(Eh)            E(eV) 
   0   2.0000     -18.996536      -516.9220 
   1   2.0000     -18.925993      -515.0025 
   2   2.0000     -10.149962      -276.1945 
   3   2.0000     -10.092047      -274.6186 
   4   2.0000     -10.040640      -273.2197 
   5   2.0000     -10.036561      -273.1087 
   6   2.0000     -10.032664      -273.0027 
   7   2.0000     -10.019910      -272.6556 
   8   2.0000      -1.072037       -29.1716 
   9   2.0000      -0.972708       -26.4687 
  10   2.0000      -0.776202       -21.1215 
  11   2.0000      -0.741859       -20.1870 
  12   2.0000      -0.677791       -18.4436 
  13   2.0000      -0.615839       -16.7578 
  14   2.0000      -0.569874       -15.5071 
  15   2.0000      -0.534002       -14.5309 
  16   2.0000      -0.471464       -12.8292 
  17   2.0000      -0.453251       -12.3336 
  18   2.0000      -0.439895       -11.9702 
  19   2.0000      -0.424444       -11.5497 
  20   2.0000      -0.410417       -11.1680 
  21   2.0000      -0.379877       -10.3370 
  22   2.0000      -0.377674       -10.2770 
  23   2.0000      -0.370927       -10.0934 
  24   2.0000      -0.355406        -9.6711 
  25   2.0000      -0.334786        -9.1100 
  26   2.0000      -0.327185        -8.9031 
  27   2.0000      -0.312949        -8.5158 
  28   2.0000      -0.309976        -8.4349 
  29   2.0000      -0.308975        -8.4076 
  30   2.0000      -0.270957        -7.3731 
  31   2.0000      -0.230146        -6.2626 
  32   0.0000      -0.014489        -0.3943 
  33   0.0000       0.070627         1.9218 
  34   0.0000       0.094751         2.5783 
  35   0.0000       0.114432         3.1139 
  36   0.0000       0.120057         3.2669 
  37   0.0000       0.122168         3.3244 
  38   0.0000       0.134823         3.6687 
  39   0.0000       0.141097         3.8395 
  40   0.0000       0.148407         4.0384 
  41   0.0000       0.160266         4.3611 
  42   0.0000       0.164020         4.4632 
*Only the first 10 virtual orbitals were printed.

                    ********************************
                    * MULLIKEN POPULATION ANALYSIS *
                    ********************************

-----------------------
MULLIKEN ATOMIC CHARGES
-----------------------
   0 C :   -0.480156
   1 C :   -0.228055
   2 C :   -0.316479
   3 C :    0.346782
   4 O :   -0.417085
   5 O :   -0.160524
   6 C :   -0.145819
   7 C :   -0.443154
   8 H :    0.154595
   9 H :    0.149265
  10 H :    0.147258
  11 H :    0.145413
  12 H :    0.152261
  13 H :    0.169821
  14 H :    0.158841
  15 H :    0.163069
  16 H :    0.152229
  17 H :    0.147434
  18 H :    0.151404
  19 H :    0.152901
Sum of atomic charges:   -0.0000000

--------------------------------
MULLIKEN REDUCED ORBITAL CHARGES
--------------------------------
  0 C s       :     3.326077  s :     3.326077
      pz      :     0.950155  p :     3.127051
      px      :     1.077691
      py      :     1.099206
      dz2     :     0.007170  d :     0.027029
      dxz     :     0.007445
      dyz     :     0.003764
      dx2y2   :     0.002598
      dxy     :     0.006052

  1 C s       :     3.193943  s :     3.193943
      pz      :     0.957855  p :     2.997109
      px      :     1.074692
      py      :     0.964562
      dz2     :     0.008994  d :     0.037004
      dxz     :     0.008740
      dyz     :     0.005820
      dx2y2   :     0.004928
      dxy     :     0.008521

  2 C s       :     3.247306  s :     3.247306
      pz      :     1.057851  p :     3.034432
      px      :     0.960703
      py      :     1.015878
      dz2     :     0.007904  d :     0.034741
      dxz     :     0.007074
      dyz     :     0.003615
      dx2y2   :     0.007732
      dxy     :     0.008416

  3 C s       :     3.169546  s :     3.169546
      pz      :     0.760687  p :     2.358813
      px      :     0.818060
      py      :     0.780066
      dz2     :     0.020397  d :     0.124859
      dxz     :     0.022606
      dyz     :     0.018752
      dx2y2   :     0.028287
      dxy     :     0.034817

  4 O s       :     3.839484  s :     3.839484
      pz      :     1.400125  p :     4.556967
      px      :     1.755116
      py      :     1.401726
      dz2     :     0.006218  d :     0.020634
      dxz     :     0.000386
      dyz     :     0.007863
      dx2y2   :     0.005069
      dxy     :     0.001098

  5 O s       :     3.697032  s :     3.697032
      pz      :     1.678562  p :     4.431028
      px      :     1.186813
      py      :     1.565653
      dz2     :     0.007249  d :     0.032463
      dxz     :     0.009123
      dyz     :     0.006227
      dx2y2   :     0.001827
      dxy     :     0.008037

  6 C s       :     3.279794  s :     3.279794
      pz      :     1.006750  p :     2.812033
      px      :     0.755406
      py      :     1.049877
      dz2     :     0.013440  d :     0.053993
      dxz     :     0.011837
      dyz     :     0.003895
      dx2y2   :     0.013391
      dxy     :     0.011430

  7 C s       :     3.311166  s :     3.311166
      pz      :     1.065513  p :     3.106174
      px      :     1.029613
      py      :     1.011048
      dz2     :     0.007314  d :     0.025813
      dxz     :     0.004380
      dyz     :     0.002632
      dx2y2   :     0.005963
      dxy     :     0.005524

  8 H s       :     0.827174  s :     0.827174
      pz      :     0.006244  p :     0.018230
      px      :     0.008078
      py      :     0.003908

  9 H s       :     0.832522  s :     0.832522
      pz      :     0.003819  p :     0.018213
      px      :     0.006793
      py      :     0.007601

 10 H s       :     0.834442  s :     0.834442
      pz      :     0.004174  p :     0.018301
      px      :     0.005010
      py      :     0.009116

 11 H s       :     0.836656  s :     0.836656
      pz      :     0.005925  p :     0.017931
      px      :     0.008308
      py      :     0.003698

 12 H s       :     0.829830  s :     0.829830
      pz      :     0.003590  p :     0.017909
      px      :     0.006723
      py      :     0.007595

 13 H s       :     0.812572  s :     0.812572
      pz      :     0.003468  p :     0.017607
      px      :     0.005925
      py      :     0.008214

 14 H s       :     0.822991  s :     0.822991
      pz      :     0.010869  p :     0.018168
      px      :     0.003718
      py      :     0.003580

 15 H s       :     0.819366  s :     0.819366
      pz      :     0.003180  p :     0.017565
      px      :     0.003525
      py      :     0.010861

 16 H s       :     0.830378  s :     0.830378
      pz      :     0.011427  p :     0.017393
      px      :     0.002430
      py      :     0.003536

 17 H s       :     0.834132  s :     0.834132
      pz      :     0.005000  p :     0.018434
      px      :     0.009800
      py      :     0.003634

 18 H s       :     0.830334  s :     0.830334
      pz      :     0.003748  p :     0.018263
      px      :     0.004675
      py      :     0.009840

 19 H s       :     0.828856  s :     0.828856
      pz      :     0.010913  p :     0.018243
      px      :     0.003650
      py      :     0.003680


------------------------
MULLIKEN OVERLAP CHARGES
------------------------
B(  0-C ,  1-C ) :   0.4408 B(  0-C ,  2-C ) :  -0.1886 B(  0-C ,  8-H ) :   0.8350 
B(  0-C ,  9-H ) :   0.8426 B(  0-C , 10-H ) :   0.7992 B(  0-C , 11-H ) :  -0.0560 
B(  0-C , 12-H ) :  -0.0581 B(  1-C ,  2-C ) :   0.4018 B(  1-C ,  3-C ) :  -0.1259 
B(  1-C ,  8-H ) :  -0.0816 B(  1-C ,  9-H ) :  -0.0850 B(  1-C , 10-H ) :  -0.0799 
B(  1-C , 11-H ) :   0.8294 B(  1-C , 12-H ) :   0.8465 B(  1-C , 13-H ) :  -0.0746 
B(  1-C , 14-H ) :  -0.0629 B(  2-C ,  3-C ) :   0.3461 B(  2-C ,  4-O ) :  -0.1039 
B(  2-C ,  5-O ) :  -0.0705 B(  2-C ,  8-H ) :  -0.0525 B(  2-C , 11-H ) :  -0.1127 
B(  2-C , 12-H ) :  -0.0593 B(  2-C , 13-H ) :   0.9330 B(  2-C , 14-H ) :   0.7634 
B(  3-C ,  4-O ) :   0.9632 B(  3-C ,  5-O ) :   0.3017 B(  3-C ,  6-C ) :  -0.1864 
B(  3-C ,  8-H ) :   0.0608 B(  3-C , 13-H ) :  -0.1637 B(  4-O ,  5-O ) :  -0.2313 
B(  5-O ,  6-C ) :   0.2828 B(  5-O ,  7-C ) :  -0.0992 B(  5-O , 15-H ) :  -0.0696 
B(  5-O , 16-H ) :  -0.0734 B(  6-C ,  7-C ) :   0.4478 B(  6-C , 15-H ) :   0.8468 
B(  6-C , 16-H ) :   0.7900 B(  6-C , 17-H ) :  -0.0758 B(  6-C , 18-H ) :  -0.0513 
B(  6-C , 19-H ) :  -0.0714 B(  7-C , 15-H ) :  -0.0638 B(  7-C , 17-H ) :   0.8190 
B(  7-C , 18-H ) :   0.8161 B(  7-C , 19-H ) :   0.8324 B( 15-H , 16-H ) :  -0.0627 



                     *******************************
                     * LOEWDIN POPULATION ANALYSIS *
                     *******************************

----------------------
LOEWDIN ATOMIC CHARGES
----------------------
   0 C :   -0.414822
   1 C :   -0.293739
   2 C :   -0.231285
   3 C :    0.349052
   4 O :   -0.425240
   5 O :   -0.603069
   6 C :    0.034219
   7 C :   -0.386944
   8 H :    0.155990
   9 H :    0.153391
  10 H :    0.151717
  11 H :    0.153076
  12 H :    0.163682
  13 H :    0.177522
  14 H :    0.179184
  15 H :    0.182498
  16 H :    0.176779
  17 H :    0.159693
  18 H :    0.158864
  19 H :    0.159432

-------------------------------
LOEWDIN REDUCED ORBITAL CHARGES
-------------------------------
  0 C s       :     2.970270  s :     2.970270
      pz      :     1.079328  p :     3.381398
      px      :     1.146236
      py      :     1.155833
      dz2     :     0.017009  d :     0.063154
      dxz     :     0.016910
      dyz     :     0.007529
      dx2y2   :     0.006490
      dxy     :     0.015215

  1 C s       :     2.934834  s :     2.934834
      pz      :     1.084511  p :     3.278751
      px      :     1.117158
      py      :     1.077082
      dz2     :     0.019869  d :     0.080154
      dxz     :     0.018991
      dyz     :     0.011011
      dx2y2   :     0.010671
      dxy     :     0.019612

  2 C s       :     2.924578  s :     2.924578
      pz      :     1.100288  p :     3.233047
      px      :     1.036513
      py      :     1.096246
      dz2     :     0.018861  d :     0.073660
      dxz     :     0.013789
      dyz     :     0.006569
      dx2y2   :     0.014665
      dxy     :     0.019777

  3 C s       :     2.736366  s :     2.736366
      pz      :     0.838429  p :     2.642519
      px      :     0.921538
      py      :     0.882552
      dz2     :     0.038722  d :     0.272063
      dxz     :     0.047160
      dyz     :     0.047271
      dx2y2   :     0.061175
      dxy     :     0.077735

  4 O s       :     3.550774  s :     3.550774
      pz      :     1.458154  p :     4.660947
      px      :     1.712390
      py      :     1.490403
      dz2     :     0.034014  d :     0.213520
      dxz     :     0.033487
      dyz     :     0.058855
      dx2y2   :     0.041684
      dxy     :     0.045480

  5 O s       :     3.458534  s :     3.458534
      pz      :     1.675220  p :     4.661186
      px      :     1.370505
      py      :     1.615460
      dz2     :     0.085229  d :     0.483349
      dxz     :     0.094312
      dyz     :     0.048139
      dx2y2   :     0.117318
      dxy     :     0.138351

  6 C s       :     2.868010  s :     2.868010
      pz      :     1.035816  p :     2.976904
      px      :     0.859293
      py      :     1.081795
      dz2     :     0.032130  d :     0.120867
      dxz     :     0.025991
      dyz     :     0.007006
      dx2y2   :     0.028267
      dxy     :     0.027474

  7 C s       :     2.971086  s :     2.971086
      pz      :     1.142976  p :     3.355063
      px      :     1.103107
      py      :     1.108979
      dz2     :     0.017977  d :     0.060795
      dxz     :     0.010328
      dyz     :     0.005824
      dx2y2   :     0.014331
      dxy     :     0.012334

  8 H s       :     0.800194  s :     0.800194
      pz      :     0.015055  p :     0.043815
      px      :     0.020202
      py      :     0.008558

  9 H s       :     0.803208  s :     0.803208
      pz      :     0.008569  p :     0.043401
      px      :     0.016352
      py      :     0.018479

 10 H s       :     0.804779  s :     0.804779
      pz      :     0.009435  p :     0.043504
      px      :     0.011528
      py      :     0.022541

 11 H s       :     0.803547  s :     0.803547
      pz      :     0.014375  p :     0.043377
      px      :     0.020527
      py      :     0.008474

 12 H s       :     0.792601  s :     0.792601
      pz      :     0.008498  p :     0.043717
      px      :     0.016499
      py      :     0.018720

 13 H s       :     0.779323  s :     0.779323
      pz      :     0.008214  p :     0.043155
      px      :     0.014290
      py      :     0.020651

 14 H s       :     0.776436  s :     0.776436
      pz      :     0.026901  p :     0.044380
      px      :     0.008908
      py      :     0.008570

 15 H s       :     0.776048  s :     0.776048
      pz      :     0.007361  p :     0.041455
      px      :     0.007861
      py      :     0.026232

 16 H s       :     0.782593  s :     0.782593
      pz      :     0.026612  p :     0.040627
      px      :     0.006093
      py      :     0.007922

 17 H s       :     0.796466  s :     0.796466
      pz      :     0.011811  p :     0.043841
      px      :     0.023890
      py      :     0.008139

 18 H s       :     0.797740  s :     0.797740
      pz      :     0.008342  p :     0.043396
      px      :     0.010913
      py      :     0.024140

 19 H s       :     0.797187  s :     0.797187
      pz      :     0.027297  p :     0.043381
      px      :     0.007826
      py      :     0.008258


---------------------------------
LOEWDIN BOND ORDERS (THRESH 0.050000)
---------------------------------
B(  0-C ,  1-C ) :   1.1425 B(  0-C ,  2-C ) :   0.0663 B(  0-C ,  8-H ) :   0.9199 
B(  0-C ,  9-H ) :   0.9282 B(  0-C , 10-H ) :   0.9298 B(  1-C ,  2-C ) :   1.0832 
B(  1-C ,  3-C ) :   0.0692 B(  1-C , 11-H ) :   0.8931 B(  1-C , 12-H ) :   0.8864 
B(  2-C ,  3-C ) :   0.9256 B(  2-C ,  4-O ) :   0.1808 B(  2-C ,  5-O ) :   0.1753 
B(  2-C , 13-H ) :   0.8714 B(  2-C , 14-H ) :   0.8641 B(  3-C ,  4-O ) :   2.1714 
B(  3-C ,  5-O ) :   1.4505 B(  3-C ,  6-C ) :   0.0891 B(  4-O ,  5-O ) :   0.4634 
B(  4-O ,  6-C ) :   0.0723 B(  5-O ,  6-C ) :   1.2915 B(  5-O ,  7-C ) :   0.1683 
B(  5-O , 15-H ) :   0.0927 B(  5-O , 16-H ) :   0.0949 B(  6-C ,  7-C ) :   1.0922 
B(  6-C , 15-H ) :   0.8215 B(  6-C , 16-H ) :   0.8273 B(  7-C , 17-H ) :   0.9193 
B(  7-C , 18-H ) :   0.9222 B(  7-C , 19-H ) :   0.9226 

------------------------------------------
LOEWDIN REDUCED ORBITAL POPULATIONS PER MO
-------------------------------------------
THRESHOLD FOR PRINTING IS 0.1%%
                      0         1         2         3         4         5   
                 -18.99654 -18.92599 -10.14996 -10.09205 -10.04064 -10.03656
                   2.00000   2.00000   2.00000   2.00000   2.00000   2.00000
                  --------  --------  --------  --------  --------  --------
 1 C  s               0.0       0.0       0.0       0.0       0.0      99.7
 2 C  s               0.0       0.0       0.0       0.0      99.6       0.0
 3 C  s               0.0       0.0      98.9       0.0       0.0       0.0
 4 O  s               0.0      99.9       0.0       0.0       0.0       0.0
 4 O  py              0.0       0.0       0.1       0.0       0.0       0.0
 4 O  dyz             0.0       0.0       0.2       0.0       0.0       0.0
 5 O  s              99.9       0.0       0.0       0.0       0.0       0.0
 5 O  dxz             0.0       0.0       0.0       0.1       0.0       0.0
 5 O  dx2y2           0.0       0.0       0.0       0.1       0.0       0.0
 5 O  dxy             0.0       0.0       0.2       0.0       0.0       0.0
 6 C  s               0.0       0.0       0.0      99.4       0.0       0.0

                      6         7         8         9        10        11   
                 -10.03266 -10.01991  -1.07204  -0.97271  -0.77620  -0.74186
                   2.00000   2.00000   2.00000   2.00000   2.00000   2.00000
                  --------  --------  --------  --------  --------  --------
 0 C  s               0.0      99.7       0.0       0.0       7.9       5.7
 0 C  pz              0.0       0.0       0.0       0.0       2.1       0.8
 0 C  px              0.0       0.0       0.0       0.0       0.3       0.1
 1 C  s               0.0       0.0       0.1       0.0      18.4       7.7
 1 C  pz              0.0       0.1       0.0       0.0       0.1       0.4
 1 C  px              0.0       0.0       0.2       0.0       0.3       0.1
 1 C  py              0.0       0.0       0.1       0.0       1.5       0.1
 2 C  s               0.0       0.0       1.0       0.2      18.9       1.9
 2 C  pz              0.0       0.0       0.4       0.2       0.4       0.1
 2 C  px              0.0       0.0       1.6       0.1       0.1       1.1
 2 C  py              0.0       0.0       0.0       0.2       1.6       0.5
 3 C  s               0.0       0.0      15.9       4.4       2.7       0.7
 3 C  pz              0.0       0.0       0.2       6.0       2.5       0.2
 3 C  px              0.0       0.0       4.4       0.5       4.9       0.9
 3 C  py              0.0       0.0       0.6      16.4       1.9       1.2
 3 C  dz2             0.0       0.0       0.2       0.1       0.0       0.0
 3 C  dxz             0.0       0.0       0.0       0.1       0.0       0.0
 3 C  dyz             0.0       0.0       0.5       0.8       0.0       0.0
 3 C  dx2y2           0.0       0.0       0.1       0.3       0.1       0.0
 3 C  dxy             0.0       0.0       0.4       0.6       0.0       0.1
 4 O  s               0.0       0.0      11.0      43.4       1.3       0.2
 4 O  pz              0.0       0.0       1.0       1.5       0.2       0.0
 4 O  px              0.0       0.0       0.0       0.3       0.1       0.0
 4 O  py              0.0       0.0       2.0       2.1       0.1       0.0
 4 O  dxz             0.0       0.0       0.0       0.1       0.1       0.0
 4 O  dyz             0.0       0.0       0.9       0.1       0.2       0.1
 4 O  dx2y2           0.0       0.0       0.5       0.0       0.0       0.1
 4 O  dxy             0.0       0.0       0.1       0.2       0.2       0.0
 5 O  s               0.0       0.0      42.7      15.0       0.0       1.2
 5 O  pz              0.0       0.0       0.7       0.1       0.4       0.4
 5 O  px              0.0       0.0       0.1       0.6       5.8       7.4
 5 O  py              0.0       0.0       2.1       0.5       0.4       1.1
 5 O  dz2             0.0       0.0       0.2       0.0       0.1       0.2
 5 O  dxz             0.0       0.0       0.0       0.2       0.1       0.6
 5 O  dyz             0.0       0.0       0.2       0.4       0.0       0.0
 5 O  dx2y2           0.0       0.0       0.0       0.5       0.0       1.1
 5 O  dxy             0.0       0.0       0.4       0.3       0.2       0.0
 6 C  s               0.0       0.0       4.6       1.8       5.2      16.2
 6 C  pz              0.0       0.0       0.8       0.5       0.1       0.2
 6 C  px              0.0       0.0       4.7       1.0       0.1       2.3
 6 C  py              0.0       0.0       0.0       0.2       0.3       1.6
 6 C  dxz             0.0       0.0       0.2       0.1       0.0       0.0
 6 C  dx2y2           0.0       0.0       0.2       0.1       0.0       0.0
 7 C  s              99.7       0.0       0.3       0.2       3.3      20.9
 7 C  pz              0.0       0.0       0.0       0.0       0.1       0.3
 7 C  px              0.0       0.0       0.4       0.2       0.3       0.6
 7 C  py              0.0       0.0       0.2       0.1       0.3       0.9
 8 H  s               0.0       0.0       0.0       0.0       1.1       0.8
 9 H  s               0.0       0.0       0.0       0.0       1.0       0.9
10 H  s               0.0       0.0       0.0       0.0       1.0       0.9
11 H  s               0.0       0.0       0.0       0.0       2.4       1.2
11 H  px              0.0       0.0       0.0       0.0       0.1       0.1
12 H  s               0.0       0.0       0.0       0.0       2.5       1.0
12 H  py              0.0       0.0       0.0       0.0       0.1       0.1
13 H  s               0.0       0.0       0.1       0.0       2.4       0.4
13 H  py              0.0       0.0       0.0       0.0       0.1       0.0
14 H  s               0.0       0.0       0.1       0.0       2.7       0.2
14 H  pz              0.0       0.0       0.0       0.0       0.2       0.0
15 H  s               0.0       0.0       0.3       0.1       0.7       2.5
15 H  py              0.0       0.0       0.0       0.0       0.1       0.2
16 H  s               0.0       0.0       0.3       0.1       0.7       2.6
16 H  pz              0.0       0.0       0.0       0.0       0.1       0.2
17 H  s               0.0       0.0       0.0       0.0       0.5       3.5
17 H  px              0.0       0.0       0.0       0.0       0.0       0.3
18 H  s               0.0       0.0       0.0       0.0       0.5       3.4
18 H  py              0.0       0.0       0.0       0.0       0.0       0.3
19 H  s               0.0       0.0       0.0       0.0       0.5       3.3
19 H  pz              0.0       0.0       0.0       0.0       0.0       0.3

                     12        13        14        15        16        17   
                  -0.67779  -0.61584  -0.56987  -0.53400  -0.47146  -0.45325
                   2.00000   2.00000   2.00000   2.00000   2.00000   2.00000
                  --------  --------  --------  --------  --------  --------
 0 C  s              20.6       4.6       8.1       0.3       0.2       0.0
 0 C  pz              0.1       0.9       7.0       0.5       0.0       0.1
 0 C  px              0.0       0.0       0.3       0.1       2.6       1.7
 0 C  py              0.1       0.0       0.3       0.1       0.0       2.2
 0 C  dz2             0.0       0.0       0.2       0.0       0.0       0.0
 1 C  s               2.7       1.5      14.0       0.9       0.0       0.2
 1 C  pz              5.3       2.8       5.0       0.0       1.3       0.8
 1 C  px              2.1       0.1       0.0       0.1       3.9       3.7
 1 C  py              2.5       0.5       2.5       1.1       0.1       6.7
 1 C  dz2             0.2       0.0       0.0       0.0       0.0       0.0
 2 C  s              12.6       3.5       2.3       1.5       0.4       1.0
 2 C  pz              0.4       0.4       0.1       0.3       8.1       1.7
 2 C  px              1.4       2.0       1.9       1.0       1.5      12.5
 2 C  py              1.1       0.0       7.5       1.6       0.6       0.4
 2 C  dxz             0.0       0.0       0.0       0.0       0.1       0.1
 3 C  s               2.6       1.8       1.1       2.2       0.3       0.8
 3 C  pz              2.8       0.3       0.9       0.1       3.7       3.6
 3 C  px              4.0       0.8       2.9       1.8       7.5       5.0
 3 C  py              0.2       1.8       0.1       2.2       2.1       1.2
 4 O  s               0.8       0.2       1.0       1.3       0.1       0.0
 4 O  pz              0.3       0.1       0.4       0.2       0.7       1.8
 4 O  px              0.3       0.0       0.4       0.8       3.6       2.3
 4 O  py              0.1       0.2       0.2       1.7       0.8       0.5
 4 O  dz2             0.0       0.0       0.0       0.0       0.2       0.2
 4 O  dxz             0.2       0.0       0.2       0.0       0.2       0.1
 4 O  dyz             0.2       0.1       0.1       0.1       0.0       0.1
 4 O  dx2y2           0.0       0.2       0.0       0.1       0.1       0.1
 4 O  dxy             0.2       0.0       0.1       0.1       0.4       0.3
 5 O  s               0.7       0.0       0.6       4.9       0.1       0.2
 5 O  pz              0.3       1.2       0.1       1.8       5.7      11.5
 5 O  px              1.6      14.6       0.3      10.0       1.4       1.4
 5 O  py              0.1       1.4       0.2      10.6      13.1       0.9
 5 O  dz2             0.3       0.1       0.0       0.0       0.1       1.0
 5 O  dxz             0.0       0.7       0.3       0.4       0.0       0.0
 5 O  dx2y2           0.4       0.1       0.2       0.2       0.3       0.6
 5 O  dxy             0.6       0.7       0.1       0.2       0.5       0.0
 6 C  s               0.2       5.6       2.7       5.5       0.1       0.3
 6 C  pz              0.0       0.5       0.7       9.6       6.5       8.1
 6 C  px              2.0       3.6       0.1       6.0       1.6       2.0
 6 C  py              0.5       2.1       0.8       5.5       9.5       0.6
 6 C  dxz             0.1       0.1       0.0       0.3       0.0       0.0
 6 C  dx2y2           0.0       0.0       0.0       0.2       0.0       0.0
 6 C  dxy             0.0       0.1       0.0       0.0       0.0       0.0
 7 C  s               5.9      14.8       1.4       0.4       0.1       0.3
 7 C  pz              0.0       0.4       0.4       2.6       2.7       1.4
 7 C  px              0.1       2.2       0.3       0.4       1.6       1.1
 7 C  py              0.0       1.8       1.0       2.3       1.4       5.1
 8 H  s               4.0       1.5       4.0       0.1       0.2       0.1
 8 H  pz              0.1       0.0       0.1       0.0       0.0       0.0
 8 H  px              0.2       0.1       0.2       0.0       0.0       0.0
 9 H  s               4.1       1.2       3.8       0.3       0.5       1.4
 9 H  px              0.1       0.0       0.1       0.0       0.0       0.0
 9 H  py              0.2       0.1       0.2       0.0       0.0       0.0
10 H  s               4.6       1.5       3.0       0.1       0.5       0.1
10 H  py              0.3       0.1       0.2       0.0       0.0       0.0
11 H  s               0.6       0.6       6.7       0.3       1.1       0.4
11 H  pz              0.0       0.0       0.1       0.0       0.0       0.0
11 H  px              0.0       0.0       0.4       0.0       0.0       0.0
12 H  s               0.5       0.3       6.5       0.8       0.6       3.7
12 H  px              0.0       0.0       0.2       0.0       0.0       0.1
12 H  py              0.0       0.0       0.2       0.0       0.0       0.1
13 H  s               2.6       1.3       1.7       2.0       0.6       3.6
13 H  px              0.1       0.0       0.1       0.0       0.0       0.0
13 H  py              0.1       0.1       0.0       0.1       0.0       0.2
14 H  s               3.3       1.1       0.7       0.7       3.2       0.9
14 H  pz              0.3       0.1       0.1       0.0       0.1       0.0
14 H  px              0.0       0.0       0.0       0.0       0.0       0.1
15 H  s               0.0       1.8       1.4       6.8       3.6       1.6
15 H  py              0.0       0.1       0.1       0.3       0.1       0.1
16 H  s               0.0       1.9       1.4       6.4       3.3       2.0
16 H  pz              0.0       0.2       0.1       0.3       0.2       0.1
17 H  s               1.5       5.3       0.5       0.0       0.2       1.1
17 H  pz              0.0       0.1       0.0       0.0       0.0       0.0
17 H  px              0.1       0.3       0.0       0.0       0.0       0.0
18 H  s               1.2       4.5       0.8       0.9       0.7       1.8
18 H  py              0.1       0.2       0.0       0.0       0.0       0.0
19 H  s               1.3       4.6       0.7       0.8       1.3       0.2
19 H  pz              0.1       0.3       0.0       0.0       0.1       0.0

                     18        19        20        21        22        23   
                  -0.43990  -0.42444  -0.41042  -0.37988  -0.37767  -0.37093
                   2.00000   2.00000   2.00000   2.00000   2.00000   2.00000
                  --------  --------  --------  --------  --------  --------
 0 C  s               0.3       0.1       0.1       0.0       0.1       0.0
 0 C  pz              2.8       0.0       5.2       0.1       2.1       3.0
 0 C  px              0.0       4.0      10.3       0.0       8.5       0.2
 0 C  py              1.6       8.5       1.8      13.5       0.1       5.3
 1 C  s               0.3       0.1       0.1       0.1       0.3       0.0
 1 C  pz              1.1       1.5       0.0       0.2       5.9       2.6
 1 C  px              1.8       3.2      15.8       0.3       1.0       0.6
 1 C  py              1.0       9.2       0.7       4.1       0.0       0.9
 2 C  s               0.2       0.1       0.6       0.1       0.0       0.1
 2 C  pz             11.8       5.7       4.7       0.2       2.0       2.2
 2 C  px              1.7       3.0       0.2       0.4       0.5       0.1
 2 C  py              1.5       2.5       1.9       7.3       2.0       3.8
 2 C  dx2y2           0.0       0.0       0.1       0.0       0.0       0.0
 2 C  dxy             0.0       0.0       0.0       0.1       0.0       0.1
 3 C  s               2.4       1.3       0.1       0.1       0.2       0.1
 3 C  pz              2.0       2.2       1.6       1.0       4.9       1.4
 3 C  px              0.3       0.1       1.1       1.4       0.8       0.5
 3 C  py              1.2       3.8       0.3       0.2       2.5       2.3
 3 C  dz2             0.0       0.0       0.0       0.0       0.1       0.0
 3 C  dxz             0.0       0.0       0.1       0.0       0.0       0.0
 3 C  dx2y2           0.2       0.0       0.1       0.0       0.1       0.1
 3 C  dxy             0.0       0.0       0.1       0.2       0.0       0.0
 4 O  s              10.6       3.7       0.7       0.1       0.1       1.7
 4 O  pz              7.6      11.0       0.0       1.6       2.7       4.3
 4 O  px              1.8       0.3       1.4       1.7       1.2       0.4
 4 O  py             15.7       3.2       3.6       0.0       6.1       6.8
 4 O  dz2             0.0       0.3       0.1       0.1       0.2       0.0
 4 O  dxz             0.0       0.0       0.1       0.1       0.0       0.1
 4 O  dyz             0.3       0.2       0.0       0.0       0.0       0.1
 4 O  dx2y2           0.1       0.0       0.1       0.0       0.2       0.1
 5 O  s               0.7       0.2       1.5       0.9       0.1       0.6
 5 O  pz              2.7       0.2       7.1       2.4       3.7       1.1
 5 O  px              3.7       0.8       2.7       0.1       2.6       0.4
 5 O  py              3.6       0.1       2.4       2.2       4.0       1.6
 5 O  dz2             0.1       0.0       0.0       0.3       0.0       0.0
 5 O  dxz             0.8       0.3       0.0       0.1       0.2       0.0
 5 O  dyz             0.1       0.2       0.2       0.0       0.2       0.0
 5 O  dx2y2           0.0       0.3       0.0       0.0       0.7       0.0
 5 O  dxy             0.0       0.8       0.2       0.5       0.1       0.0
 6 C  s               0.1       0.0       0.2       0.2       0.1       0.1
 6 C  pz              2.8       1.6       0.1       0.2       0.6       0.9
 6 C  px              1.1       1.5       3.8       0.4       0.6       1.5
 6 C  py              1.0       3.7       1.6       1.3       0.3       2.5
 6 C  dxz             0.0       0.0       0.0       0.0       0.2       0.0
 6 C  dx2y2           0.0       0.0       0.0       0.2       0.0       0.1
 7 C  pz              2.8       2.0       3.8       0.1      12.3      13.4
 7 C  px              0.2       1.7       0.5      23.4       1.9       5.9
 7 C  py              0.0       3.3       2.0       3.3       7.4       6.9
 7 C  dz2             0.0       0.0       0.0       0.0       0.1       0.1
 7 C  dxz             0.0       0.0       0.0       0.1       0.1       0.1
 7 C  dx2y2           0.0       0.0       0.0       0.2       0.0       0.2
 8 H  s               0.4       1.1       5.7       0.4       0.7       1.6
 9 H  s               0.0       0.1       2.2       3.4       1.8       1.5
 9 H  px              0.0       0.0       0.0       0.1       0.0       0.1
10 H  s               1.4       4.4       0.1       4.3       1.6       1.3
11 H  s               0.2       2.6       4.2       0.0       1.5       0.0
11 H  pz              0.0       0.0       0.1       0.0       0.0       0.0
12 H  s               0.6       0.7       2.8       0.4       0.2       0.0
12 H  py              0.0       0.0       0.1       0.0       0.0       0.0
13 H  s               1.0       0.2       0.4       4.0       1.5       1.6
14 H  s               6.3       2.0       3.8       0.1       1.2       0.9
14 H  pz              0.2       0.1       0.1       0.0       0.0       0.0
15 H  s               0.0       2.2       0.0       0.0       0.0       0.9
16 H  s               1.5       1.1       0.2       0.0       0.0       0.8
17 H  s               0.0       0.2       0.0      10.8       3.8       7.9
17 H  pz              0.0       0.0       0.0       0.1       0.0       0.0
17 H  px              0.0       0.0       0.0       0.1       0.1       0.2
18 H  s               0.0       2.0       0.4       5.8       2.8       4.4
18 H  pz              0.0       0.0       0.0       0.0       0.1       0.2
18 H  py              0.0       0.1       0.0       0.2       0.0       0.1
19 H  s               1.2       1.2       1.7       0.1       6.5       4.9
19 H  pz              0.0       0.0       0.0       0.0       0.1       0.0
19 H  px              0.0       0.0       0.0       0.2       0.0       0.1
19 H  py              0.0       0.0       0.0       0.0       0.0       0.1

                     24        25        26        27        28        29   
                  -0.35541  -0.33479  -0.32718  -0.31295  -0.30998  -0.30897
                   2.00000   2.00000   2.00000   2.00000   2.00000   2.00000
                  --------  --------  --------  --------  --------  --------
 0 C  s               0.0       0.1       0.4       0.0       0.3       0.0
 0 C  pz              0.0       1.1      16.0       0.3       8.2       3.3
 0 C  px              7.8       4.4       2.8       8.9       5.1       0.2
 0 C  py              5.4       4.9       1.9       0.0       0.5      11.5
 0 C  dz2             0.0       0.1       0.0       0.1       0.2       0.0
 0 C  dxz             0.0       0.0       0.3       0.3       0.0       0.0
 0 C  dyz             0.0       0.0       0.0       0.0       0.0       0.2
 0 C  dxy             0.1       0.1       0.0       0.0       0.0       0.4
 1 C  s               0.0       0.1       0.3       0.0       0.1       0.1
 1 C  pz              0.5       1.6      14.5       0.7       6.8       2.9
 1 C  px              0.1       0.5       1.1      12.5       6.9       0.3
 1 C  py              0.0       0.8       2.7       0.0       2.0      16.4
 1 C  dz2             0.0       0.1       0.1       0.1       0.4       0.0
 1 C  dxz             0.0       0.0       0.4       0.3       0.0       0.0
 1 C  dyz             0.0       0.0       0.1       0.0       0.0       0.2
 1 C  dx2y2           0.1       0.0       0.0       0.1       0.0       0.0
 1 C  dxy             0.0       0.1       0.0       0.1       0.1       0.4
 2 C  s               0.1       0.3       0.5       0.1       0.1       0.4
 2 C  pz              0.1       1.5       0.6       0.1       6.6       4.7
 2 C  px             10.8       0.0       1.1       5.4       0.8       1.2
 2 C  py              4.0       2.2       3.0       0.0       0.5      11.5
 2 C  dz2             0.0       0.0       0.1       0.0       0.3       0.1
 2 C  dyz             0.0       0.0       0.1       0.0       0.0       0.0
 2 C  dx2y2           0.0       0.0       0.0       0.2       0.0       0.0
 2 C  dxy             0.2       0.0       0.0       0.1       0.0       0.3
 3 C  s               0.2       0.0       0.1       0.6       0.0       0.0
 3 C  pz              1.3       2.4       0.1       1.3       1.6       0.9
 3 C  px              4.5       1.0       0.6       1.4       0.3       0.1
 3 C  py              0.1       1.9       0.1       1.9       0.9       0.6
 3 C  dz2             0.0       0.1       0.0       0.0       0.3       0.1
 3 C  dxz             0.1       0.0       0.1       0.0       0.0       0.0
 3 C  dyz             0.0       0.0       0.0       0.1       0.2       0.0
 3 C  dx2y2           0.0       0.2       0.1       0.3       0.1       0.0
 3 C  dxy             0.1       0.0       0.1       0.1       0.0       0.2
 4 O  s               0.2       0.0       0.1       0.6       0.3       0.0
 4 O  pz              0.0       7.3       0.0       4.8       0.6       5.3
 4 O  px              0.6       0.6       3.6       0.8       1.4       0.3
 4 O  py              2.2       1.9       0.0       2.8       6.9       1.0
 4 O  dz2             0.0       0.3       0.0       0.0       0.0       0.0
 4 O  dyz             0.0       0.0       0.0       0.1       0.1       0.0
 4 O  dx2y2           0.0       0.0       0.1       0.2       0.0       0.0
 5 O  s               0.0       0.1       0.9       1.3       0.9       0.1
 5 O  pz              0.9       0.0       3.5       5.8       4.3       2.4
 5 O  px              4.2       0.7       1.0       2.1       0.4       0.2
 5 O  py              0.2       1.1       1.7       7.8       7.0       0.0
 5 O  dz2             0.0       0.5       0.1       0.0       0.2       0.0
 5 O  dxz             0.4       0.2       0.0       0.0       0.0       0.1
 5 O  dyz             0.0       0.1       0.0       0.3       0.1       0.0
 5 O  dx2y2           0.0       0.3       0.1       0.5       0.0       0.0
 5 O  dxy             0.2       0.1       0.4       0.9       0.1       0.1
 6 C  s               0.1       0.0       0.2       0.3       0.2       0.0
 6 C  pz              1.5       7.8       1.1       2.2       0.4       2.3
 6 C  px              7.3       0.6       0.1       0.7       0.2       0.4
 6 C  py              5.9       2.7       5.2       1.9       4.8       0.2
 6 C  dz2             0.0       0.4       0.0       0.0       0.0       0.2
 6 C  dx2y2           0.1       0.1       0.1       0.1       0.1       0.0
 6 C  dxy             0.1       0.0       0.2       0.2       0.3       0.0
 7 C  s               0.2       0.0       0.2       0.2       0.2       0.0
 7 C  pz              0.9      11.2       0.5       0.8       0.1       1.1
 7 C  px             11.7       1.2       0.1       0.2       0.3       0.6
 7 C  py              5.2       4.8       4.8       1.3       3.3       0.0
 7 C  dz2             0.0       0.4       0.0       0.0       0.0       0.1
 8 H  s               1.8       1.2       8.6       6.0       0.2       0.4
 8 H  pz              0.0       0.1       0.0       0.0       0.1       0.0
 8 H  px              0.0       0.0       0.1       0.0       0.0       0.0
 8 H  py              0.1       0.0       0.0       0.0       0.0       0.1
 9 H  s               6.2       0.0       0.1       2.5       3.6       5.3
 9 H  pz              0.0       0.0       0.1       0.0       0.1       0.0
10 H  s               0.4       5.5       0.8       1.1       0.4       7.0
10 H  pz              0.0       0.0       0.2       0.0       0.1       0.0
11 H  s               0.0       0.0       7.2       8.8       0.2       0.4
11 H  px              0.0       0.0       0.1       0.0       0.0       0.0
11 H  py              0.0       0.0       0.0       0.0       0.0       0.2
12 H  s               0.0       0.1       1.0       4.1       7.0       6.5
12 H  pz              0.0       0.0       0.1       0.0       0.0       0.1
12 H  px              0.0       0.0       0.0       0.0       0.0       0.1
13 H  s               7.1       0.1       2.0       2.3       2.6       1.4
13 H  py              0.1       0.0       0.0       0.0       0.0       0.0
14 H  s               0.0       0.4       1.6       0.2       5.5       3.0
14 H  py              0.0       0.0       0.0       0.0       0.0       0.1
15 H  s               0.4       3.3       3.2       1.6       3.3       0.6
16 H  s               0.5       6.9       0.4       0.9       0.1       2.2
17 H  s               3.7       0.1       0.1       0.1       0.0       0.0
18 H  s               0.1       5.8       2.0       0.4       1.2       0.4
18 H  px              0.1       0.0       0.0       0.0       0.0       0.0
19 H  s               0.4       9.2       0.0       0.3       0.0       0.9
19 H  pz              0.0       0.1       0.0       0.0       0.0       0.0

                     30        31        32        33        34        35   
                  -0.27096  -0.23015  -0.01449   0.07063   0.09475   0.11443
                   2.00000   2.00000   0.00000   0.00000   0.00000   0.00000
                  --------  --------  --------  --------  --------  --------
 0 C  s               0.0       0.0       0.3       7.1       0.3       8.7
 0 C  pz              0.0       0.3       0.3       1.0       0.4       1.5
 0 C  px              0.1       0.0       0.1       0.6       0.2       3.3
 0 C  py              0.0       0.0       0.0       0.1       0.1       0.8
 0 C  dz2             0.0       0.0       0.1       0.1       0.0       0.6
 0 C  dyz             0.0       0.0       0.0       0.0       0.0       0.1
 0 C  dx2y2           0.0       0.0       0.0       0.0       0.0       0.1
 0 C  dxy             0.0       0.0       0.0       0.0       0.0       0.1
 1 C  s               0.0       0.1       1.8       3.8       0.4       9.9
 1 C  pz              0.0       0.1       0.2       0.1       0.2       3.5
 1 C  px              0.4       0.8       0.2       0.1       0.1       3.7
 1 C  py              0.3       0.5       2.0       1.5       0.1       4.9
 1 C  dxz             0.0       0.1       0.0       0.0       0.0       0.2
 1 C  dyz             0.0       0.0       0.0       0.0       0.0       0.3
 1 C  dxy             0.0       0.0       0.1       0.2       0.0       0.0
 2 C  s               0.0       0.5       0.2       6.1       0.3       3.2
 2 C  pz              0.0       2.7       0.1       0.4       0.2       2.9
 2 C  px              0.1       3.3       0.3       0.4       0.9       1.5
 2 C  py              0.0       1.3       0.3       1.0       0.3       0.5
 2 C  dz2             0.0       0.0       1.2       0.0       0.1       0.5
[...]
 2 C  dyz             0.4       0.0       0.0       0.0       0.0       0.0
 2 C  dx2y2           2.0       0.0       0.1       0.0       0.0       0.0
 2 C  dxy             4.1       0.1       0.2       0.2       0.0       0.0
 3 C  s               1.2       0.2       3.2       5.0       0.0       0.0
 3 C  pz              0.1       0.2       0.2       2.9       0.0       0.0
 3 C  px              0.2       0.5       3.5       0.2       0.0       0.0
 3 C  py              0.4       0.9       3.5       5.0       0.0       0.0
 3 C  dz2             0.0       0.4       1.9       0.0       0.0       0.0
 3 C  dxz             4.2       0.2       1.3       0.2       0.0       0.0
 3 C  dyz             0.4       0.0       0.4       4.3       0.0       0.0
 3 C  dx2y2           5.2       0.0       0.2       1.5       0.0       0.0
 3 C  dxy             1.2       1.6       8.2       0.5       0.0       0.0
 4 O  s               0.3       1.0       0.8      19.2       0.0       0.0
 4 O  pz              0.1       0.2       0.1       7.7       0.0       0.0
 4 O  px              4.2       0.1       0.2       1.0       0.0       0.0
 4 O  py              1.8       0.6       0.2      12.9       0.0       0.0
 4 O  dz2             1.2       0.0       0.0       0.1       0.0       0.0
 4 O  dxz             4.1       0.0       1.0       1.2       0.0       0.0
 4 O  dyz             0.7       1.1       0.1      21.3       0.0       0.0
 4 O  dx2y2           2.5       1.0       0.4       8.0       0.0       0.0
 4 O  dxy             8.9       0.0       0.3       2.2       0.0       0.0
 5 O  s               3.6      26.9       4.9       1.1       0.0       0.0
 5 O  pz              1.4       4.9       0.0       0.1       0.0       0.0
 5 O  px              0.1       6.8      23.8       0.7       0.0       0.0
 5 O  py              3.7       2.0       8.9       0.1       0.0       0.0
 5 O  dz2             0.1       4.3       3.2       0.1       0.0       0.0
 5 O  dxz             0.0       7.1       5.2       0.9       0.0       0.0
 5 O  dyz             3.4       0.8       0.9       0.0       0.0       0.0
 5 O  dx2y2           2.8       9.7       2.0       1.0       0.0       0.0
 5 O  dxy             0.2       2.9      17.7       0.0       0.0       0.0
 6 C  s               0.3       1.4       0.7       0.2      19.1       0.4
 6 C  pz              0.1       1.9       0.5       0.1       0.0       0.0
 6 C  px              0.0       5.9       1.9       0.3       0.0       0.0
 6 C  dz2             0.0       0.9       0.1       0.0       0.0       0.0
 6 C  dxz             0.1       5.5       1.2       0.3       0.0       0.0
 6 C  dyz             0.3       0.2       0.0       0.0       0.0       0.0
 6 C  dx2y2           0.0       5.9       1.6       0.3       0.0       0.0
 6 C  dxy             0.2       0.0       0.0       0.0       0.0       0.0
 7 C  s               0.0       0.0       0.0       0.0      66.8      11.1
 7 C  dz2             0.1       0.0       0.0       0.0       0.0       0.0
 7 C  dxz             0.0       0.2       0.0       0.0       0.0       0.0
 7 C  dx2y2           0.0       0.3       0.0       0.0       0.0       0.0
 8 H  s               0.5       0.0       0.0       0.0       0.0       0.0
 8 H  pz              0.6       0.0       0.0       0.0       0.0       0.0
 8 H  px              0.9       0.0       0.0       0.0       0.0       0.0
10 H  s               0.3       0.0       0.0       0.0       0.0       0.0
10 H  px              0.1       0.0       0.0       0.0       0.0       0.0
10 H  py              0.4       0.0       0.0       0.0       0.0       0.0
11 H  s               1.0       0.0       0.0       0.0       0.0       0.0
11 H  pz              0.4       0.0       0.0       0.0       0.0       0.0
11 H  px              2.1       0.0       0.0       0.0       0.0       0.0
12 H  s               0.5       0.0       0.0       0.0       0.0       0.0
12 H  pz              0.2       0.0       0.0       0.0       0.0       0.0
12 H  px              0.3       0.0       0.0       0.0       0.0       0.0
12 H  py              0.9       0.0       0.0       0.0       0.0       0.0
13 H  s               4.2       0.0       0.1       0.1       0.0       0.0
13 H  pz              0.1       0.0       0.0       0.0       0.0       0.0
13 H  px              2.7       0.0       0.0       0.0       0.0       0.0
13 H  py              5.6       0.0       0.1       0.1       0.0       0.0
14 H  s               0.8       0.0       0.0       0.0       0.0       0.0
14 H  pz              1.4       0.0       0.0       0.0       0.0       0.0
15 H  s               0.0       0.3       0.1       0.0       0.0       0.0
15 H  pz              0.0       0.2       0.1       0.0       0.0       0.0
15 H  px              0.2       0.0       0.0       0.0       0.0       0.0
15 H  py              0.0       0.7       0.1       0.0       0.0       0.0
16 H  s               0.0       0.5       0.0       0.0       0.0       0.0
16 H  pz              0.0       0.7       0.0       0.0       0.0       0.0
16 H  px              0.1       0.5       0.1       0.0       0.0       0.0
17 H  px              0.0       0.2       0.0       0.0       0.0       0.0

                    216       217       218       219       220       221   
                  21.99302  22.02412  22.07828  22.28287  43.70405  43.74997
                   0.00000   0.00000   0.00000   0.00000   0.00000   0.00000
                  --------  --------  --------  --------  --------  --------
 0 C  s               9.5       0.7       3.1       0.2       0.0       0.0
 1 C  s              11.0      85.0       0.1       2.6       0.0       0.0
 2 C  s              13.9       0.9      70.2       0.1       0.0       0.0
 3 C  s               4.4       0.8       0.3      93.6       0.0       0.0
 4 O  s               0.0       0.0       0.0       0.2      95.0       4.9
 5 O  s               0.0       0.0       0.1       0.1       4.9      95.1
 6 C  s              45.3       6.5      25.9       2.2       0.0       0.0
 7 C  s              15.5       5.8       0.0       0.5       0.0       0.0



                      *****************************
                      * MAYER POPULATION ANALYSIS *
                      *****************************

  NA   - Mulliken gross atomic population
  ZA   - Total nuclear charge
  QA   - Mulliken gross atomic charge
  VA   - Mayer's total valence
  BVA  - Mayer's bonded valence
  FA   - Mayer's free valence

  ATOM       NA         ZA         QA         VA         BVA        FA
  0 C      6.4802     6.0000    -0.4802     3.8274     3.8274    -0.0000
  1 C      6.2281     6.0000    -0.2281     3.6686     3.6686     0.0000
  2 C      6.3165     6.0000    -0.3165     3.7203     3.7203    -0.0000
  3 C      5.6532     6.0000     0.3468     3.8212     3.8212     0.0000
  4 O      8.4171     8.0000    -0.4171     1.9425     1.9425    -0.0000
  5 O      8.1605     8.0000    -0.1605     1.9037     1.9037    -0.0000
  6 C      6.1458     6.0000    -0.1458     3.6733     3.6733    -0.0000
  7 C      6.4432     6.0000    -0.4432     3.8411     3.8411     0.0000
  8 H      0.8454     1.0000     0.1546     0.9633     0.9633     0.0000
  9 H      0.8507     1.0000     0.1493     0.9642     0.9642     0.0000
 10 H      0.8527     1.0000     0.1473     0.9616     0.9616     0.0000
 11 H      0.8546     1.0000     0.1454     0.9595     0.9595     0.0000
 12 H      0.8477     1.0000     0.1523     0.9623     0.9623     0.0000
 13 H      0.8302     1.0000     0.1698     0.9612     0.9612    -0.0000
 14 H      0.8412     1.0000     0.1588     0.9590     0.9590    -0.0000
 15 H      0.8369     1.0000     0.1631     0.9521     0.9521     0.0000
 16 H      0.8478     1.0000     0.1522     0.9508     0.9508    -0.0000
 17 H      0.8526     1.0000     0.1474     0.9638     0.9638     0.0000
 18 H      0.8486     1.0000     0.1514     0.9614     0.9614     0.0000
 19 H      0.8471     1.0000     0.1529     0.9615     0.9615     0.0000

  Mayer bond orders larger than 0.100000
B(  0-C ,  1-C ) :   0.9133 B(  0-C ,  8-H ) :   0.9707 B(  0-C ,  9-H ) :   0.9781 
B(  0-C , 10-H ) :   0.9703 B(  1-C ,  2-C ) :   0.8855 B(  1-C , 11-H ) :   0.9643 
B(  1-C , 12-H ) :   0.9727 B(  2-C ,  3-C ) :   0.9562 B(  2-C , 13-H ) :   1.0048 
B(  2-C , 14-H ) :   0.9463 B(  3-C ,  4-O ) :   1.8308 B(  3-C ,  5-O ) :   1.0541 
B(  5-O ,  6-C ) :   0.8062 B(  6-C ,  7-C ) :   0.9420 B(  6-C , 15-H ) :   0.9584 
B(  6-C , 16-H ) :   0.9490 B(  7-C , 17-H ) :   0.9681 B(  7-C , 18-H ) :   0.9706 
B(  7-C , 19-H ) :   0.9737 

-------
TIMINGS
-------

Total SCF time: 0 days 0 hours 0 min 28 sec 

Total time                  ....      28.444 sec
Sum of individual times     ....      27.919 sec  ( 98.2%)

SCF preparation             ....       0.217 sec  (  0.8%)
Fock matrix formation       ....      26.459 sec  ( 93.0%)
  Startup                   ....       0.077 sec  (  0.3% of F)
  Split-RI-J                ....       5.393 sec  ( 20.4% of F)
  XC integration            ....      20.334 sec  ( 76.9% of F)
    XC Preparation          ....       0.000 sec  (  0.0% of XC)
    Basis function eval.    ....       3.714 sec  ( 18.3% of XC)
    Density eval.           ....       6.180 sec  ( 30.4% of XC)
    XC-Functional eval.     ....       2.618 sec  ( 12.9% of XC)
    XC-Potential eval.      ....       6.718 sec  ( 33.0% of XC)
Diagonalization             ....       0.000 sec  (  0.0%)
Density matrix formation    ....       0.303 sec  (  1.1%)
Total Energy calculation    ....       0.047 sec  (  0.2%)
Population analysis         ....       0.153 sec  (  0.5%)
Orbital Transformation      ....       0.068 sec  (  0.2%)
Orbital Orthonormalization  ....       0.000 sec  (  0.0%)
DIIS solution               ....       0.598 sec  (  2.1%)
  MO trafo                  ....       0.000 sec  (  0.0 % of DIIS)
  Orb grad                  ....       0.000 sec  (  0.0 % of DIIS)
  Energy W gradient         ....       0.000 sec  (  0.0 % of DIIS)
  DIIS error                ....       0.032 sec  (  5.3 % of DIIS)
  DIIS work                 ....       0.490 sec  ( 82.0 % of DIIS)
  Form Q                    ....       0.000 sec  (  0.0 % of DIIS)
  Form QpQm                 ....       0.000 sec  (  0.0 % of DIIS)
  Exp/Cayley                ....       0.000 sec  (  0.0 % of DIIS)
  Orb update                ....       0.000 sec  (  0.0 % of DIIS)
  Wake-sleep                ....       0.040 sec  (  6.7 % of DIIS)
SOSCF solution              ....       0.073 sec  (  0.3%)
  MO trafo                  ....       0.052 sec  ( 71.0 % of SOSCF)
  Orb grad                  ....       0.001 sec  (  1.5 % of SOSCF)
  Rot update                ....       0.000 sec  (  0.1 % of SOSCF)
  Step                      ....       0.020 sec  ( 27.2 % of SOSCF)
Finished LeanSCF after  28.6 sec

Maximum memory used throughout the entire LEANSCF-calculation: 24.1 MB


-------------------------------------------------------------------------------
                          DFT DISPERSION CORRECTION                            
                                                                               
                                DFTD4 V3.4.0                                   
-------------------------------------------------------------------------------
The R2SCAN3C composite method is recognized
Using three-body term ABC
Active option DFTDOPT                   ...         5   

-------------------------   ----------------
Dispersion correction           -0.005101911
-------------------------   ----------------

------------------   -----------------
gCP correction             0.011637661
------------------   -----------------

-------------------------   --------------------
FINAL SINGLE POINT ENERGY      -386.235911094910
-------------------------   --------------------


------------------------------------------------------------------------------
                              ORCA PROPERTY CALCULATIONS
------------------------------------------------------------------------------

GBWName                                 ... sp_gas.gbw
Number of atoms                         ...     20
Number of basis functions               ...    222
Max core memory                         ...   1024 MB

Electric properties:
Dipole moment                           ... YES
Quadrupole moment                       ...  NO
Static polarizability (Dipole/Dipole)   ...  NO
Static polarizability (Dipole/Quad.)    ...  NO
Static polarizability (Quad./Quad.)     ...  NO
Static polarizability (Velocity)        ...  NO

Atomic electric properties:
Dipole moment                           ...  NO
Quadrupole moment                       ...  NO
Static polarizability                   ...  NO

Choice of electric origin               ... Center of mass
Position of electric origin             ...    -0.000008    -0.000020    -0.000002

General magnetic properties:
Magnetizability                         ...  NO

EPR properties:
g-Tensor (aka g-matrix)                 ...  NO
Zero-Field splitting spin-orbit         ...  NO
Zero-field splitting spin-spin          ...  NO
Hyperfine couplings                     ...  NO (   0 nuclei)
Quadrupole couplings                    ...  NO (   0 nuclei)
Contact density                         ...  NO (   0 nuclei)

NMR properties:
Chemical shifts                         ...  NO (   0 nuclei)
Spin-rotation constants                 ...  NO (   0 nuclei)
Spin-spin couplings                     ...  NO (   0 nuclei,    0 pairs)

Choice of magnetic origin               ... GIAO
Position of magnetic origin             ...     0.000000     0.000000     0.000000

Properties with geometric perturbations:
SCF Hessian                             ...  NO
IR spectrum                             ...  NO
VCD spectrum                            ...  NO
X-ray spectroscopy properties:
SCF XES/XAS/RIXS spectra                ...  NO


-------------
DIPOLE MOMENT
-------------

Method             : SCF
Type of density    : Electron Density
Multiplicity       :   1
Irrep              :   0
Energy             :  -386.2424468457717239 Eh
Relativity type    : 
Basis              : AO
                                X                 Y                 Z
Electronic contribution:      1.488339514       5.239916990      -0.530659215
Nuclear contribution   :     -1.323138002      -6.050169795       0.125051630
                        -----------------------------------------
Total Dipole Moment    :      0.165201512      -0.810252804      -0.405607585
                        -----------------------------------------
Magnitude (a.u.)       :      0.921042159
Magnitude (Debye)      :      2.341103118



--------------------
Rotational spectrum 
--------------------
 
Rotational constants in cm-1:             0.110119             0.037984             0.033665 
Rotational constants in MHz :          3301.296736          1138.717336          1009.244154 

Dipole components along the rotational axes: 
x,y,z [a.u.] :     0.227777    -0.846353     0.283060 
x,y,z [Debye]:     0.578963    -2.151258     0.719482 

 

Dipole moment calculation done in   0.0 sec 

Maximum memory used throughout the entire PROP-calculation: 13.8 MB

--------------------------------
SUGGESTED CITATIONS FOR THIS RUN
--------------------------------

Below you find a list of papers that are relevant to this ORCA run
We neither can nor want to force you to cite these papers, but we appreciate if you do
You receive ORCA, which is the product of decades of hard work by many enthusiastic individuals, for free
The only thing we kindly ask in return is that you cite our papers,
We deeply appreciate it, if you show your appreciation for ORCA by not just citing the generic ORCA reference.

Please note that relegating all ORCA citations to the supporting information does *not* help us.
SI sections are not indexed - citations you put there will not count into any citation statistics
But we need these citations in order to attract the funding resources that allow us to do what we are doing

Therefore, if you are a happy ORCA user, please consider citing a few of the papers listed below in the main body of your paper

In addition to the list printed below, the program has created the file sp_gas.bibtex that contains the list in bibtex format
You can import this file easily into all common literature databanks and citation aid programs


List of essential papers. We consider these as the minimum necessary citations

  1. Neese,F.
     Software update: the ORCA program system, version 5.0
     WIRES Comput. Molec. Sci., 2022 12(1)e1606
     doi.org/10.1002/wcms.1606
  2. Grimme,S.; Hansen,A.; Ehlert,S.; Mewes,J.
     r2SCAN-3c: A 'Swiss army knife' composite electronic-structure method
     J. Chem. Phys., 2021 154 064103
     doi.org/10.1063/5.0040021

List of papers to cite with high priority. The work reported in these papers was absolutely
necessary for this run to complete.
Our perspective: the developers of density functionals and basis sets usually get cited in chemistry papers
Good! But without the algorithms to do something with them, the functionals or basis sets would not do anything.
Hence, in our opinion, the algorithm design and method developments papers are equally worthy of getting cited

  1. Neese,F.
     An improvement of the resolution of the identity approximation for the formation of the Coulomb matrix
     J. Comp. Chem., 2003 24(14)1740-1747
     doi.org/10.1002/jcc.10318
  2. Neese,F.
     The SHARK Integral Generation and Digestion System
     J. Comp. Chem., 2022  1-16
     doi.org/10.1002/jcc.26942
  3. Lehtola,S.; Steigemann,C.; Oliveira,M.; Marques,M.
     Recent developments in Libxc - A comprehensive library of functionals for density functional theory
     Software X, 2018 7 
     doi.org/10.1016/j.softx.2017.11.002
  4. Caldeweyher,E.; Bannwarth,C.; Grimme,S.
     Extension of the D3 dispersion coefficient model
     J. Chem. Phys., 2017 147 034112-XXXX
     doi.org/10.1063/1.4993215
  5. Caldeweyher,E.; Ehlert,S.; Hansen,A.; Neugebauer,H.; Spicher,S.; Bannwarth,C.; Grimme,S.
     A generally applicable atomic-charge dependent London dispersion correction
     J. Chem. Phys., 2019 150 154122-XXXX
     doi.org/10.1063/1.5090222
  6. Caldeweyher,E.; Mewes,J.; Ehlert,S.; Grimme,S.
     Extension and evaluation of the D4 London-dispersion model for periodic systems
     Phys. Chem. Chem. Phys., 2020 22(16)8499-8512
     doi.org/10.1039/D0CP00502A

List of suggested additional citations. These are papers that are important in the 'surrounding' of 
of this run, or papers that preceded the highly important papers. If you like your results we are grateful for a citation.

  1. Neese,F.
     The ORCA program system
     WIRES Comput. Molec. Sci., 2012 2(1)73-78
     doi.org/10.1002/wcms.81
  2. Neese,F.
     Software update: the ORCA program system, version 4.0
     WIRES Comput. Molec. Sci., 2018 8(1)1-6
     doi.org/10.1002/wcms.1327
  3. Neese,F.; Wennmohs,F.; Becker,U.; Riplinger,C.
     The ORCA quantum chemistry program package
     J. Chem. Phys., 2020 152 Art. No. L224108
     doi.org/10.1063/5.0004608

List of optional additional citations

  1. Neese,F.
     Approximate second-order SCF convergence for spin unrestricted wavefunctions
     Chem. Phys. Lett., 2000 325(1-3)93-98
     doi.org/10.1016/s0009-2614(00)00662-x

Timings for individual modules:

Sum of individual times          ...       30.463 sec (=   0.508 min)
Startup calculation              ...        1.345 sec (=   0.022 min)   4.4 %
SCF iterations                   ...       28.969 sec (=   0.483 min)  95.1 %
Property calculations            ...        0.149 sec (=   0.002 min)   0.5 %
                             ****ORCA TERMINATED NORMALLY****
TOTAL RUN TIME: 0 days 0 hours 0 minutes 31 seconds 392 msec
