
                                 *****************
                                 * O   R   C   A *
                                 *****************

                                            #,                                       
                                            ###                                      
                                            ####                                     
                                            #####                                    
                                            ######                                   
                                           ########,                                 
                                     ,,################,,,,,                         
                               ,,#################################,,                 
                          ,,##########################################,,             
                       ,#########################################, ''#####,          
                    ,#############################################,,   '####,        
                  ,##################################################,,,,####,       
                ,###########''''           ''''###############################       
              ,#####''   ,,,,##########,,,,          '''####'''          '####       
            ,##' ,,,,###########################,,,                        '##       
           ' ,,###''''                  '''############,,,                           
         ,,##''                                '''############,,,,        ,,,,,,###''
      ,#''                                            '''#######################'''  
     '                                                          ''''####''''         
             ,#######,   #######,   ,#######,      ##                                
            ,#'     '#,  ##    ##  ,#'     '#,    #''#        ,####,   ,####,        
            ##       ##  ##   ,#'  ##            #'  '#       #'       #'  '#        
            ##       ##  #######   ##           ,######,      #####,   #    #        
            '#,     ,#'  ##    ##  '#,     ,#' ,#      #,     #,   #   #,  ,#        
             '#######'   ##     ##  '#######'  #'      '#     '####' # '####'        



                #########################################################
                #                        -***-                          #
                #          Department of theory and spectroscopy        #
                #                                                       #
                #                      Frank Neese                      #
                #                                                       #
                #     Directorship, Architecture, Infrastructure        #
                #                    SHARK, DRIVERS                     #
                #        Core code/Algorithms in most modules           #
                #                                                       #
                #        Max Planck Institute fuer Kohlenforschung      #
                #                Kaiser Wilhelm Platz 1                 #
                #                 D-45470 Muelheim/Ruhr                 #
                #                      Germany                          #
                #                                                       #
                #                  All rights reserved                  #
                #                        -***-                          #
                #########################################################


                         Program Version 6.0.0  -   RELEASE  -


 With contributions from (in alphabetic order):
   Daniel Aravena         : Magnetic Suceptibility
   Michael Atanasov       : Ab Initio Ligand Field Theory (pilot matlab implementation)
   Alexander A. Auer      : GIAO ZORA, VPT2 properties, NMR spectrum
   Ute Becker             : All parallelization in ORCA, NUMFREQ, NUMCALC
   Giovanni Bistoni       : ED, misc. LED, open-shell LED, HFLD
   Martin Brehm           : Molecular dynamics
   Dmytro Bykov           : pre 5.0 version of the SCF Hessian
   Marcos Casanova-Páez   : Triplet and SCS-CIS(D). UHF-(DLPNO)-IP/EA/STEOM-CCSD. UHF-CVS-IP/STEOM-CCSD
   Vijay G. Chilkuri      : MRCI spin determinant printing, contributions to CSF-ICE
   Pauline Colinet        : FMM embedding
   Dipayan Datta          : RHF DLPNO-CCSD density
   Achintya Kumar Dutta   : EOM-CC, STEOM-CC
   Nicolas Foglia         : Exact transition moments, OPA infrastructure, MCD improvements
   Dmitry Ganyushin       : Spin-Orbit,Spin-Spin,Magnetic field MRCI
   Miquel Garcia          : C-PCM and meta-GGA Hessian, CCSD/C-PCM, Gaussian charge scheme
   Tiago L. C. Gouveia    : GS-ROHF, GS-ROCIS
   Yang Guo               : DLPNO-NEVPT2, F12-NEVPT2, CIM, IAO-localization
   Andreas Hansen         : Spin unrestricted coupled pair/coupled cluster methods
   Ingolf Harden          : AUTO-CI MPn and infrastructure 
   Benjamin Helmich-Paris : MC-RPA, TRAH-(SCF,CASSCF), AVAS, COSX integrals, SCF dyn. polar.
   Lee Huntington         : MR-EOM, pCC
   Robert Izsak           : Overlap fitted RIJCOSX, COSX-SCS-MP3, EOM
   Riya Kayal             : Wick's Theorem for AUTO-CI, AUTO-CI UHF-CCSDT
   Emily Kempfer          : AUTO-CI, RHF CISDT and CCSDT
   Christian Kollmar      : KDIIS, OOCD, Brueckner-CCSD(T), CCSD density, CASPT2, CASPT2-K, improved NEVPT2
   Axel Koslowski         : Symmetry handling
   Simone Kossmann        : Meta GGA functionals, TD-DFT gradient, OOMP2, (MP2 Hessian; deprecated post 5.0)
   Lucas Lang             : DCDCAS
   Marvin Lechner         : AUTO-CI (C++ implementation), FIC-MRCC
   Spencer Leger          : CASSCF response
   Dagmar Lenk            : GEPOL surface, SMD, ORCA-2-JSON
   Dimitrios Liakos       : Extrapolation schemes; Compound Job, initial MDCI parallelization
   Dimitrios Manganas     : Further ROCIS development; embedding schemes. LFT, Crystal Embedding
   Dimitrios Pantazis     : SARC Basis sets
   Anastasios Papadopoulos: AUTO-CI, single reference methods and gradients
   Taras Petrenko         : pre 6.0 DFT Hessian and TD-DFT gradient, (ASA, deprecated), ECA, 1-Electron XAS/XES, NRVS
   Peter Pinski           : DLPNO-MP2, DLPNO-MP2 Gradient
   Christoph Reimann      : Effective Core Potentials
   Marius Retegan         : Local ZFS, SOC
   Christoph Riplinger    : Optimizer, TS searches, QM/MM, DLPNO-CCSD(T), (RO)-DLPNO pert. Triples
   Michael Roemelt        : Original ROCIS implementation
   Masaaki Saitow         : Open-shell DLPNO-CCSD energy and density
   Barbara Sandhoefer     : DKH picture change effects
   Kantharuban Sivalingam : CASSCF convergence/infrastructure, NEVPT2 and variants, FIC-MRCI
   Bernardo de Souza      : ESD, SOC TD-DFT
   Georgi Stoychev        : AutoAux, RI-MP2 NMR, DLPNO-MP2 response, X2C
   Van Anh Tran           : RI-MP2 g-tensors
   Willem Van den Heuvel  : Paramagnetic NMR
   Zikuan Wang            : NOTCH, Electric field optimization 
   Frank Wennmohs         : Technical directorship and infrastructure
   Hang Xu                : AUTO-CI-Response properties 


 We gratefully acknowledge several colleagues who have allowed us to
 interface, adapt or use parts of their codes:
   Stefan Grimme, W. Hujo, H. Kruse, P. Pracht,  : VdW corrections, initial TS optimization,
                  C. Bannwarth, S. Ehlert,         DFT functionals, gCP, sTDA/sTD-DF
                  L. Wittmann, M. Mueller
   Ed Valeev, F. Pavosevic, A. Kumar             : LibInt (2-el integral package), F12 methods
   Garnet Chan, S. Sharma, J. Yang, R. Olivares  : DMRG
   Ulf Ekstrom                                   : XCFun DFT Library
   Mihaly Kallay                                 : mrcc  (arbitrary order and MRCC methods)
   Frank Weinhold                                : gennbo (NPA and NBO analysis)
   Simon Mueller                                 : openCOSMO-RS
   Christopher J. Cramer and Donald G. Truhlar   : smd solvation model
   Lars Goerigk                                  : TD-DFT with DH, B97 family of functionals
   V. Asgeirsson, H. Jonsson                     : NEB implementation
   FAccTs GmbH                                   : IRC, NEB, NEB-TS, DLPNO-Multilevel, CI-OPT
                                                   MM, QMMM, 2- and 3-layer-ONIOM, Crystal-QMMM,
                                                   LR-CPCM, SF, NACMEs, symmetry and pop. for TD-DFT,
                                                   nearIR, NL-DFT gradient (VV10), updates on ESD,
                                                   ML-optimized integration grids, MBIS, APM,
                                                   GOAT, DOCKER, SOLVATOR, interface openCOSMO-RS
   S Lehtola, MJT Oliveira, MAL Marques          : LibXC Library
   Liviu Ungur et al                             : ANISO software


 Your calculation uses the libint2 library for the computation of 2-el integrals
 For citations please refer to: http://libint.valeyev.net

 Your ORCA version has been built with support for libXC version: 6.2.2
 For citations please refer to: https://libxc.gitlab.io

 This ORCA versions uses:
   CBLAS   interface :  Fast vector & matrix operations
   LAPACKE interface :  Fast linear algebra routines
   SCALAPACK package :  Parallel linear algebra routines
   Shared memory     :  Shared parallel matrices
   BLAS/LAPACK       :  OpenBLAS 0.3.27  USE64BITINT DYNAMIC_ARCH NO_AFFINITY SkylakeX SINGLE_THREADED
        Core in use  :  SkylakeX
   Copyright (c) 2011-2014, The OpenBLAS Project


Your calculation utilizes the geometrical counterpoise correction gCP
Please cite in your paper:
H.Kruse, S. Grimme J.Chem.Phys., 136, (2012), 154101 
   

Your calculation utilizes the atom-pairwise dispersion correction
based on EEQ partial charges (D4)


Your calculation utilizes the SMD solvation module
Please cite in your paper:
A.V. Marenich, C.J. Cramer, D.G. Truhlar J. Phys. Chem. B, 113, (2009), 6378 

================================================================================

----- Orbital basis set information -----
Your calculation utilizes the basis: def2-mTZVPP
   Stefan Grimme, Andreas Hansen, Sebastian Ehlert, and Jan-Michael Mewes 
   J. Chem. Phys. 154, 064103 (2021). DOI: 10.1063/5.0040021

----- AuxJ basis set information -----
Your calculation utilizes the auxiliary basis: def2/J
   F. Weigend, Phys. Chem. Chem. Phys. 8, 1057 (2006).

================================================================================
                                        WARNINGS
                       Please study these warnings very carefully!
================================================================================

Using LibXC functional ID 497 : Re-regularized SCAN exchange by Furness et al
[ 1]  J. W. Furness, A. D. Kaplan, J. Ning, J. P. Perdew, and J. Sun.,  J. Phys. Chem. Lett. 11, 8208-8215 (2020)
[ 2]  J. W. Furness, A. D. Kaplan, J. Ning, J. P. Perdew, and J. Sun.,  J. Phys. Chem. Lett. 11, 9248-9248 (2020)
Using LibXC functional ID 498 : Re-regularized SCAN correlation by Furness et al
[ 1]  J. W. Furness, A. D. Kaplan, J. Ning, J. P. Perdew, and J. Sun.,  J. Phys. Chem. Lett. 11, 8208-8215 (2020)
[ 2]  J. W. Furness, A. D. Kaplan, J. Ning, J. P. Perdew, and J. Sun.,  J. Phys. Chem. Lett. 11, 9248-9248 (2020)
Using LibXC functional ID 497 : Re-regularized SCAN exchange by Furness et al
[ 1]  J. W. Furness, A. D. Kaplan, J. Ning, J. P. Perdew, and J. Sun.,  J. Phys. Chem. Lett. 11, 8208-8215 (2020)
[ 2]  J. W. Furness, A. D. Kaplan, J. Ning, J. P. Perdew, and J. Sun.,  J. Phys. Chem. Lett. 11, 9248-9248 (2020)
Using LibXC functional ID 498 : Re-regularized SCAN correlation by Furness et al
[ 1]  J. W. Furness, A. D. Kaplan, J. Ning, J. P. Perdew, and J. Sun.,  J. Phys. Chem. Lett. 11, 8208-8215 (2020)
[ 2]  J. W. Furness, A. D. Kaplan, J. Ning, J. P. Perdew, and J. Sun.,  J. Phys. Chem. Lett. 11, 9248-9248 (2020)

================================================================================
                                       INPUT FILE
================================================================================
NAME = sp_solv.inp
|  1> ! r2scan-3c def2/J RI DEFGRID2 scfconv6 printgap
|  2> %output
|  3>     printlevel normal
|  4> end
|  5> %cpcm
|  6>     smd true
|  7>     smdsolvent "water"
|  8> end
|  9> * xyz 0 1
| 10> C -2.4840006468 -0.7588633122 1.0354106751
| 11> C -2.0660855439 -0.7769607073 -0.429888145
| 12> C -1.4067414321 0.5431036323 -0.8481278473
| 13> C -0.1135199012 0.7672850475 -0.1078555907
| 14> O 0.1112502916 1.7037690994 0.6328835779
| 15> O 0.7733005763 -0.1839803687 -0.3602998489
| 16> C 2.053971931 -0.0961404345 0.2847774125
| 17> C 2.9576206183 -1.1597015732 -0.3082387756
| 18> H -1.6224406209 -0.5901800941 1.6791411036
| 19> H -3.2004061298 0.0386297524 1.218140472
| 20> H -2.9411320185 -1.7050763613 1.3121598454
| 21> H -2.943864662 -0.9395450099 -1.0560498911
| 22> H -1.3640985908 -1.5931153724 -0.60506354
| 23> H -2.0661230347 1.3856667653 -0.6401381619
| 24> H -1.1794710844 0.5124596793 -1.9142917129
| 25> H 2.451874745 0.912203975 0.1291379614
| 26> H 1.9091721766 -0.2419030199 1.3604664716
| 27> H 3.9310818611 -1.1096645691 0.1681487205
| 28> H 2.5291857911 -2.1442660129 -0.1466336164
| 29> H 3.0718965815 -0.9981590314 -1.3760323522
| 30> *
| 31> 
| 32>                          ****END OF INPUT****
================================================================================

                       ****************************
                       * Single Point Calculation *
                       ****************************

---------------------------------
CARTESIAN COORDINATES (ANGSTROEM)
---------------------------------
  C     -2.484001   -0.758863    1.035411
  C     -2.066086   -0.776961   -0.429888
  C     -1.406741    0.543104   -0.848128
  C     -0.113520    0.767285   -0.107856
  O      0.111250    1.703769    0.632884
  O      0.773301   -0.183980   -0.360300
  C      2.053972   -0.096140    0.284777
  C      2.957621   -1.159702   -0.308239
  H     -1.622441   -0.590180    1.679141
  H     -3.200406    0.038630    1.218140
  H     -2.941132   -1.705076    1.312160
  H     -2.943865   -0.939545   -1.056050
  H     -1.364099   -1.593115   -0.605064
  H     -2.066123    1.385667   -0.640138
  H     -1.179471    0.512460   -1.914292
  H      2.451875    0.912204    0.129138
  H      1.909172   -0.241903    1.360466
  H      3.931082   -1.109665    0.168149
  H      2.529186   -2.144266   -0.146634
  H      3.071897   -0.998159   -1.376032

----------------------------
CARTESIAN COORDINATES (A.U.)
----------------------------
  NO LB      ZA    FRAG     MASS         X           Y           Z
   0 C     6.0000    0    12.011   -4.694081   -1.434044    1.956643
   1 C     6.0000    0    12.011   -3.904336   -1.468243   -0.812371
   2 C     6.0000    0    12.011   -2.658356    1.026317   -1.602729
   3 C     6.0000    0    12.011   -0.214522    1.449959   -0.203818
   4 O     8.0000    0    15.999    0.210233    3.219657    1.195977
   5 O     8.0000    0    15.999    1.461326   -0.347673   -0.680868
   6 C     6.0000    0    12.011    3.881444   -0.181679    0.538151
   7 C     6.0000    0    12.011    5.589093   -2.191518   -0.582487
   8 H     1.0000    0     1.008   -3.065968   -1.115279    3.173117
   9 H     1.0000    0     1.008   -6.047891    0.073000    2.301952
  10 H     1.0000    0     1.008   -5.557934   -3.222127    2.479623
  11 H     1.0000    0     1.008   -5.563098   -1.775483   -1.995645
  12 H     1.0000    0     1.008   -2.577773   -3.010552   -1.143404
  13 H     1.0000    0     1.008   -3.904407    2.618531   -1.209686
  14 H     1.0000    0     1.008   -2.228877    0.968408   -3.617487
  15 H     1.0000    0     1.008    4.633372    1.723816    0.244035
  16 H     1.0000    0     1.008    3.607813   -0.457130    2.570909
  17 H     1.0000    0     1.008    7.428668   -2.096962    0.317755
  18 H     1.0000    0     1.008    4.779468   -4.052076   -0.277097
  19 H     1.0000    0     1.008    5.805043   -1.886247   -2.600324

--------------------------------
INTERNAL COORDINATES (ANGSTROEM)
--------------------------------
 C      0   0   0     0.000000000000     0.00000000     0.00000000
 C      1   0   0     1.523837649203     0.00000000     0.00000000
 C      2   1   0     1.533697808249   111.70972982     0.00000000
 C      3   2   1     1.506878312538   111.28648823    64.47136649
 O      4   3   2     1.214997339476   124.95548230   241.13308814
 O      4   3   2     1.324796042744   111.96571471    61.36812519
 C      6   4   3     1.436648755251   117.85658694   180.14889038
 C      7   6   4     1.516381035611   108.22460880   188.32327599
 H      1   2   3     1.088636105810   110.69520552   300.64979261
 H      1   2   3     1.087484336822   110.54566611    60.22868163
 H      1   2   3     1.086682257397   110.48228360   180.44266166
 H      2   1   3     1.090416602911   109.46195481   239.76849621
 H      2   1   3     1.090678934747   109.86732621   120.94294245
 H      3   2   1     1.089934144878   110.68569646   304.25659231
 H      3   2   1     1.090548600985   109.39077637   183.47330606
 H      7   6   4     1.095129552289   108.44377067   309.96093419
 H      7   6   4     1.095134992612   108.36314354    67.04085610
 H      8   7   6     1.084931121986   109.30708646   180.06371371
 H      8   7   6     1.085835974980   110.03722844   300.09824427
 H      8   7   6     1.085973347189   110.05378492    60.02119164

---------------------------
INTERNAL COORDINATES (A.U.)
---------------------------
 C      0   0   0     0.000000000000     0.00000000     0.00000000
 C      1   0   0     2.879635829552     0.00000000     0.00000000
 C      2   1   0     2.898268829787   111.70972982     0.00000000
 C      3   2   1     2.847587327841   111.28648823    64.47136649
 O      4   3   2     2.296012225052   124.95548230   241.13308814
 O      4   3   2     2.503501704088   111.96571471    61.36812519
 C      6   4   3     2.714872698064   117.85658694   180.14889038
 C      7   6   4     2.865544871977   108.22460880   188.32327599
 H      1   2   3     2.057224099480   110.69520552   300.64979261
 H      1   2   3     2.055047571522   110.54566611    60.22868163
 H      1   2   3     2.053531861071   110.48228360   180.44266166
 H      2   1   3     2.060588751382   109.46195481   239.76849621
 H      2   1   3     2.061084486709   109.86732621   120.94294245
 H      3   2   1     2.059677037829   110.68569646   304.25659231
 H      3   2   1     2.060838191593   109.39077637   183.47330606
 H      7   6   4     2.069494934991   108.44377067   309.96093419
 H      7   6   4     2.069505215711   108.36314354    67.04085610
 H      8   7   6     2.050222694721   109.30708646   180.06371371
 H      8   7   6     2.051932619071   110.03722844   300.09824427
 H      8   7   6     2.052192214925   110.05378492    60.02119164

---------------------
BASIS SET INFORMATION
---------------------
There are 3 groups of distinct atoms

 Group   1 Type C   : 11s6p1d contracted to 5s3p1d pattern {62111/411/1}
 Group   2 Type O   : 11s6p2d contracted to 5s3p2d pattern {62111/411/11}
 Group   3 Type H   : 4s1p contracted to 2s1p pattern {31/1}

Atom   0C    basis set group =>   1
Atom   1C    basis set group =>   1
Atom   2C    basis set group =>   1
Atom   3C    basis set group =>   1
Atom   4O    basis set group =>   2
Atom   5O    basis set group =>   2
Atom   6C    basis set group =>   1
Atom   7C    basis set group =>   1
Atom   8H    basis set group =>   3
Atom   9H    basis set group =>   3
Atom  10H    basis set group =>   3
Atom  11H    basis set group =>   3
Atom  12H    basis set group =>   3
Atom  13H    basis set group =>   3
Atom  14H    basis set group =>   3
Atom  15H    basis set group =>   3
Atom  16H    basis set group =>   3
Atom  17H    basis set group =>   3
Atom  18H    basis set group =>   3
Atom  19H    basis set group =>   3
---------------------------------
AUXILIARY/J BASIS SET INFORMATION
---------------------------------
There are 3 groups of distinct atoms

 Group   1 Type C   : 12s5p4d2f1g contracted to 6s4p3d1f1g pattern {711111/2111/211/2/1}
 Group   2 Type O   : 12s5p4d2f1g contracted to 6s4p3d1f1g pattern {711111/2111/211/2/1}
 Group   3 Type H   : 5s2p1d contracted to 3s1p1d pattern {311/2/1}

Atom   0C    basis set group =>   1
Atom   1C    basis set group =>   1
Atom   2C    basis set group =>   1
Atom   3C    basis set group =>   1
Atom   4O    basis set group =>   2
Atom   5O    basis set group =>   2
Atom   6C    basis set group =>   1
Atom   7C    basis set group =>   1
Atom   8H    basis set group =>   3
Atom   9H    basis set group =>   3
Atom  10H    basis set group =>   3
Atom  11H    basis set group =>   3
Atom  12H    basis set group =>   3
Atom  13H    basis set group =>   3
Atom  14H    basis set group =>   3
Atom  15H    basis set group =>   3
Atom  16H    basis set group =>   3
Atom  17H    basis set group =>   3
Atom  18H    basis set group =>   3
Atom  19H    basis set group =>   3

Checking for AutoStart:
The File: sp_solv.gbw exists
Trying to determine its content:
     ... Fine, the file contains calculation information
     ... Fine, the calculation information was read
     ... Fine, the file contains a basis set
     ... Fine, the basis set was read
     ... Fine, the file contains a geometry
     ... Fine, the geometry was read
     ... Fine, the file contains a set of orbitals
     ... Fine, the orbitals can be read
     => possible old guess file was deleted
     => GBW file was renamed to GES file
     => GES file is set as startup file
     => Guess is set to MORead
     ... now leaving AutoStart

------------------------------------------------------------------------------
                             ORCA STARTUP CALCULATIONS
                           -- RI-GTO INTEGRALS CHOSEN --
------------------------------------------------------------------------------
------------------------------------------------------------------------------
                   ___                                                        
                  /   \      - P O W E R E D   B Y -                         
                 /     \                                                     
                 |  |  |   _    _      __       _____    __    __             
                 |  |  |  | |  | |    /  \     |  _  \  |  |  /  |          
                  \  \/   | |  | |   /    \    | | | |  |  | /  /          
                 / \  \   | |__| |  /  /\  \   | |_| |  |  |/  /          
                |  |  |   |  __  | /  /__\  \  |    /   |      \           
                |  |  |   | |  | | |   __   |  |    \   |  |\   \          
                \     /   | |  | | |  |  |  |  | |\  \  |  | \   \       
                 \___/    |_|  |_| |__|  |__|  |_| \__\ |__|  \__/        
                                                                              
                      - O R C A' S   B I G   F R I E N D -                    
                                      &                                       
                       - I N T E G R A L  F E E D E R -                       
                                                                              
 v1 FN, 2020, v2 2021, v3 2022-2024                                           
------------------------------------------------------------------------------


----------------------
SHARK INTEGRAL PACKAGE
----------------------

Number of atoms                             ...     20
Number of basis functions                   ...    222
Number of shells                            ...    110
Maximum angular momentum                    ...      2
Integral batch strategy                     ... SHARK/LIBINT Hybrid
RI-J (if used) integral strategy            ... SPLIT-RIJ (Revised 2003 algorithm where possible)
Printlevel                                  ...      1
Contraction scheme used                     ... SEGMENTED contraction
Prescreening option                         ... SCHWARTZ
   Thresh                                   ... 1.000e-10
   Tcut                                     ... 1.000e-11
   Tpresel                                  ... 1.000e-11 
Coulomb Range Separation                    ... NOT USED
Exchange Range Separation                   ... NOT USED
Multipole approximations                    ... NOT USED
Finite Nucleus Model                        ... NOT USED
CABS basis                                  ... NOT available
Auxiliary Coulomb fitting basis             ... AVAILABLE
   # of basis functions in Aux-J            ...    524
   # of shells in Aux-J                     ...    180
   Maximum angular momentum in Aux-J        ...      4
Auxiliary J/K fitting basis                 ... NOT available
Auxiliary Correlation fitting basis         ... NOT available
Auxiliary 'external' fitting basis          ... NOT available

Checking pre-screening integrals            ... done (  0.0 sec) Dimension = 110
Check shell pair data                       ... done (  0.0 sec)
Shell pair information
Shell pair cut-off parameter TPreSel        ...   1.0e-11
Total number of shell pairs                 ...      6105
Shell pairs after pre-screening             ...      5330
Total number of primitive shell pairs       ...     21533
Primitive shell pairs kept                  ...     13289
          la=0 lb=0:   1794 shell pairs
          la=1 lb=0:   2013 shell pairs
          la=1 lb=1:    587 shell pairs
          la=2 lb=0:    564 shell pairs
          la=2 lb=1:    320 shell pairs
          la=2 lb=2:     52 shell pairs

Calculating one electron integrals          ... done (  0.0 sec)
Calculating RI/J V-Matrix + Cholesky decomp.... done (  0.1 sec)
Calculating Nuclear repulsion               ... done (  0.0 sec) ENN=    395.073008540961 Eh

Diagonalization of the overlap matrix:
Smallest eigenvalue                        ... 1.646e-04
Time for diagonalization                   ...    0.005 sec
Threshold for overlap eigenvalues          ... 1.000e-07
Number of eigenvalues below threshold      ... 0
Time for construction of square roots      ...    0.019 sec
Total time needed                          ...    0.037 sec

-------------------
DFT GRID GENERATION
-------------------

General Integration Accuracy     IntAcc      ... 4.388
Radial Grid Type                 RadialGrid  ... OptM3 with GC (2021)
Angular Grid (max. ang.)         AngularGrid ... 4 (Lebedev-302)
Angular grid pruning method      GridPruning ... 4 (adaptive)
Weight generation scheme         WeightScheme... mBecke (2022)
Basis function cutoff            BFCut       ... 1.0000e-10
Integration weight cutoff        WCut        ... 1.0000e-14
Partially contracted basis set               ... off
Rotationally invariant grid construction     ... off
Angular grids for H and He will be reduced by one unit
Diffuse basis detected: some atoms will have their outermost
                        angular grid increased by 1.

Total number of grid points                  ...    87388
Total number of batches                      ...     1373
Average number of points per batch           ...       63
Average number of grid points per atom       ...     4369
Initializing property integral containers    ... done (  0.1 sec)

SHARK setup successfully completed in   1.6 seconds

Maximum memory used throughout the entire STARTUP-calculation: 39.4 MB
-------------------------------------------------------------------------------
                                 ORCA GUESS
                   Start orbitals & Density for SCF / CASSCF
-------------------------------------------------------------------------------

------------
SCF SETTINGS
------------
Hamiltonian:
 Density Functional     Method          .... DFT(GTOs)
  Functional kind                       .... Exchange
  Functional name                       .... Re-regularized SCAN exchange by Furness et al
  Functional family                     .... MGGA
  Functional refs                              
    [ 0] J. W. Furness, A. D. Kaplan, J. Ning, J. P. Perdew, and J. Sun.,  J. Phys. Chem. Lett. 11, 8208-8215 (2020), doi: 10.1021/acs.jpclett.0c02405
    [ 1] J. W. Furness, A. D. Kaplan, J. Ning, J. P. Perdew, and J. Sun.,  J. Phys. Chem. Lett. 11, 9248-9248 (2020), doi: 10.1021/acs.jpclett.0c03077
  Functional external parameters        .... 6
    Parameter  0 _c1        =  6.670000e-01 : c1 parameter        
    Parameter  1 _c2        =  8.000000e-01 : c2 parameter        
    Parameter  2 _d         =  1.240000e+00 : d parameter         
    Parameter  3 _k1        =  6.500000e-02 : k1 parameter        
    Parameter  4 _eta       =  1.000000e-03 : eta parameter       
    Parameter  5 _dp2       =  3.610000e-01 : dp2 parameter       
  Functional kind                       .... Correlation
  Functional name                       .... Re-regularized SCAN correlation by Furness et al
  Functional family                     .... MGGA
  Functional refs                              
    [ 0] J. W. Furness, A. D. Kaplan, J. Ning, J. P. Perdew, and J. Sun.,  J. Phys. Chem. Lett. 11, 8208-8215 (2020), doi: 10.1021/acs.jpclett.0c02405
    [ 1] J. W. Furness, A. D. Kaplan, J. Ning, J. P. Perdew, and J. Sun.,  J. Phys. Chem. Lett. 11, 9248-9248 (2020), doi: 10.1021/acs.jpclett.0c03077
  Functional external parameters        .... 1
    Parameter  0 _eta       =  1.000000e-03 : Regularization parameter
 Gradients option       PostSCFGGA      .... off
 RI-approximation to the Coulomb term is turned on
   Number of AuxJ basis functions       .... 524


General Settings:
 Integral files         IntName         .... sp_solv
 Hartree-Fock type      HFTyp           .... RHF
 Total Charge           Charge          ....    0
 Multiplicity           Mult            ....    1
 Number of Electrons    NEL             ....   64
 Basis Dimension        Dim             ....  222
 Nuclear Repulsion      ENuc            ....    395.0730085410 Eh

Convergence Acceleration:
 AO-DIIS                CNVDIIS         .... on
   Start iteration      DIISMaxIt       ....    12
   Startup error        DIISStart       ....  0.200000
   # of expansion vecs  DIISMaxEq       ....     5
   Bias factor          DIISBfac        ....   1.050
   Max. coefficient     DIISMaxC        ....  10.000
 MO-DIIS                CNVKDIIS        .... off
 Trust-Rad. Augm. Hess. CNVTRAH         .... auto
   Auto Start mean grad. ratio tolernc. ....  1.125000
   Auto Start start iteration           ....     1
   Auto Start num. interpolation iter.  ....    10
   Max. Number of Micro iterations      ....    24
   Max. Number of Macro iterations      .... Maxiter - #DIIS iter
   Number of Davidson start vectors     ....     2
   Converg. threshold    (grad. norm)   ....   3.330e-04
   Grad. Scal. Fac. for Micro threshold ....   0.100
   Minimum threshold for Micro iter.    ....   1.000e-02
   NR start threshold (gradient norm)   ....   1.000e-04
   Initial trust radius                 ....   0.400
   Minimum AH scaling param. (alpha)    ....   1.000
   Maximum AH scaling param. (alpha)    .... 1000.000
   Quad. conv. algorithm                .... NR
   White noise on init. David. guess    .... on
   Maximum white noise                  ....   0.010
   Pseudo random numbers                .... off
   Inactive MOs                         .... canonical
   Orbital update algorithm             .... Taylor
   Preconditioner                       .... Diag
   Full preconditioner red. dimension   ....   250
   COSX micro iterations for RIJONX calc.... off
 SOSCF                  CNVSOSCF        .... on
   Start iteration      SOSCFMaxIt      ....   150
   Startup grad/error   SOSCFStart      ....  0.003300
   Hessian update       SOSCFHessUp     .... L-BFGS
 Level Shifting         CNVShift        .... on
   Level shift para.    LevelShift      ....    0.2500
   Turn off err/grad.   ShiftErr        ....    0.0010
 Zerner damping         CNVZerner       .... off
 Static damping         CNVDamp         .... on
   Fraction old density DampFac         ....    0.7000
   Max. Damping (<1)    DampMax         ....    0.9800
   Min. Damping (>=0)   DampMin         ....    0.0000
   Turn off err/grad.   DampErr         ....    0.1000

SCF Procedure:
 Maximum # iterations   MaxIter         ....   125
 SCF integral mode      SCFMode         .... Direct
   Integral package                     .... SHARK and LIBINT hybrid scheme
 Reset frequency        DirectResetFreq ....    20
 Integral Threshold     Thresh          ....  1.000e-10 Eh
 Primitive CutOff       TCut            ....  1.000e-11 Eh

Convergence Tolerance:
 Convergence Check Mode ConvCheckMode   .... Total+1el-Energy
 Convergence forced     ConvForced      .... 0
 Energy Change          TolE            ....  1.000e-06 Eh
 1-El. energy change                    ....  1.000e-03 Eh
 Orbital Gradient       TolG            ....  3.330e-04
 Orbital Rotation angle TolX            ....  3.330e-04
 DIIS Error             TolErr          ....  1.000e-06

---------------------
INITIAL GUESS: MOREAD
---------------------
Guess MOs are being read from file: sp_solv.ges
Input Geometry matches current geometry (good)
Atom 0: N(Shells)= 9 and 6 - projection required
Input basis set needs projection
NBasis(read)= 136
NBasis(calc)= 222
Basis set overlap was calculated
Using GuessMode=FMatrix for the initial guess
C*T matrix was formed
Effective Fockian was calculated
Effective Fockian was diagonalized
Initial density was built
                      ------------------
                      INITIAL GUESS DONE (   0.1 sec)
                      ------------------
             **** ENERGY FILE WAS UPDATED (sp_solv.en.tmp) ****
Finished Guess after   0.3 sec
Maximum memory used throughout the entire GUESS-calculation: 15.1 MB

-------------------------------------------------------------------------------------------
                                      ORCA LEAN-SCF
                              memory conserving SCF solver
-------------------------------------------------------------------------------------------

--------------------
CPCM SOLVATION MODEL
--------------------
CPCM parameters:
  Epsilon                                         ...      78.3550
  Refrac                                          ...       1.3328
  Rsolv                                           ...       1.3000
  Surface type                                    ... GAUSSIAN VDW
  Discretization scheme                           ... Constant charge density
    Threshold for H atoms                         ...       5.0000 (charges/Ang^2)
    Threshold for non-H atoms                     ...       5.0000 (charges/Ang^2)
  Epsilon function type                           ...         CPCM
Solvent:                                          ... WATER
SMD-CDS solvent descriptors:
  Soln                                            ...       1.3328
  Soln25                                          ...       1.3323
  Sola                                            ...       0.0000
  Solb                                            ...       0.0000
  Solg                                            ...       0.0000
  Solc                                            ...       0.0000
  Solh                                            ...       0.0000
Radii:
  Scheme                                          ... Element-dependent radii
  Radius for C  used is    3.4960 Bohr (=   1.8500 Ang.)
  Radius for O  used is    2.8724 Bohr (=   1.5200 Ang.)
  Radius for H  used is    2.2677 Bohr (=   1.2000 Ang.)
Calculating surface                               ...        done! (  0.0s)
Cavity surface points                             ...         1496
Cavity Volume                                     ...     877.7370
Cavity Surface-area                               ...     585.6558
Calculating surface distance matrix               ...        done! (  0.0s)
Performing Cholesky decomposition & store         ...        done! (  0.1s)
Overall time for CPCM initialization              ...                 0.1s

----------------------------------------D-I-I-S--------------------------------------------
Iteration    Energy (Eh)           Delta-E    RMSDP     MaxDP     DIISErr   Damp  Time(sec)
-------------------------------------------------------------------------------------------
               ***  Starting incremental Fock matrix formation  ***
    1    -386.0565096442078357     0.00e+00  3.84e-03  1.51e-01  6.27e-01  0.700   3.8
    2    -386.1156717280881594    -5.92e-02  3.13e-03  9.04e-02  4.41e-01  0.700   3.4
    3    -386.1575438644067617    -4.19e-02  2.30e-03  6.39e-02  3.09e-01  0.700   3.5
    4    -386.1869795071108911    -2.94e-02  1.65e-03  4.57e-02  2.17e-01  0.700   3.3
                               ***Turning on AO-DIIS***
    5    -386.2076506880202942    -2.07e-02  1.20e-03  3.31e-02  1.52e-01  0.700   3.4
    6    -386.2221445289696931    -1.45e-02  8.54e-04  2.35e-02  1.06e-01  0.700   3.4
    7    -386.2323199567321126    -1.02e-02  6.03e-04  1.66e-02  7.41e-02  0.700   3.2
    8    -386.2394518497526406    -7.13e-03  1.42e-03  3.88e-02  5.20e-02  0.000   3.7
                              *** Initializing SOSCF ***
---------------------------------------S-O-S-C-F--------------------------------------
Iteration    Energy (Eh)           Delta-E    RMSDP     MaxDP     MaxGrad    Time(sec)
--------------------------------------------------------------------------------------
    9    -386.2561277190114879    -1.67e-02  1.31e-05  5.19e-04  1.90e-04     3.3
               *** Restarting incremental Fock matrix formation ***
   10    -386.2561278783776970    -1.59e-07  6.77e-06  1.87e-04  4.77e-05     3.6
                  *** Gradient check signals convergence ***

               *****************************************************
               *                     SUCCESS                       *
               *           SCF CONVERGED AFTER  10 CYCLES          *
               *****************************************************


SMD CDS free energy correction energy :                 4.91617     Kcal/mol
Total Energy after SMD CDS correction =              -386.248293458 Eh
             **** ENERGY FILE WAS UPDATED (sp_solv.en.tmp) ****

----------------
TOTAL SCF ENERGY
----------------

Total Energy       :       -386.24829345820871 Eh          -10510.35040 eV

Components:
Nuclear Repulsion  :        395.07300854096127 Eh           10750.48311 eV
Electronic Energy  :       -781.31260785871200 Eh          -21260.59693 eV
One Electron Energy:      -1307.43084590205262 Eh          -35577.00202 eV
Two Electron Energy:        526.11823804334063 Eh           14316.40509 eV
CPCM Dielectric    :         -0.01652856062692 Eh              -0.44977 eV
SMD CDS (Gcds)     :          0.00783442016899 Eh               0.21319 eV

Virial components:
Potential Energy   :       -770.88904291970766 Eh          -20976.95731 eV
Kinetic Energy     :        384.64074946149901 Eh           10466.60690 eV
Virial Ratio       :          2.00417933876990

DFT components:
N(Alpha)           :       32.000041133866 electrons
N(Beta)            :       32.000041133866 electrons
N(Total)           :       64.000082267732 electrons
E(X)               :      -52.085264537254 Eh       
E(C)               :       -2.037458727607 Eh       
E(XC)              :      -54.122723264861 Eh       

CPCM Solvation Model Properties:
Surface-charge          :         -0.04749535318727
Corrected charge        :          0.00000000000000
Outlying charge corr.   :          0.00017032775342 Eh               0.00463 eV
Free-energy (cav+disp)  :          0.00783442016899 Eh               0.21319 eV

---------------
SCF CONVERGENCE
---------------

  Last Energy change         ...    1.5937e-07  Tolerance :   1.0000e-06
  Last MAX-Density change    ...    1.8738e-04  Tolerance :   1.0000e-05
  Last RMS-Density change    ...    6.7722e-06  Tolerance :   1.0000e-06
  Last DIIS Error            ...    1.8953e-04  Tolerance :   1.0000e-06
  Last Orbital Gradient      ...    4.7750e-05  Tolerance :   3.3300e-04
  Last Orbital Rotation      ...    1.2183e-04  Tolerance :   3.3300e-04


----------------
ORBITAL ENERGIES
----------------

  NO   OCC          E(Eh)            E(eV) 
   0   2.0000     -19.002254      -517.0776 
   1   2.0000     -18.943351      -515.4748 
   2   2.0000     -10.161704      -276.5140 
   3   2.0000     -10.084169      -274.4042 
   4   2.0000     -10.035508      -273.0801 
   5   2.0000     -10.028571      -272.8913 
   6   2.0000     -10.018806      -272.6256 
   7   2.0000     -10.011740      -272.4333 
   8   2.0000      -1.079715       -29.3805 
   9   2.0000      -0.987726       -26.8774 
  10   2.0000      -0.771448       -20.9922 
  11   2.0000      -0.733616       -19.9627 
  12   2.0000      -0.671959       -18.2849 
  13   2.0000      -0.609056       -16.5733 
  14   2.0000      -0.563777       -15.3412 
  15   2.0000      -0.532292       -14.4844 
  16   2.0000      -0.470338       -12.7986 
  17   2.0000      -0.454182       -12.3589 
  18   2.0000      -0.450344       -12.2545 
  19   2.0000      -0.420668       -11.4470 
  20   2.0000      -0.405590       -11.0367 
  21   2.0000      -0.375785       -10.2256 
  22   2.0000      -0.372994       -10.1497 
  23   2.0000      -0.363568        -9.8932 
  24   2.0000      -0.348978        -9.4962 
  25   2.0000      -0.329394        -8.9633 
  26   2.0000      -0.321665        -8.7530 
  27   2.0000      -0.312322        -8.4987 
  28   2.0000      -0.306537        -8.3413 
  29   2.0000      -0.302115        -8.2210 
  30   2.0000      -0.276433        -7.5221 
  31   2.0000      -0.247338        -6.7304 
  32   0.0000      -0.023593        -0.6420 
  33   0.0000       0.075265         2.0481 
  34   0.0000       0.103799         2.8245 
  35   0.0000       0.123490         3.3603 
  36   0.0000       0.125750         3.4218 
  37   0.0000       0.129489         3.5236 
  38   0.0000       0.142764         3.8848 
  39   0.0000       0.149846         4.0775 
  40   0.0000       0.155761         4.2385 
  41   0.0000       0.166410         4.5283 
  42   0.0000       0.169719         4.6183 
*Only the first 10 virtual orbitals were printed.

                    ********************************
                    * MULLIKEN POPULATION ANALYSIS *
                    ********************************

-----------------------
MULLIKEN ATOMIC CHARGES
-----------------------
   0 C :   -0.526910
   1 C :   -0.221667
   2 C :   -0.337019
   3 C :    0.390731
   4 O :   -0.507187
   5 O :   -0.173516
   6 C :   -0.149213
   7 C :   -0.491647
   8 H :    0.161456
   9 H :    0.163053
  10 H :    0.161642
  11 H :    0.163064
  12 H :    0.155950
  13 H :    0.179309
  14 H :    0.188601
  15 H :    0.171210
  16 H :    0.172902
  17 H :    0.168897
  18 H :    0.164688
  19 H :    0.165654
Sum of atomic charges:    0.0000000

--------------------------------
MULLIKEN REDUCED ORBITAL CHARGES
--------------------------------
  0 C s       :     3.345417  s :     3.345417
      pz      :     0.954429  p :     3.154487
      px      :     1.081993
      py      :     1.118066
      dz2     :     0.007106  d :     0.027005
      dxz     :     0.007506
      dyz     :     0.003788
      dx2y2   :     0.002586
      dxy     :     0.006020

  1 C s       :     3.194417  s :     3.194417
      pz      :     0.958817  p :     2.990355
      px      :     1.079517
      py      :     0.952021
      dz2     :     0.009030  d :     0.036895
      dxz     :     0.008676
      dyz     :     0.005796
      dx2y2   :     0.004854
      dxy     :     0.008539

  2 C s       :     3.271743  s :     3.271743
      pz      :     1.066359  p :     3.030755
      px      :     0.946828
      py      :     1.017568
      dz2     :     0.007530  d :     0.034521
      dxz     :     0.007271
      dyz     :     0.003695
      dx2y2   :     0.007852
      dxy     :     0.008174

  3 C s       :     3.166447  s :     3.166447
      pz      :     0.736588  p :     2.317957
      px      :     0.813292
      py      :     0.768077
      dz2     :     0.020714  d :     0.124865
      dxz     :     0.022258
      dyz     :     0.019052
      dx2y2   :     0.028367
      dxy     :     0.034473

  4 O s       :     3.831225  s :     3.831225
      pz      :     1.442405  p :     4.653322
      px      :     1.777851
      py      :     1.433066
      dz2     :     0.005286  d :     0.022639
      dxz     :     0.001800
      dyz     :     0.007888
      dx2y2   :     0.005429
      dxy     :     0.002237

  5 O s       :     3.699020  s :     3.699020
      pz      :     1.677768  p :     4.434647
      px      :     1.194554
      py      :     1.562325
      dz2     :     0.009173  d :     0.039849
      dxz     :     0.009698
      dyz     :     0.006451
      dx2y2   :     0.003881
      dxy     :     0.010646

  6 C s       :     3.285449  s :     3.285449
      pz      :     1.011558  p :     2.810209
      px      :     0.740703
      py      :     1.057948
      dz2     :     0.013195  d :     0.053555
      dxz     :     0.011872
      dyz     :     0.003847
      dx2y2   :     0.013662
      dxy     :     0.010978

  7 C s       :     3.338703  s :     3.338703
      pz      :     1.072470  p :     3.127305
      px      :     1.043864
      py      :     1.010972
      dz2     :     0.007314  d :     0.025640
      dxz     :     0.004302
      dyz     :     0.002617
      dx2y2   :     0.005778
      dxy     :     0.005629

  8 H s       :     0.820279  s :     0.820279
      pz      :     0.006233  p :     0.018264
      px      :     0.008135
      py      :     0.003896

  9 H s       :     0.818718  s :     0.818718
      pz      :     0.003774  p :     0.018229
      px      :     0.006826
      py      :     0.007629

 10 H s       :     0.820023  s :     0.820023
      pz      :     0.004110  p :     0.018335
      px      :     0.005008
      py      :     0.009217

 11 H s       :     0.818964  s :     0.818964
      pz      :     0.005942  p :     0.017972
      px      :     0.008410
      py      :     0.003620

 12 H s       :     0.826097  s :     0.826097
      pz      :     0.003597  p :     0.017953
      px      :     0.006650
      py      :     0.007706

 13 H s       :     0.802956  s :     0.802956
      pz      :     0.003421  p :     0.017735
      px      :     0.006158
      py      :     0.008156

 14 H s       :     0.793179  s :     0.793179
      pz      :     0.011108  p :     0.018220
      px      :     0.003607
      py      :     0.003505

 15 H s       :     0.811156  s :     0.811156
      pz      :     0.003197  p :     0.017635
      px      :     0.003670
      py      :     0.010767

 16 H s       :     0.809619  s :     0.809619
      pz      :     0.011597  p :     0.017479
      px      :     0.002348
      py      :     0.003534

 17 H s       :     0.812615  s :     0.812615
      pz      :     0.005016  p :     0.018488
      px      :     0.009912
      py      :     0.003559

 18 H s       :     0.816990  s :     0.816990
      pz      :     0.003744  p :     0.018322
      px      :     0.004639
      py      :     0.009939

 19 H s       :     0.816046  s :     0.816046
      pz      :     0.010994  p :     0.018300
      px      :     0.003645
      py      :     0.003661


------------------------
MULLIKEN OVERLAP CHARGES
------------------------
B(  0-C ,  1-C ) :   0.4245 B(  0-C ,  2-C ) :  -0.1984 B(  0-C ,  8-H ) :   0.8357 
B(  0-C ,  9-H ) :   0.8485 B(  0-C , 10-H ) :   0.7951 B(  0-C , 11-H ) :  -0.0541 
B(  0-C , 12-H ) :  -0.0600 B(  1-C ,  2-C ) :   0.4081 B(  1-C ,  3-C ) :  -0.1015 
B(  1-C ,  8-H ) :  -0.0815 B(  1-C ,  9-H ) :  -0.0912 B(  1-C , 10-H ) :  -0.0734 
B(  1-C , 11-H ) :   0.8350 B(  1-C , 12-H ) :   0.8491 B(  1-C , 13-H ) :  -0.0734 
B(  1-C , 14-H ) :  -0.0575 B(  2-C ,  3-C ) :   0.3021 B(  2-C ,  4-O ) :  -0.0912 
B(  2-C ,  5-O ) :  -0.0517 B(  2-C ,  8-H ) :  -0.0556 B(  2-C , 11-H ) :  -0.1101 
B(  2-C , 12-H ) :  -0.0588 B(  2-C , 13-H ) :   0.9302 B(  2-C , 14-H ) :   0.7683 
B(  3-C ,  4-O ) :   0.9277 B(  3-C ,  5-O ) :   0.3418 B(  3-C ,  6-C ) :  -0.1803 
B(  3-C ,  8-H ) :   0.0629 B(  3-C , 13-H ) :  -0.1652 B(  4-O ,  5-O ) :  -0.2191 
B(  5-O ,  6-C ) :   0.2840 B(  5-O ,  7-C ) :  -0.0981 B(  5-O , 15-H ) :  -0.0690 
B(  5-O , 16-H ) :  -0.0722 B(  6-C ,  7-C ) :   0.4527 B(  6-C , 15-H ) :   0.8366 
B(  6-C , 16-H ) :   0.7894 B(  6-C , 17-H ) :  -0.0667 B(  6-C , 18-H ) :  -0.0553 
B(  6-C , 19-H ) :  -0.0770 B(  7-C , 15-H ) :  -0.0511 B(  7-C , 17-H ) :   0.8125 
B(  7-C , 18-H ) :   0.8208 B(  7-C , 19-H ) :   0.8398 B( 15-H , 16-H ) :  -0.0667 
B( 18-H , 19-H ) :  -0.0503 


                     *******************************
                     * LOEWDIN POPULATION ANALYSIS *
                     *******************************

----------------------
LOEWDIN ATOMIC CHARGES
----------------------
   0 C :   -0.422927
   1 C :   -0.290178
   2 C :   -0.229271
   3 C :    0.358809
   4 O :   -0.489419
   5 O :   -0.602258
   6 C :    0.036632
   7 C :   -0.389860
   8 H :    0.155981
   9 H :    0.156139
  10 H :    0.156428
  11 H :    0.160184
  12 H :    0.164713
  13 H :    0.181357
  14 H :    0.190911
  15 H :    0.185586
  16 H :    0.183696
  17 H :    0.168324
  18 H :    0.162546
  19 H :    0.162609

-------------------------------
LOEWDIN REDUCED ORBITAL CHARGES
-------------------------------
  0 C s       :     2.971278  s :     2.971278
      pz      :     1.080871  p :     3.388860
      px      :     1.147078
      py      :     1.160910
      dz2     :     0.016835  d :     0.062790
      dxz     :     0.017024
      dyz     :     0.007507
      dx2y2   :     0.006407
      dxy     :     0.015016

  1 C s       :     2.934492  s :     2.934492
      pz      :     1.084756  p :     3.275918
      px      :     1.119264
      py      :     1.071898
      dz2     :     0.019916  d :     0.079768
      dxz     :     0.018723
      dyz     :     0.011014
      dx2y2   :     0.010492
      dxy     :     0.019623

  2 C s       :     2.924724  s :     2.924724
      pz      :     1.104065  p :     3.231639
      px      :     1.028056
      py      :     1.099519
      dz2     :     0.017833  d :     0.072908
      dxz     :     0.014179
      dyz     :     0.006656
      dx2y2   :     0.014978
      dxy     :     0.019262

  3 C s       :     2.738874  s :     2.738874
      pz      :     0.827428  p :     2.630918
      px      :     0.926184
      py      :     0.877307
      dz2     :     0.039393  d :     0.271399
      dxz     :     0.046197
      dyz     :     0.047830
      dx2y2   :     0.061235
      dxy     :     0.076744

  4 O s       :     3.546138  s :     3.546138
      pz      :     1.489833  p :     4.727908
      px      :     1.727415
      py      :     1.510659
      dz2     :     0.032906  d :     0.215373
      dxz     :     0.034964
      dyz     :     0.058315
      dx2y2   :     0.042156
      dxy     :     0.047031

  5 O s       :     3.458821  s :     3.458821
      pz      :     1.671489  p :     4.658062
      px      :     1.376378
      py      :     1.610196
      dz2     :     0.086019  d :     0.485375
      dxz     :     0.094504
      dyz     :     0.047908
      dx2y2   :     0.116465
      dxy     :     0.140479

  6 C s       :     2.869011  s :     2.869011
      pz      :     1.037619  p :     2.974475
      px      :     0.851374
      py      :     1.085482
      dz2     :     0.031518  d :     0.119882
      dxz     :     0.026115
      dyz     :     0.006860
      dx2y2   :     0.028913
      dxy     :     0.026476

  7 C s       :     2.971316  s :     2.971316
      pz      :     1.144385  p :     3.358540
      px      :     1.107331
      py      :     1.106824
      dz2     :     0.017849  d :     0.060004
      dxz     :     0.010060
      dyz     :     0.005800
      dx2y2   :     0.013792
      dxy     :     0.012503

  8 H s       :     0.799934  s :     0.799934
      pz      :     0.015090  p :     0.044085
      px      :     0.020312
      py      :     0.008683

  9 H s       :     0.800048  s :     0.800048
      pz      :     0.008558  p :     0.043813
      px      :     0.016604
      py      :     0.018651

 10 H s       :     0.799646  s :     0.799646
      pz      :     0.009395  p :     0.043926
      px      :     0.011609
      py      :     0.022922

 11 H s       :     0.796087  s :     0.796087
      pz      :     0.014503  p :     0.043728
      px      :     0.020925
      py      :     0.008300

 12 H s       :     0.791435  s :     0.791435
      pz      :     0.008522  p :     0.043852
      px      :     0.016465
      py      :     0.018866

 13 H s       :     0.775036  s :     0.775036
      pz      :     0.008240  p :     0.043606
      px      :     0.014664
      py      :     0.020703

 14 H s       :     0.764083  s :     0.764083
      pz      :     0.027872  p :     0.045006
      px      :     0.008628
      py      :     0.008505

 15 H s       :     0.772753  s :     0.772753
      pz      :     0.007525  p :     0.041661
      px      :     0.008008
      py      :     0.026128

 16 H s       :     0.775178  s :     0.775178
      pz      :     0.027178  p :     0.041127
      px      :     0.005840
      py      :     0.008109

 17 H s       :     0.787274  s :     0.787274
      pz      :     0.011946  p :     0.044402
      px      :     0.024412
      py      :     0.008044

 18 H s       :     0.793617  s :     0.793617
      pz      :     0.008445  p :     0.043837
      px      :     0.010959
      py      :     0.024433

 19 H s       :     0.793574  s :     0.793574
      pz      :     0.027585  p :     0.043817
      px      :     0.007969
      py      :     0.008264


---------------------------------
LOEWDIN BOND ORDERS (THRESH 0.050000)
---------------------------------
B(  0-C ,  1-C ) :   1.1420 B(  0-C ,  2-C ) :   0.0666 B(  0-C ,  8-H ) :   0.9200 
B(  0-C ,  9-H ) :   0.9276 B(  0-C , 10-H ) :   0.9281 B(  1-C ,  2-C ) :   1.0802 
B(  1-C ,  3-C ) :   0.0716 B(  1-C , 11-H ) :   0.8904 B(  1-C , 12-H ) :   0.8859 
B(  2-C ,  3-C ) :   0.9319 B(  2-C ,  4-O ) :   0.1827 B(  2-C ,  5-O ) :   0.1762 
B(  2-C , 13-H ) :   0.8685 B(  2-C , 14-H ) :   0.8573 B(  3-C ,  4-O ) :   2.1378 
B(  3-C ,  5-O ) :   1.4667 B(  3-C ,  6-C ) :   0.0900 B(  4-O ,  5-O ) :   0.4575 
B(  4-O ,  6-C ) :   0.0724 B(  5-O ,  6-C ) :   1.2895 B(  5-O ,  7-C ) :   0.1699 
B(  5-O , 15-H ) :   0.0927 B(  5-O , 16-H ) :   0.0945 B(  6-C ,  7-C ) :   1.0911 
B(  6-C , 15-H ) :   0.8194 B(  6-C , 16-H ) :   0.8241 B(  7-C , 17-H ) :   0.9154 
B(  7-C , 18-H ) :   0.9208 B(  7-C , 19-H ) :   0.9214 

------------------------------------------
LOEWDIN REDUCED ORBITAL POPULATIONS PER MO
-------------------------------------------
THRESHOLD FOR PRINTING IS 0.1%%
                      0         1         2         3         4         5   
                 -19.00225 -18.94335 -10.16170 -10.08417 -10.03551 -10.02857
                   2.00000   2.00000   2.00000   2.00000   2.00000   2.00000
                  --------  --------  --------  --------  --------  --------
 1 C  s               0.0       0.0       0.0       0.0       0.0      99.7
 2 C  s               0.0       0.0       0.0       0.0      99.7       0.0
 3 C  s               0.0       0.0      98.9       0.0       0.0       0.0
 4 O  s               0.0      99.9       0.0       0.0       0.0       0.0
 4 O  py              0.0       0.0       0.1       0.0       0.0       0.0
 4 O  dyz             0.0       0.0       0.2       0.0       0.0       0.0
 5 O  s              99.9       0.0       0.0       0.0       0.0       0.0
 5 O  dxz             0.0       0.0       0.0       0.1       0.0       0.0
 5 O  dx2y2           0.0       0.0       0.0       0.1       0.0       0.0
 5 O  dxy             0.0       0.0       0.2       0.0       0.0       0.0
 6 C  s               0.0       0.0       0.0      99.4       0.0       0.0

                      6         7         8         9        10        11   
                 -10.01881 -10.01174  -1.07971  -0.98773  -0.77145  -0.73362
                   2.00000   2.00000   2.00000   2.00000   2.00000   2.00000
                  --------  --------  --------  --------  --------  --------
 0 C  s               0.0      99.7       0.0       0.0       7.2       6.2
 0 C  pz              0.0       0.0       0.0       0.0       1.9       0.8
 0 C  px              0.0       0.0       0.0       0.0       0.3       0.1
 1 C  s               0.0       0.0       0.1       0.0      17.4       8.3
 1 C  pz              0.0       0.1       0.0       0.0       0.1       0.4
 1 C  px              0.0       0.0       0.2       0.0       0.3       0.1
 1 C  py              0.0       0.0       0.1       0.0       1.5       0.1
 2 C  s               0.0       0.0       1.0       0.1      19.4       2.0
 2 C  pz              0.0       0.0       0.4       0.2       0.4       0.1
 2 C  px              0.0       0.0       1.6       0.1       0.1       1.3
 2 C  py              0.0       0.0       0.0       0.2       1.5       0.5
 3 C  s               0.0       0.0      16.8       3.2       3.2       0.8
 3 C  pz              0.0       0.0       0.4       6.0       2.6       0.2
 3 C  px              0.0       0.0       4.3       0.7       5.2       1.0
 3 C  py              0.0       0.0       0.3      16.9       1.9       1.3
 3 C  dz2             0.0       0.0       0.1       0.1       0.0       0.0
 3 C  dxz             0.0       0.0       0.0       0.1       0.0       0.0
 3 C  dyz             0.0       0.0       0.5       0.7       0.0       0.0
 3 C  dx2y2           0.0       0.0       0.1       0.3       0.1       0.0
 3 C  dxy             0.0       0.0       0.3       0.7       0.0       0.1
 4 O  s               0.0       0.0      14.1      41.3       1.3       0.2
 4 O  pz              0.0       0.0       1.1       1.2       0.2       0.0
 4 O  px              0.0       0.0       0.0       0.2       0.2       0.0
 4 O  py              0.0       0.0       2.1       1.7       0.2       0.1
 4 O  dxz             0.0       0.0       0.0       0.1       0.2       0.0
 4 O  dyz             0.0       0.0       0.9       0.1       0.2       0.1
 4 O  dx2y2           0.0       0.0       0.4       0.0       0.0       0.1
 4 O  dxy             0.0       0.0       0.1       0.2       0.2       0.0
 5 O  s               0.0       0.0      39.6      18.3       0.1       1.0
 5 O  pz              0.0       0.0       0.7       0.1       0.4       0.4
 5 O  px              0.0       0.0       0.1       0.5       6.5       8.4
 5 O  py              0.0       0.0       2.1       0.4       0.4       1.2
 5 O  dz2             0.0       0.0       0.2       0.0       0.1       0.2
 5 O  dxz             0.0       0.0       0.0       0.2       0.1       0.6
 5 O  dyz             0.0       0.0       0.2       0.3       0.0       0.0
 5 O  dx2y2           0.0       0.0       0.0       0.5       0.0       1.1
 5 O  dxy             0.0       0.0       0.5       0.3       0.2       0.0
 6 C  s               0.0       0.0       4.1       1.9       5.4      16.6
 6 C  pz              0.0       0.0       0.7       0.5       0.2       0.2
 6 C  px              0.0       0.0       4.5       1.3       0.1       1.9
 6 C  py              0.0       0.0       0.1       0.2       0.2       1.4
 6 C  dxz             0.0       0.0       0.2       0.1       0.0       0.0
 6 C  dx2y2           0.0       0.0       0.2       0.1       0.0       0.0
 7 C  s              99.7       0.0       0.3       0.2       3.0      19.0
 7 C  pz              0.0       0.0       0.0       0.0       0.1       0.3
 7 C  px              0.0       0.0       0.4       0.3       0.3       0.7
 7 C  py              0.0       0.0       0.2       0.1       0.3       0.9
 8 H  s               0.0       0.0       0.0       0.0       1.0       0.9
 9 H  s               0.0       0.0       0.0       0.0       0.9       0.9
10 H  s               0.0       0.0       0.0       0.0       0.9       0.9
11 H  s               0.0       0.0       0.0       0.0       2.2       1.3
11 H  px              0.0       0.0       0.0       0.0       0.1       0.1
12 H  s               0.0       0.0       0.0       0.0       2.3       1.1
12 H  py              0.0       0.0       0.0       0.0       0.1       0.1
13 H  s               0.0       0.0       0.1       0.0       2.5       0.4
13 H  py              0.0       0.0       0.0       0.0       0.1       0.0
14 H  s               0.0       0.0       0.1       0.0       2.7       0.2
14 H  pz              0.0       0.0       0.0       0.0       0.3       0.0
15 H  s               0.0       0.0       0.3       0.1       0.7       2.6
15 H  py              0.0       0.0       0.0       0.0       0.1       0.2
16 H  s               0.0       0.0       0.2       0.1       0.7       2.7
16 H  pz              0.0       0.0       0.0       0.0       0.1       0.2
17 H  s               0.0       0.0       0.0       0.0       0.4       3.1
17 H  px              0.0       0.0       0.0       0.0       0.0       0.2
18 H  s               0.0       0.0       0.0       0.0       0.4       3.0
18 H  py              0.0       0.0       0.0       0.0       0.0       0.2
19 H  s               0.0       0.0       0.0       0.0       0.4       3.0
19 H  pz              0.0       0.0       0.0       0.0       0.0       0.3

                     12        13        14        15        16        17   
                  -0.67196  -0.60906  -0.56378  -0.53229  -0.47034  -0.45418
                   2.00000   2.00000   2.00000   2.00000   2.00000   2.00000
                  --------  --------  --------  --------  --------  --------
 0 C  s              20.6       4.7       8.1       0.4       0.3       0.1
 0 C  pz              0.1       1.0       6.8       0.6       0.1       1.3
 0 C  px              0.0       0.0       0.3       0.1       2.3       0.0
 0 C  py              0.1       0.0       0.3       0.1       0.0       0.1
 0 C  dz2             0.0       0.0       0.1       0.0       0.0       0.0
 1 C  s               3.1       1.5      13.7       1.0       0.0       0.5
 1 C  pz              5.1       2.8       5.0       0.1       1.2       0.1
 1 C  px              2.0       0.1       0.0       0.0       3.1       0.8
 1 C  py              2.3       0.5       2.2       0.9       0.1       0.8
 1 C  dz2             0.2       0.1       0.1       0.0       0.0       0.0
 2 C  s              11.8       3.8       1.9       1.3       0.7       0.6
 2 C  pz              0.3       0.4       0.1       0.2       9.2       2.9
 2 C  px              1.5       2.0       1.9       0.5       1.4       0.1
 2 C  py              1.3       0.0       7.6       1.5       0.5       0.9
 2 C  dxz             0.0       0.0       0.0       0.0       0.1       0.0
 3 C  s               2.6       1.9       1.2       2.1       0.6       3.1
 3 C  pz              2.7       0.2       0.8       0.1       5.1       1.0
 3 C  px              4.1       0.8       3.0       2.3       8.3       0.2
 3 C  py              0.1       1.7       0.2       1.7       2.2       5.8
 4 O  s               0.8       0.3       1.2       1.6       0.4      13.3
 4 O  pz              0.3       0.1       0.7       0.3       0.5      20.0
 4 O  px              0.4       0.0       0.6       1.1       5.4       2.6
 4 O  py              0.1       0.3       0.3       2.7       2.6      18.8
 4 O  dz2             0.0       0.0       0.0       0.0       0.2       0.0
 4 O  dxz             0.2       0.0       0.2       0.1       0.2       0.0
 4 O  dyz             0.2       0.1       0.1       0.1       0.0       0.4
 4 O  dx2y2           0.0       0.2       0.0       0.1       0.1       0.1
 4 O  dxy             0.2       0.0       0.1       0.1       0.4       0.1
 5 O  s               0.8       0.0       0.6       5.5       0.1       0.4
 5 O  pz              0.3       1.0       0.2       2.6       6.8       0.0
 5 O  px              1.2      14.8       0.5       7.9       1.3       7.2
 5 O  py              0.1       1.6       0.3      12.0      12.9       2.3
 5 O  dz2             0.3       0.1       0.0       0.0       0.1       0.3
 5 O  dxz             0.1       0.6       0.3       0.4       0.0       0.5
 5 O  dyz             0.0       0.0       0.0       0.1       0.0       0.0
 5 O  dx2y2           0.5       0.1       0.2       0.2       0.4       0.1
 5 O  dxy             0.6       0.7       0.1       0.2       0.4       0.2
 6 C  s               0.5       4.3       2.8       6.0       0.1       0.2
 6 C  pz              0.0       0.4       0.7       9.1       5.1       5.3
 6 C  px              2.1       4.4       0.0       4.9       1.4       0.7
 6 C  py              0.5       2.1       0.9       5.9       7.7       0.2
 6 C  dxz             0.1       0.1       0.0       0.3       0.0       0.0
 6 C  dx2y2           0.0       0.0       0.0       0.1       0.0       0.0
 6 C  dxy             0.0       0.2       0.0       0.0       0.0       0.0
 7 C  s               6.6      15.9       1.8       0.5       0.1       0.0
 7 C  pz              0.0       0.3       0.4       2.3       1.7       1.9
 7 C  px              0.0       1.9       0.3       0.3       1.2       0.0
 7 C  py              0.0       1.4       1.0       2.1       0.8       0.0
 8 H  s               3.9       1.5       3.9       0.2       0.1       0.4
 8 H  pz              0.1       0.0       0.1       0.0       0.0       0.0
 8 H  px              0.2       0.1       0.2       0.0       0.0       0.0
 9 H  s               4.0       1.3       3.8       0.3       0.6       0.2
 9 H  px              0.1       0.0       0.1       0.0       0.0       0.0
 9 H  py              0.2       0.1       0.2       0.0       0.0       0.0
10 H  s               4.5       1.5       3.0       0.1       0.5       0.1
10 H  py              0.3       0.1       0.2       0.0       0.0       0.0
11 H  s               0.7       0.6       6.3       0.4       0.8       0.5
11 H  pz              0.0       0.0       0.1       0.0       0.0       0.0
11 H  px              0.0       0.0       0.4       0.0       0.0       0.0
12 H  s               0.5       0.3       6.3       0.8       0.6       0.1
12 H  px              0.0       0.0       0.2       0.0       0.0       0.0
12 H  py              0.0       0.0       0.3       0.0       0.0       0.0
13 H  s               2.4       1.4       1.6       1.6       0.7       0.0
13 H  px              0.1       0.0       0.1       0.0       0.0       0.0
13 H  py              0.1       0.1       0.0       0.0       0.0       0.0
14 H  s               3.1       1.1       0.6       0.6       3.8       2.0
14 H  pz              0.3       0.1       0.0       0.0       0.1       0.1
15 H  s               0.1       1.3       1.4       6.9       2.8       0.0
15 H  py              0.0       0.1       0.1       0.3       0.1       0.0
16 H  s               0.1       1.4       1.4       6.3       2.5       2.2
16 H  pz              0.0       0.1       0.1       0.3       0.1       0.1
17 H  s               1.5       5.4       0.6       0.0       0.1       0.2
17 H  pz              0.0       0.1       0.0       0.0       0.0       0.0
17 H  px              0.1       0.3       0.0       0.0       0.0       0.0
18 H  s               1.3       4.6       0.9       0.8       0.4       0.0
18 H  py              0.1       0.3       0.0       0.0       0.0       0.0
19 H  s               1.3       4.6       0.8       0.8       0.9       0.6
19 H  pz              0.1       0.4       0.1       0.0       0.0       0.0

                     18        19        20        21        22        23   
                  -0.45034  -0.42067  -0.40559  -0.37579  -0.37299  -0.36357
                   2.00000   2.00000   2.00000   2.00000   2.00000   2.00000
                  --------  --------  --------  --------  --------  --------
 0 C  s               0.0       0.2       0.1       0.1       0.0       0.0
 0 C  pz              0.0       0.6       6.3       1.5       2.4       0.6
 0 C  px              1.1       3.0      11.0       7.4       0.4       3.4
 0 C  py              2.4       8.2       1.5       3.5      16.2       0.0
 0 C  dxy             0.0       0.0       0.0       0.0       0.1       0.0
 1 C  s               0.1       0.1       0.1       0.4       0.0       0.0
 1 C  pz              0.4       2.5       0.1       4.6       3.2       0.0
 1 C  px              3.6       0.9      19.2       1.6       0.3       0.8
 1 C  py              6.9       8.1       0.6       0.9       5.8       0.0
 2 C  s               1.1       0.0       0.7       0.0       0.1       0.0
 2 C  pz              0.4      13.2       5.3       2.5       2.5       0.4
 2 C  px             13.7       2.9       0.5       0.1       0.1       2.7
 2 C  py              0.8       0.7       3.2       0.1      13.0       0.2
 2 C  dz2             0.0       0.0       0.1       0.1       0.0       0.0
 2 C  dx2y2           0.0       0.0       0.1       0.0       0.0       0.0
 2 C  dxy             0.0       0.0       0.0       0.0       0.1       0.0
 3 C  s               0.4       0.2       0.2       0.0       0.1       0.4
 3 C  pz              5.9       2.4       1.3       6.3       0.6       0.7
 3 C  px              4.5       0.5       0.7       1.4       1.1       0.7
 3 C  py              0.4       2.2       0.3       2.2       1.0       1.6
 3 C  dz2             0.0       0.0       0.0       0.2       0.1       0.0
 3 C  dxz             0.0       0.0       0.1       0.0       0.0       0.0
 3 C  dyz             0.1       0.0       0.0       0.0       0.2       0.0
 3 C  dx2y2           0.0       0.1       0.1       0.1       0.1       0.1
 3 C  dxy             0.0       0.0       0.1       0.1       0.2       0.0
 4 O  s               0.8       0.4       0.1       0.1       0.5       0.4
 4 O  pz              0.2       5.4       0.3       5.9       1.7       2.5
 4 O  px              1.4       0.0       1.9       3.5       0.3       0.3
 4 O  py              5.6       0.2       2.5       7.2       4.5       1.2
 4 O  dz2             0.2       0.3       0.0       0.3       0.0       0.0
 4 O  dxz             0.0       0.0       0.1       0.0       0.2       0.0
 4 O  dx2y2           0.1       0.0       0.0       0.1       0.1       0.0
 4 O  dxy             0.2       0.0       0.0       0.1       0.0       0.0
 5 O  s               0.4       0.0       1.0       0.1       0.0       2.2
 5 O  pz             15.7       0.1       4.4       1.9       3.6       2.0
 5 O  px              0.1       0.0       2.2       2.0       0.4       0.0
 5 O  py              1.8       0.4       1.2       5.6       0.8       2.3
 5 O  dz2             0.7       0.1       0.0       0.0       0.1       0.1
 5 O  dxz             0.0       0.8       0.0       0.4       0.0       0.0
 5 O  dyz             0.2       0.2       0.2       0.2       0.0       0.0
 5 O  dx2y2           0.6       0.3       0.0       0.5       0.0       0.3
 5 O  dxy             0.0       0.6       0.2       0.0       0.3       0.4
 6 C  s               0.6       0.0       0.2       0.0       0.1       0.2
 6 C  pz              3.3       4.9       0.6       1.2       0.7       0.0
 6 C  px              3.3       1.0       2.2       1.2       2.6       1.6
 6 C  py              0.4       5.9       1.2       0.2       3.6       0.3
 6 C  dx2y2           0.1       0.0       0.0       0.0       0.1       0.1
 7 C  s               0.5       0.0       0.1       0.0       0.1       0.0
 7 C  pz              0.1       4.2       3.3       4.5       0.6      16.9
 7 C  px              1.0       1.4       0.2       1.0       8.0      18.6
 7 C  py              4.6       3.2       0.7      10.8       1.3       5.1
 7 C  dxz             0.0       0.0       0.0       0.0       0.1       0.2
 7 C  dx2y2           0.0       0.0       0.0       0.0       0.0       0.2
 8 H  s               0.1       0.3       6.4       0.9       0.7       1.7
 9 H  s               1.0       0.0       2.0       0.2       6.1       0.4
 9 H  px              0.0       0.0       0.0       0.0       0.1       0.0
10 H  s               0.2       4.8       0.1       4.4       3.3       0.2
10 H  py              0.0       0.1       0.0       0.1       0.0       0.0
11 H  s               0.3       1.4       5.1       1.7       0.0       0.2
11 H  pz              0.0       0.0       0.2       0.0       0.0       0.0
12 H  s               3.6       1.0       3.0       0.0       0.6       0.2
12 H  py              0.1       0.0       0.1       0.0       0.0       0.0
13 H  s               4.5       0.5       0.9       0.0       5.6       0.8
13 H  px              0.0       0.0       0.0       0.0       0.2       0.0
13 H  py              0.2       0.1       0.0       0.0       0.0       0.0
14 H  s               0.3       5.4       4.3       1.4       1.1       0.0
14 H  pz              0.0       0.2       0.1       0.0       0.0       0.0
14 H  px              0.1       0.0       0.0       0.0       0.0       0.0
14 H  py              0.0       0.0       0.0       0.0       0.1       0.0
15 H  s               1.7       2.9       0.0       0.3       0.2       0.2
16 H  s               0.5       2.7       0.5       0.6       0.1       0.2
16 H  pz              0.0       0.1       0.0       0.0       0.0       0.0
17 H  s               0.8       0.0       0.0       0.0       2.6      16.8
17 H  px              0.0       0.0       0.0       0.0       0.0       0.3
18 H  s               1.6       1.8       0.1       6.2       0.0       5.1
18 H  pz              0.0       0.0       0.0       0.0       0.0       0.2
18 H  py              0.0       0.1       0.0       0.1       0.0       0.1
19 H  s               0.0       2.0       1.5       2.9       0.5       5.5
19 H  px              0.0       0.0       0.0       0.0       0.1       0.2

                     24        25        26        27        28        29   
                  -0.34898  -0.32939  -0.32167  -0.31232  -0.30654  -0.30212
                   2.00000   2.00000   2.00000   2.00000   2.00000   2.00000
                  --------  --------  --------  --------  --------  --------
 0 C  s               0.0       0.0       0.3       0.1       0.4       0.0
 0 C  pz              0.1       0.3      11.3       4.6      12.6       0.4
 0 C  px              6.6       1.9       2.3       4.7       6.9       5.1
 0 C  py              6.3       2.9       1.5       2.0       2.2      10.6
 0 C  dz2             0.0       0.0       0.0       0.0       0.3       0.1
 0 C  dxz             0.0       0.0       0.2       0.3       0.0       0.1
 0 C  dyz             0.0       0.0       0.0       0.0       0.1       0.2
 0 C  dxy             0.1       0.0       0.0       0.0       0.0       0.4
 1 C  s               0.0       0.0       0.2       0.1       0.0       0.1
 1 C  pz              1.2       0.5      10.2       5.0      10.6       0.5
 1 C  px              0.1       0.1       0.7       4.5       8.1       6.7
 1 C  py              0.1       0.3       2.0       2.1       1.0      16.1
 1 C  dz2             0.0       0.0       0.0       0.0       0.5       0.1
 1 C  dxz             0.0       0.0       0.3       0.3       0.0       0.1
 1 C  dyz             0.0       0.0       0.0       0.1       0.0       0.2
 1 C  dxy             0.0       0.0       0.0       0.0       0.0       0.6
 2 C  s               0.1       0.2       0.5       0.2       0.3       0.2
 2 C  pz              0.0       0.7       0.1       0.0      11.3       0.5
 2 C  px              9.3       0.1       1.4       1.7       4.3       0.0
 2 C  py              5.0       1.2       2.3       1.5       1.8       9.5
 2 C  dz2             0.0       0.0       0.1       0.0       0.5       0.0
 2 C  dxy             0.2       0.0       0.0       0.0       0.0       0.4
 3 C  s               0.1       0.0       0.1       0.5       0.0       0.1
 3 C  pz              0.8       1.4       0.2       1.4       0.4       0.2
 3 C  px              3.6       0.8       0.3       0.5       0.2       0.4
 3 C  py              0.2       1.4       0.2       1.6       0.2       0.1
 3 C  dz2             0.0       0.2       0.0       0.0       0.5       0.0
 3 C  dxz             0.0       0.0       0.2       0.0       0.0       0.0
 3 C  dyz             0.0       0.0       0.1       0.2       0.0       0.0
 3 C  dx2y2           0.0       0.3       0.1       0.2       0.0       0.0
 3 C  dxy             0.0       0.0       0.1       0.2       0.0       0.1
 4 O  s               0.0       0.0       0.1       0.3       0.0       0.0
 4 O  pz              0.1      10.6       0.0       1.6       6.4       0.8
 4 O  px              1.2       1.1       4.7       1.5       1.8       0.1
 4 O  py              1.5       2.7       0.2       4.2       4.5       0.2
 4 O  dz2             0.0       0.1       0.0       0.0       0.0       0.0
 4 O  dyz             0.0       0.1       0.0       0.1       0.0       0.0
 4 O  dx2y2           0.0       0.0       0.2       0.2       0.0       0.0
 5 O  s               0.0       0.1       1.0       1.3       0.0       0.0
 5 O  pz              1.6       0.8       5.9       7.5       1.0       1.1
 5 O  px              4.6       2.4       1.2       1.3       0.0       0.2
 5 O  py              0.1       4.2       1.8      10.7       0.2       0.1
 5 O  dz2             0.0       0.3       0.1       0.1       0.2       0.1
 5 O  dxz             0.3       0.1       0.0       0.0       0.0       0.0
 5 O  dyz             0.0       0.1       0.1       0.4       0.0       0.0
 5 O  dx2y2           0.0       0.2       0.2       0.4       0.0       0.0
 5 O  dxy             0.2       0.0       0.7       0.8       0.0       0.2
 6 C  s               0.1       0.1       0.3       0.4       0.0       0.0
 6 C  pz              0.9       7.1       1.9       2.3       0.0       1.0
 6 C  px              6.4       0.4       0.1       0.2       0.0       0.3
 6 C  py              4.3       1.1       8.4       5.2       0.8       0.0
 6 C  dz2             0.0       0.3       0.0       0.0       0.0       0.1
 6 C  dxz             0.1       0.1       0.0       0.0       0.0       0.0
 6 C  dx2y2           0.1       0.1       0.2       0.1       0.0       0.0
 6 C  dxy             0.1       0.0       0.2       0.3       0.0       0.0
 7 C  s               0.1       0.0       0.3       0.3       0.0       0.0
 7 C  pz              0.1      16.9       0.9       0.9       0.0       0.5
 7 C  px             16.5       1.2       0.2       0.4       0.0       0.6
 7 C  py              2.7       5.4       9.2       4.3       0.7       0.1
 7 C  dz2             0.0       0.5       0.0       0.0       0.0       0.0
 7 C  dxz             0.1       0.0       0.0       0.0       0.0       0.0
 7 C  dx2y2           0.1       0.1       0.1       0.0       0.0       0.0
 7 C  dxy             0.1       0.0       0.1       0.1       0.0       0.0
 8 H  s               1.0       0.6       6.4       6.7       0.4       2.2
 8 H  pz              0.0       0.0       0.0       0.0       0.2       0.0
 8 H  py              0.1       0.0       0.0       0.0       0.0       0.1
 9 H  s               6.4       0.1       0.1       0.0       0.6      10.9
 9 H  pz              0.0       0.0       0.1       0.0       0.1       0.0
10 H  s               0.5       2.8       0.7       2.0       6.0       3.1
[...]
 3 C  dz2             0.0       0.4       1.9       0.0       0.0       0.0
 3 C  dxz             3.4       0.2       1.3       0.3       0.0       0.0
 3 C  dyz             0.3       0.0       0.4       4.3       0.0       0.0
 3 C  dx2y2           4.1       0.0       0.2       1.5       0.0       0.0
 3 C  dxy             1.0       1.7       8.0       0.5       0.0       0.0
 4 O  s               0.2       1.1       0.9      19.2       0.0       0.0
 4 O  pz              0.1       0.2       0.1       7.7       0.0       0.0
 4 O  px              3.4       0.1       0.2       1.0       0.0       0.0
 4 O  py              1.5       0.6       0.3      12.8       0.0       0.0
 4 O  dz2             0.8       0.0       0.0       0.1       0.0       0.0
 4 O  dxz             3.0       0.0       1.0       1.2       0.0       0.0
 4 O  dyz             0.7       1.2       0.2      21.1       0.0       0.0
 4 O  dx2y2           2.0       1.0       0.3       7.9       0.0       0.0
 4 O  dxy             6.9       0.0       0.4       2.1       0.0       0.0
 5 O  s               3.3      27.0       4.7       1.2       0.0       0.0
 5 O  pz              1.1       4.9       0.0       0.1       0.0       0.0
 5 O  px              0.1       6.5      24.0       0.8       0.0       0.0
 5 O  py              3.0       2.1       8.9       0.1       0.0       0.0
 5 O  dz2             0.0       4.4       3.2       0.1       0.0       0.0
 5 O  dxz             0.0       6.9       5.2       1.0       0.0       0.0
 5 O  dyz             2.7       0.9       0.9       0.0       0.0       0.0
 5 O  dx2y2           2.1       9.5       2.0       1.1       0.0       0.0
 5 O  dxy             0.2       3.1      17.6       0.0       0.0       0.0
 6 C  s               0.3       1.4       0.7       0.2      20.8       0.1
 6 C  pz              0.1       1.9       0.5       0.1       0.0       0.0
 6 C  px              0.0       5.8       2.0       0.3       0.0       0.0
 6 C  dz2             0.0       1.0       0.1       0.0       0.0       0.0
 6 C  dxz             0.1       5.4       1.3       0.4       0.0       0.0
 6 C  dyz             0.3       0.2       0.0       0.0       0.0       0.0
 6 C  dx2y2           0.0       5.8       1.7       0.3       0.0       0.0
 6 C  dxy             0.2       0.0       0.0       0.0       0.0       0.0
 7 C  s               0.0       0.0       0.0       0.0      62.5      13.0
 7 C  dz2             0.1       0.0       0.0       0.0       0.0       0.0
 7 C  dxz             0.0       0.2       0.0       0.0       0.0       0.0
 7 C  dx2y2           0.0       0.3       0.0       0.0       0.0       0.0
 8 H  s               0.7       0.0       0.0       0.0       0.0       0.0
 8 H  pz              0.8       0.0       0.0       0.0       0.0       0.0
 8 H  px              1.2       0.0       0.0       0.0       0.0       0.0
10 H  s               0.4       0.0       0.0       0.0       0.0       0.0
10 H  pz              0.1       0.0       0.0       0.0       0.0       0.0
10 H  px              0.2       0.0       0.0       0.0       0.0       0.0
10 H  py              0.5       0.0       0.0       0.0       0.0       0.0
11 H  s               1.5       0.0       0.0       0.0       0.0       0.0
11 H  pz              0.6       0.0       0.0       0.0       0.0       0.0
11 H  px              2.9       0.0       0.0       0.0       0.0       0.0
11 H  py              0.1       0.0       0.0       0.0       0.0       0.0
12 H  s               0.9       0.0       0.0       0.0       0.0       0.0
12 H  pz              0.3       0.0       0.0       0.0       0.0       0.0
12 H  px              0.6       0.0       0.0       0.0       0.0       0.0
12 H  py              1.4       0.0       0.0       0.0       0.0       0.0
13 H  s               4.7       0.0       0.1       0.1       0.0       0.0
13 H  pz              0.1       0.0       0.0       0.0       0.0       0.0
13 H  px              3.1       0.0       0.0       0.0       0.0       0.0
13 H  py              6.4       0.0       0.1       0.1       0.0       0.0
14 H  s               1.1       0.0       0.0       0.0       0.0       0.0
14 H  pz              1.8       0.0       0.0       0.0       0.0       0.0
14 H  py              0.1       0.0       0.0       0.0       0.0       0.0
15 H  s               0.0       0.3       0.1       0.0       0.0       0.0
15 H  pz              0.0       0.2       0.1       0.0       0.0       0.0
15 H  px              0.2       0.0       0.0       0.0       0.0       0.0
15 H  py              0.0       0.7       0.1       0.0       0.0       0.0
16 H  s               0.0       0.5       0.0       0.0       0.0       0.0
16 H  pz              0.0       0.7       0.0       0.0       0.0       0.0
16 H  px              0.0       0.5       0.1       0.0       0.0       0.0
17 H  px              0.0       0.2       0.0       0.0       0.0       0.0

                    216       217       218       219       220       221   
                  22.00062  22.03233  22.08421  22.27274  43.68648  43.74388
                   0.00000   0.00000   0.00000   0.00000   0.00000   0.00000
                  --------  --------  --------  --------  --------  --------
 0 C  s               9.2       0.8       3.1       0.2       0.0       0.0
 1 C  s              12.7      82.9       0.1       3.0       0.0       0.0
 2 C  s              13.8       1.1      69.2       0.1       0.0       0.0
 3 C  s               5.1       0.8       0.3      92.7       0.0       0.0
 4 O  s               0.0       0.0       0.0       0.2      96.8       3.1
 5 O  s               0.0       0.0       0.1       0.1       3.1      96.9
 6 C  s              42.3       7.1      26.7       2.6       0.0       0.0
 7 C  s              16.6       6.9       0.0       0.6       0.0       0.0



                      *****************************
                      * MAYER POPULATION ANALYSIS *
                      *****************************

  NA   - Mulliken gross atomic population
  ZA   - Total nuclear charge
  QA   - Mulliken gross atomic charge
  VA   - Mayer's total valence
  BVA  - Mayer's bonded valence
  FA   - Mayer's free valence

  ATOM       NA         ZA         QA         VA         BVA        FA
  0 C      6.5269     6.0000    -0.5269     3.8075     3.8075     0.0000
  1 C      6.2217     6.0000    -0.2217     3.6434     3.6434     0.0000
  2 C      6.3370     6.0000    -0.3370     3.6968     3.6968    -0.0000
  3 C      5.6093     6.0000     0.3907     3.7858     3.7858     0.0000
  4 O      8.5072     8.0000    -0.5072     1.8779     1.8779     0.0000
  5 O      8.1735     8.0000    -0.1735     1.9320     1.9320    -0.0000
  6 C      6.1492     6.0000    -0.1492     3.6367     3.6367    -0.0000
  7 C      6.4916     6.0000    -0.4916     3.8454     3.8454     0.0000
  8 H      0.8385     1.0000     0.1615     0.9599     0.9599     0.0000
  9 H      0.8369     1.0000     0.1631     0.9591     0.9591     0.0000
 10 H      0.8384     1.0000     0.1616     0.9581     0.9581     0.0000
 11 H      0.8369     1.0000     0.1631     0.9558     0.9558     0.0000
 12 H      0.8440     1.0000     0.1560     0.9609     0.9609     0.0000
 13 H      0.8207     1.0000     0.1793     0.9576     0.9576    -0.0000
 14 H      0.8114     1.0000     0.1886     0.9496     0.9496    -0.0000
 15 H      0.8288     1.0000     0.1712     0.9475     0.9475     0.0000
 16 H      0.8271     1.0000     0.1729     0.9440     0.9440     0.0000
 17 H      0.8311     1.0000     0.1689     0.9582     0.9582     0.0000
 18 H      0.8353     1.0000     0.1647     0.9568     0.9568     0.0000
 19 H      0.8343     1.0000     0.1657     0.9570     0.9570    -0.0000

  Mayer bond orders larger than 0.100000
B(  0-C ,  1-C ) :   0.8982 B(  0-C ,  8-H ) :   0.9693 B(  0-C ,  9-H ) :   0.9771 
B(  0-C , 10-H ) :   0.9662 B(  1-C ,  2-C ) :   0.8769 B(  1-C , 11-H ) :   0.9611 
B(  1-C , 12-H ) :   0.9719 B(  2-C ,  3-C ) :   0.9545 B(  2-C , 13-H ) :   1.0006 
B(  2-C , 14-H ) :   0.9366 B(  3-C ,  4-O ) :   1.7560 B(  3-C ,  5-O ) :   1.0862 
B(  5-O ,  6-C ) :   0.7921 B(  6-C ,  7-C ) :   0.9439 B(  6-C , 15-H ) :   0.9518 
B(  6-C , 16-H ) :   0.9406 B(  7-C , 17-H ) :   0.9617 B(  7-C , 18-H ) :   0.9680 
B(  7-C , 19-H ) :   0.9722 

-------
TIMINGS
-------

Total SCF time: 0 days 0 hours 0 min 35 sec 

Total time                  ....      35.324 sec
Sum of individual times     ....      34.766 sec  ( 98.4%)

SCF preparation             ....       0.373 sec  (  1.1%)
Fock matrix formation       ....      32.966 sec  ( 93.3%)
  Startup                   ....       0.088 sec  (  0.3% of F)
  Split-RI-J                ....       5.865 sec  ( 17.8% of F)
  XC integration            ....      20.269 sec  ( 61.5% of F)
    XC Preparation          ....       0.000 sec  (  0.0% of XC)
    Basis function eval.    ....       3.683 sec  ( 18.2% of XC)
    Density eval.           ....       6.091 sec  ( 30.1% of XC)
    XC-Functional eval.     ....       2.574 sec  ( 12.7% of XC)
    XC-Potential eval.      ....       6.752 sec  ( 33.3% of XC)
  CPCM terms                ....       6.084 sec  ( 18.5% of F)
Diagonalization             ....       0.000 sec  (  0.0%)
Density matrix formation    ....       0.503 sec  (  1.4%)
Total Energy calculation    ....       0.071 sec  (  0.2%)
Population analysis         ....       0.148 sec  (  0.4%)
Orbital Transformation      ....       0.072 sec  (  0.2%)
Orbital Orthonormalization  ....       0.000 sec  (  0.0%)
DIIS solution               ....       0.571 sec  (  1.6%)
  MO trafo                  ....       0.000 sec  (  0.0 % of DIIS)
  Orb grad                  ....       0.000 sec  (  0.0 % of DIIS)
  Energy W gradient         ....       0.000 sec  (  0.0 % of DIIS)
  DIIS error                ....       0.032 sec  (  5.6 % of DIIS)
  DIIS work                 ....       0.470 sec  ( 82.2 % of DIIS)
  Form Q                    ....       0.000 sec  (  0.0 % of DIIS)
  Form QpQm                 ....       0.000 sec  (  0.0 % of DIIS)
  Exp/Cayley                ....       0.000 sec  (  0.0 % of DIIS)
  Orb update                ....       0.000 sec  (  0.0 % of DIIS)
  Wake-sleep                ....       0.035 sec  (  6.1 % of DIIS)
SOSCF solution              ....       0.061 sec  (  0.2%)
  MO trafo                  ....       0.048 sec  ( 78.0 % of SOSCF)
  Orb grad                  ....       0.001 sec  (  1.0 % of SOSCF)
  Rot update                ....       0.000 sec  (  0.1 % of SOSCF)
  Step                      ....       0.013 sec  ( 20.7 % of SOSCF)
Finished LeanSCF after  35.5 sec

Maximum memory used throughout the entire LEANSCF-calculation: 30.4 MB


-------------------------------------------------------------------------------
                          DFT DISPERSION CORRECTION                            
                                                                               
                                DFTD4 V3.4.0                                   
-------------------------------------------------------------------------------
The R2SCAN3C composite method is recognized
Using three-body term ABC
Active option DFTDOPT                   ...         5   

-------------------------   ----------------
Dispersion correction           -0.005101911
-------------------------   ----------------

------------------   -----------------
gCP correction             0.011637661
------------------   -----------------

-------------------------   --------------------
FINAL SINGLE POINT ENERGY      -386.241757707347
-------------------------   --------------------


------------------------------------------------------------------------------
                              ORCA PROPERTY CALCULATIONS
------------------------------------------------------------------------------

GBWName                                 ... sp_solv.gbw
Number of atoms                         ...     20
Number of basis functions               ...    222
Max core memory                         ...   1024 MB

Electric properties:
Dipole moment                           ... YES
Quadrupole moment                       ...  NO
Static polarizability (Dipole/Dipole)   ...  NO
Static polarizability (Dipole/Quad.)    ...  NO
Static polarizability (Quad./Quad.)     ...  NO
Static polarizability (Velocity)        ...  NO

Atomic electric properties:
Dipole moment                           ...  NO
Quadrupole moment                       ...  NO
Static polarizability                   ...  NO

Choice of electric origin               ... Center of mass
Position of electric origin             ...    -0.000008    -0.000020    -0.000002

General magnetic properties:
Magnetizability                         ...  NO

EPR properties:
g-Tensor (aka g-matrix)                 ...  NO
Zero-Field splitting spin-orbit         ...  NO
Zero-field splitting spin-spin          ...  NO
Hyperfine couplings                     ...  NO (   0 nuclei)
Quadrupole couplings                    ...  NO (   0 nuclei)
Contact density                         ...  NO (   0 nuclei)

NMR properties:
Chemical shifts                         ...  NO (   0 nuclei)
Spin-rotation constants                 ...  NO (   0 nuclei)
Spin-spin couplings                     ...  NO (   0 nuclei,    0 pairs)

Choice of magnetic origin               ... GIAO
Position of magnetic origin             ...     0.000000     0.000000     0.000000

Properties with geometric perturbations:
SCF Hessian                             ...  NO
IR spectrum                             ...  NO
VCD spectrum                            ...  NO
X-ray spectroscopy properties:
SCF XES/XAS/RIXS spectra                ...  NO


-------------
DIPOLE MOMENT
-------------

Method             : SCF
Type of density    : Electron Density
Multiplicity       :   1
Irrep              :   0
Energy             :  -386.2482934582087069 Eh
Relativity type    : 
Basis              : AO
                                X                 Y                 Z
Electronic contribution:      1.506547945       4.933587877      -0.725093500
Nuclear contribution   :     -1.323138002      -6.050169795       0.125051630
                        -----------------------------------------
Total Dipole Moment    :      0.183409943      -1.116581918      -0.600041870
                        -----------------------------------------
Magnitude (a.u.)       :      1.280798435
Magnitude (Debye)      :      3.255530901



--------------------
Rotational spectrum 
--------------------
 
Rotational constants in cm-1:             0.110119             0.037984             0.033665 
Rotational constants in MHz :          3301.296736          1138.717336          1009.244154 

Dipole components along the rotational axes: 
x,y,z [a.u.] :     0.271831    -1.174472     0.432629 
x,y,z [Debye]:     0.690941    -2.985270     1.099656 

 

Dipole moment calculation done in   0.0 sec 

Maximum memory used throughout the entire PROP-calculation: 13.8 MB

--------------------------------
SUGGESTED CITATIONS FOR THIS RUN
--------------------------------

Below you find a list of papers that are relevant to this ORCA run
We neither can nor want to force you to cite these papers, but we appreciate if you do
You receive ORCA, which is the product of decades of hard work by many enthusiastic individuals, for free
The only thing we kindly ask in return is that you cite our papers,
We deeply appreciate it, if you show your appreciation for ORCA by not just citing the generic ORCA reference.

Please note that relegating all ORCA citations to the supporting information does *not* help us.
SI sections are not indexed - citations you put there will not count into any citation statistics
But we need these citations in order to attract the funding resources that allow us to do what we are doing

Therefore, if you are a happy ORCA user, please consider citing a few of the papers listed below in the main body of your paper

In addition to the list printed below, the program has created the file sp_solv.bibtex that contains the list in bibtex format
You can import this file easily into all common literature databanks and citation aid programs


List of essential papers. We consider these as the minimum necessary citations

  1. Neese,F.
     Software update: the ORCA program system, version 5.0
     WIRES Comput. Molec. Sci., 2022 12(1)e1606
     doi.org/10.1002/wcms.1606
  2. Grimme,S.; Hansen,A.; Ehlert,S.; Mewes,J.
     r2SCAN-3c: A 'Swiss army knife' composite electronic-structure method
     J. Chem. Phys., 2021 154 064103
     doi.org/10.1063/5.0040021

List of papers to cite with high priority. The work reported in these papers was absolutely
necessary for this run to complete.
Our perspective: the developers of density functionals and basis sets usually get cited in chemistry papers
Good! But without the algorithms to do something with them, the functionals or basis sets would not do anything.
Hence, in our opinion, the algorithm design and method developments papers are equally worthy of getting cited

  1. Neese,F.
     An improvement of the resolution of the identity approximation for the formation of the Coulomb matrix
     J. Comp. Chem., 2003 24(14)1740-1747
     doi.org/10.1002/jcc.10318
  2. Garcia-Rates,M.; Neese,F.
     Effect of the Solute Cavity on the Solvation Energy and its Derivatives within the Framework of the Gaussian Charge Scheme
     J. Comput. Chem., 2020 41 922-939
     doi.org/10.1002/jcc.26139
  3. Neese,F.
     The SHARK Integral Generation and Digestion System
     J. Comp. Chem., 2022  1-16
     doi.org/10.1002/jcc.26942
  4. Lehtola,S.; Steigemann,C.; Oliveira,M.; Marques,M.
     Recent developments in Libxc - A comprehensive library of functionals for density functional theory
     Software X, 2018 7 
     doi.org/10.1016/j.softx.2017.11.002
  5. Caldeweyher,E.; Bannwarth,C.; Grimme,S.
     Extension of the D3 dispersion coefficient model
     J. Chem. Phys., 2017 147 034112-XXXX
     doi.org/10.1063/1.4993215
  6. Caldeweyher,E.; Ehlert,S.; Hansen,A.; Neugebauer,H.; Spicher,S.; Bannwarth,C.; Grimme,S.
     A generally applicable atomic-charge dependent London dispersion correction
     J. Chem. Phys., 2019 150 154122-XXXX
     doi.org/10.1063/1.5090222
  7. Caldeweyher,E.; Mewes,J.; Ehlert,S.; Grimme,S.
     Extension and evaluation of the D4 London-dispersion model for periodic systems
     Phys. Chem. Chem. Phys., 2020 22(16)8499-8512
     doi.org/10.1039/D0CP00502A

List of suggested additional citations. These are papers that are important in the 'surrounding' of 
of this run, or papers that preceded the highly important papers. If you like your results we are grateful for a citation.

  1. Neese,F.
     The ORCA program system
     WIRES Comput. Molec. Sci., 2012 2(1)73-78
     doi.org/10.1002/wcms.81
  2. Neese,F.
     Software update: the ORCA program system, version 4.0
     WIRES Comput. Molec. Sci., 2018 8(1)1-6
     doi.org/10.1002/wcms.1327
  3. Neese,F.; Wennmohs,F.; Becker,U.; Riplinger,C.
     The ORCA quantum chemistry program package
     J. Chem. Phys., 2020 152 Art. No. L224108
     doi.org/10.1063/5.0004608

List of optional additional citations

  1. Neese,F.
     Approximate second-order SCF convergence for spin unrestricted wavefunctions
     Chem. Phys. Lett., 2000 325(1-3)93-98
     doi.org/10.1016/s0009-2614(00)00662-x

Timings for individual modules:

Sum of individual times          ...       37.650 sec (=   0.627 min)
Startup calculation              ...        1.678 sec (=   0.028 min)   4.5 %
SCF iterations                   ...       35.844 sec (=   0.597 min)  95.2 %
Property calculations            ...        0.128 sec (=   0.002 min)   0.3 %
                             ****ORCA TERMINATED NORMALLY****
TOTAL RUN TIME: 0 days 0 hours 0 minutes 38 seconds 562 msec
