
                                 *****************
                                 * O   R   C   A *
                                 *****************

                                            #,                                       
                                            ###                                      
                                            ####                                     
                                            #####                                    
                                            ######                                   
                                           ########,                                 
                                     ,,################,,,,,                         
                               ,,#################################,,                 
                          ,,##########################################,,             
                       ,#########################################, ''#####,          
                    ,#############################################,,   '####,        
                  ,##################################################,,,,####,       
                ,###########''''           ''''###############################       
              ,#####''   ,,,,##########,,,,          '''####'''          '####       
            ,##' ,,,,###########################,,,                        '##       
           ' ,,###''''                  '''############,,,                           
         ,,##''                                '''############,,,,        ,,,,,,###''
      ,#''                                            '''#######################'''  
     '                                                          ''''####''''         
             ,#######,   #######,   ,#######,      ##                                
            ,#'     '#,  ##    ##  ,#'     '#,    #''#        ,####,   ,####,        
            ##       ##  ##   ,#'  ##            #'  '#       #'       #'  '#        
            ##       ##  #######   ##           ,######,      #####,   #    #        
            '#,     ,#'  ##    ##  '#,     ,#' ,#      #,     #,   #   #,  ,#        
             '#######'   ##     ##  '#######'  #'      '#     '####' # '####'        



                #########################################################
                #                        -***-                          #
                #          Department of theory and spectroscopy        #
                #                                                       #
                #                      Frank Neese                      #
                #                                                       #
                #     Directorship, Architecture, Infrastructure        #
                #                    SHARK, DRIVERS                     #
                #        Core code/Algorithms in most modules           #
                #                                                       #
                #        Max Planck Institute fuer Kohlenforschung      #
                #                Kaiser Wilhelm Platz 1                 #
                #                 D-45470 Muelheim/Ruhr                 #
                #                      Germany                          #
                #                                                       #
                #                  All rights reserved                  #
                #                        -***-                          #
                #########################################################


                         Program Version 6.0.0  -   RELEASE  -


 With contributions from (in alphabetic order):
   Daniel Aravena         : Magnetic Suceptibility
   Michael Atanasov       : Ab Initio Ligand Field Theory (pilot matlab implementation)
   Alexander A. Auer      : GIAO ZORA, VPT2 properties, NMR spectrum
   Ute Becker             : All parallelization in ORCA, NUMFREQ, NUMCALC
   Giovanni Bistoni       : ED, misc. LED, open-shell LED, HFLD
   Martin Brehm           : Molecular dynamics
   Dmytro Bykov           : pre 5.0 version of the SCF Hessian
   Marcos Casanova-Páez   : Triplet and SCS-CIS(D). UHF-(DLPNO)-IP/EA/STEOM-CCSD. UHF-CVS-IP/STEOM-CCSD
   Vijay G. Chilkuri      : MRCI spin determinant printing, contributions to CSF-ICE
   Pauline Colinet        : FMM embedding
   Dipayan Datta          : RHF DLPNO-CCSD density
   Achintya Kumar Dutta   : EOM-CC, STEOM-CC
   Nicolas Foglia         : Exact transition moments, OPA infrastructure, MCD improvements
   Dmitry Ganyushin       : Spin-Orbit,Spin-Spin,Magnetic field MRCI
   Miquel Garcia          : C-PCM and meta-GGA Hessian, CCSD/C-PCM, Gaussian charge scheme
   Tiago L. C. Gouveia    : GS-ROHF, GS-ROCIS
   Yang Guo               : DLPNO-NEVPT2, F12-NEVPT2, CIM, IAO-localization
   Andreas Hansen         : Spin unrestricted coupled pair/coupled cluster methods
   Ingolf Harden          : AUTO-CI MPn and infrastructure 
   Benjamin Helmich-Paris : MC-RPA, TRAH-(SCF,CASSCF), AVAS, COSX integrals, SCF dyn. polar.
   Lee Huntington         : MR-EOM, pCC
   Robert Izsak           : Overlap fitted RIJCOSX, COSX-SCS-MP3, EOM
   Riya Kayal             : Wick's Theorem for AUTO-CI, AUTO-CI UHF-CCSDT
   Emily Kempfer          : AUTO-CI, RHF CISDT and CCSDT
   Christian Kollmar      : KDIIS, OOCD, Brueckner-CCSD(T), CCSD density, CASPT2, CASPT2-K, improved NEVPT2
   Axel Koslowski         : Symmetry handling
   Simone Kossmann        : Meta GGA functionals, TD-DFT gradient, OOMP2, (MP2 Hessian; deprecated post 5.0)
   Lucas Lang             : DCDCAS
   Marvin Lechner         : AUTO-CI (C++ implementation), FIC-MRCC
   Spencer Leger          : CASSCF response
   Dagmar Lenk            : GEPOL surface, SMD, ORCA-2-JSON
   Dimitrios Liakos       : Extrapolation schemes; Compound Job, initial MDCI parallelization
   Dimitrios Manganas     : Further ROCIS development; embedding schemes. LFT, Crystal Embedding
   Dimitrios Pantazis     : SARC Basis sets
   Anastasios Papadopoulos: AUTO-CI, single reference methods and gradients
   Taras Petrenko         : pre 6.0 DFT Hessian and TD-DFT gradient, (ASA, deprecated), ECA, 1-Electron XAS/XES, NRVS
   Peter Pinski           : DLPNO-MP2, DLPNO-MP2 Gradient
   Christoph Reimann      : Effective Core Potentials
   Marius Retegan         : Local ZFS, SOC
   Christoph Riplinger    : Optimizer, TS searches, QM/MM, DLPNO-CCSD(T), (RO)-DLPNO pert. Triples
   Michael Roemelt        : Original ROCIS implementation
   Masaaki Saitow         : Open-shell DLPNO-CCSD energy and density
   Barbara Sandhoefer     : DKH picture change effects
   Kantharuban Sivalingam : CASSCF convergence/infrastructure, NEVPT2 and variants, FIC-MRCI
   Bernardo de Souza      : ESD, SOC TD-DFT
   Georgi Stoychev        : AutoAux, RI-MP2 NMR, DLPNO-MP2 response, X2C
   Van Anh Tran           : RI-MP2 g-tensors
   Willem Van den Heuvel  : Paramagnetic NMR
   Zikuan Wang            : NOTCH, Electric field optimization 
   Frank Wennmohs         : Technical directorship and infrastructure
   Hang Xu                : AUTO-CI-Response properties 


 We gratefully acknowledge several colleagues who have allowed us to
 interface, adapt or use parts of their codes:
   Stefan Grimme, W. Hujo, H. Kruse, P. Pracht,  : VdW corrections, initial TS optimization,
                  C. Bannwarth, S. Ehlert,         DFT functionals, gCP, sTDA/sTD-DF
                  L. Wittmann, M. Mueller
   Ed Valeev, F. Pavosevic, A. Kumar             : LibInt (2-el integral package), F12 methods
   Garnet Chan, S. Sharma, J. Yang, R. Olivares  : DMRG
   Ulf Ekstrom                                   : XCFun DFT Library
   Mihaly Kallay                                 : mrcc  (arbitrary order and MRCC methods)
   Frank Weinhold                                : gennbo (NPA and NBO analysis)
   Simon Mueller                                 : openCOSMO-RS
   Christopher J. Cramer and Donald G. Truhlar   : smd solvation model
   Lars Goerigk                                  : TD-DFT with DH, B97 family of functionals
   V. Asgeirsson, H. Jonsson                     : NEB implementation
   FAccTs GmbH                                   : IRC, NEB, NEB-TS, DLPNO-Multilevel, CI-OPT
                                                   MM, QMMM, 2- and 3-layer-ONIOM, Crystal-QMMM,
                                                   LR-CPCM, SF, NACMEs, symmetry and pop. for TD-DFT,
                                                   nearIR, NL-DFT gradient (VV10), updates on ESD,
                                                   ML-optimized integration grids, MBIS, APM,
                                                   GOAT, DOCKER, SOLVATOR, interface openCOSMO-RS
   S Lehtola, MJT Oliveira, MAL Marques          : LibXC Library
   Liviu Ungur et al                             : ANISO software


 Your calculation uses the libint2 library for the computation of 2-el integrals
 For citations please refer to: http://libint.valeyev.net

 Your ORCA version has been built with support for libXC version: 6.2.2
 For citations please refer to: https://libxc.gitlab.io

 This ORCA versions uses:
   CBLAS   interface :  Fast vector & matrix operations
   LAPACKE interface :  Fast linear algebra routines
   SCALAPACK package :  Parallel linear algebra routines
   Shared memory     :  Shared parallel matrices
   BLAS/LAPACK       :  OpenBLAS 0.3.27  USE64BITINT DYNAMIC_ARCH NO_AFFINITY SkylakeX SINGLE_THREADED
        Core in use  :  SkylakeX
   Copyright (c) 2011-2014, The OpenBLAS Project


Your calculation utilizes the geometrical counterpoise correction gCP
Please cite in your paper:
H.Kruse, S. Grimme J.Chem.Phys., 136, (2012), 154101 
   

Your calculation utilizes the atom-pairwise dispersion correction
based on EEQ partial charges (D4)


Your calculation utilizes the SMD solvation module
Please cite in your paper:
A.V. Marenich, C.J. Cramer, D.G. Truhlar J. Phys. Chem. B, 113, (2009), 6378 

================================================================================

----- Orbital basis set information -----
Your calculation utilizes the basis: def2-mTZVPP
   Stefan Grimme, Andreas Hansen, Sebastian Ehlert, and Jan-Michael Mewes 
   J. Chem. Phys. 154, 064103 (2021). DOI: 10.1063/5.0040021

----- AuxJ basis set information -----
Your calculation utilizes the auxiliary basis: def2/J
   F. Weigend, Phys. Chem. Chem. Phys. 8, 1057 (2006).

================================================================================
                                        WARNINGS
                       Please study these warnings very carefully!
================================================================================

Using LibXC functional ID 497 : Re-regularized SCAN exchange by Furness et al
[ 1]  J. W. Furness, A. D. Kaplan, J. Ning, J. P. Perdew, and J. Sun.,  J. Phys. Chem. Lett. 11, 8208-8215 (2020)
[ 2]  J. W. Furness, A. D. Kaplan, J. Ning, J. P. Perdew, and J. Sun.,  J. Phys. Chem. Lett. 11, 9248-9248 (2020)
Using LibXC functional ID 498 : Re-regularized SCAN correlation by Furness et al
[ 1]  J. W. Furness, A. D. Kaplan, J. Ning, J. P. Perdew, and J. Sun.,  J. Phys. Chem. Lett. 11, 8208-8215 (2020)
[ 2]  J. W. Furness, A. D. Kaplan, J. Ning, J. P. Perdew, and J. Sun.,  J. Phys. Chem. Lett. 11, 9248-9248 (2020)
Using LibXC functional ID 497 : Re-regularized SCAN exchange by Furness et al
[ 1]  J. W. Furness, A. D. Kaplan, J. Ning, J. P. Perdew, and J. Sun.,  J. Phys. Chem. Lett. 11, 8208-8215 (2020)
[ 2]  J. W. Furness, A. D. Kaplan, J. Ning, J. P. Perdew, and J. Sun.,  J. Phys. Chem. Lett. 11, 9248-9248 (2020)
Using LibXC functional ID 498 : Re-regularized SCAN correlation by Furness et al
[ 1]  J. W. Furness, A. D. Kaplan, J. Ning, J. P. Perdew, and J. Sun.,  J. Phys. Chem. Lett. 11, 8208-8215 (2020)
[ 2]  J. W. Furness, A. D. Kaplan, J. Ning, J. P. Perdew, and J. Sun.,  J. Phys. Chem. Lett. 11, 9248-9248 (2020)

================================================================================
                                       INPUT FILE
================================================================================
NAME = sp_solv.inp
|  1> ! r2scan-3c def2/J RI DEFGRID2 scfconv6 printgap
|  2> %output
|  3>     printlevel normal
|  4> end
|  5> %cpcm
|  6>     smd true
|  7>     smdsolvent "water"
|  8> end
|  9> * xyz 0 1
| 10> C 2.166727082 0.5665197819 0.0556560212
| 11> C 1.2318371064 -0.3428666038 0.254598532
| 12> C 1.0304e-05 -0.4896864617 -0.5871716175
| 13> C -1.231582165 -0.342559995 0.2549174188
| 14> C -2.1669528998 0.5662421759 0.0555601383
| 15> H 3.0355751724 0.6394814178 0.6871931115
| 16> H 2.1041854674 1.2753917595 -0.7536104297
| 17> H 1.315031266 -1.0418547279 1.0768604547
| 18> H -0.0001923888 -1.4904607321 -1.0318393122
| 19> H 3.52329e-05 0.2494068783 -1.3890953893
| 20> H -1.3143719542 -1.0411081001 1.0775982769
| 21> H -3.0357270739 0.639242013 0.6872081841
| 22> H -2.1050055459 1.274562018 -0.7542255204
| 23> *
| 24> 
| 25>                          ****END OF INPUT****
================================================================================

                       ****************************
                       * Single Point Calculation *
                       ****************************

---------------------------------
CARTESIAN COORDINATES (ANGSTROEM)
---------------------------------
  C      2.166727    0.566520    0.055656
  C      1.231837   -0.342867    0.254599
  C      0.000010   -0.489686   -0.587172
  C     -1.231582   -0.342560    0.254917
  C     -2.166953    0.566242    0.055560
  H      3.035575    0.639481    0.687193
  H      2.104185    1.275392   -0.753610
  H      1.315031   -1.041855    1.076860
  H     -0.000192   -1.490461   -1.031839
  H      0.000035    0.249407   -1.389095
  H     -1.314372   -1.041108    1.077598
  H     -3.035727    0.639242    0.687208
  H     -2.105006    1.274562   -0.754226

----------------------------
CARTESIAN COORDINATES (A.U.)
----------------------------
  NO LB      ZA    FRAG     MASS         X           Y           Z
   0 C     6.0000    0    12.011    4.094521    1.070567    0.105175
   1 C     6.0000    0    12.011    2.327835   -0.647924    0.481121
   2 C     6.0000    0    12.011    0.000019   -0.925373   -1.109594
   3 C     6.0000    0    12.011   -2.327353   -0.647345    0.481724
   4 C     6.0000    0    12.011   -4.094948    1.070043    0.104993
   5 H     1.0000    0     1.008    5.736406    1.208445    1.298607
   6 H     1.0000    0     1.008    3.976334    2.410141   -1.424117
   7 H     1.0000    0     1.008    2.485049   -1.968820    2.034971
   8 H     1.0000    0     1.008   -0.000364   -2.816563   -1.949894
   9 H     1.0000    0     1.008    0.000067    0.471311   -2.625010
  10 H     1.0000    0     1.008   -2.483803   -1.967409    2.036366
  11 H     1.0000    0     1.008   -5.736693    1.207992    1.298635
  12 H     1.0000    0     1.008   -3.977884    2.408573   -1.425280

--------------------------------
INTERNAL COORDINATES (ANGSTROEM)
--------------------------------
 C      0   0   0     0.000000000000     0.00000000     0.00000000
 C      1   0   0     1.319310800220     0.00000000     0.00000000
 C      2   1   0     1.499176549434   124.40834954     0.00000000
 C      3   2   1     1.499193166993   110.48779893   238.70905706
 C      4   3   2     1.319311609379   124.41326908   121.35551981
 H      1   2   3     1.076596257159   122.01471360   179.78502829
 H      1   2   3     1.077647030681   121.70362161   359.45658061
 H      2   1   3     1.082414123775   120.34507678   180.78001808
 H      3   2   1     1.095115765611   108.52021752   119.84491788
 H      3   2   1     1.090568980685   110.27260917     0.87540395
 H      4   3   2     1.082417386510   115.23997953   302.07526790
 H      5   4   3     1.076604289218   122.01711696   180.19756330
 H      5   4   3     1.077639683013   121.70616410     0.53143830

---------------------------
INTERNAL COORDINATES (A.U.)
---------------------------
 C      0   0   0     0.000000000000     0.00000000     0.00000000
 C      1   0   0     2.493136097940     0.00000000     0.00000000
 C      2   1   0     2.833033104828   124.40834954     0.00000000
 C      3   2   1     2.833064507462   110.48779893   238.70905706
 C      4   3   2     2.493137627028   124.41326908   121.35551981
 H      1   2   3     2.034472082836   122.01471360   179.78502829
 H      1   2   3     2.036457757021   121.70362161   359.45658061
 H      2   1   3     2.045466257422   120.34507678   180.78001808
 H      3   2   1     2.069468881943   108.52021752   119.84491788
 H      3   2   1     2.060876703644   110.27260917     0.87540395
 H      4   3   2     2.045472423098   115.23997953   302.07526790
 H      5   4   3     2.034487261227   122.01711696   180.19756330
 H      5   4   3     2.036443871940   121.70616410     0.53143830

---------------------
BASIS SET INFORMATION
---------------------
There are 2 groups of distinct atoms

 Group   1 Type C   : 11s6p1d contracted to 5s3p1d pattern {62111/411/1}
 Group   2 Type H   : 4s1p contracted to 2s1p pattern {31/1}

Atom   0C    basis set group =>   1
Atom   1C    basis set group =>   1
Atom   2C    basis set group =>   1
Atom   3C    basis set group =>   1
Atom   4C    basis set group =>   1
Atom   5H    basis set group =>   2
Atom   6H    basis set group =>   2
Atom   7H    basis set group =>   2
Atom   8H    basis set group =>   2
Atom   9H    basis set group =>   2
Atom  10H    basis set group =>   2
Atom  11H    basis set group =>   2
Atom  12H    basis set group =>   2
---------------------------------
AUXILIARY/J BASIS SET INFORMATION
---------------------------------
There are 2 groups of distinct atoms

 Group   1 Type C   : 12s5p4d2f1g contracted to 6s4p3d1f1g pattern {711111/2111/211/2/1}
 Group   2 Type H   : 5s2p1d contracted to 3s1p1d pattern {311/2/1}

Atom   0C    basis set group =>   1
Atom   1C    basis set group =>   1
Atom   2C    basis set group =>   1
Atom   3C    basis set group =>   1
Atom   4C    basis set group =>   1
Atom   5H    basis set group =>   2
Atom   6H    basis set group =>   2
Atom   7H    basis set group =>   2
Atom   8H    basis set group =>   2
Atom   9H    basis set group =>   2
Atom  10H    basis set group =>   2
Atom  11H    basis set group =>   2
Atom  12H    basis set group =>   2

Checking for AutoStart:
The File: sp_solv.gbw exists
Trying to determine its content:
     ... Fine, the file contains calculation information
     ... Fine, the calculation information was read
     ... Fine, the file contains a basis set
     ... Fine, the basis set was read
     ... Fine, the file contains a geometry
     ... Fine, the geometry was read
     ... Fine, the file contains a set of orbitals
     ... Fine, the orbitals can be read
     => possible old guess file was deleted
     => GBW file was renamed to GES file
     => GES file is set as startup file
     => Guess is set to MORead
     ... now leaving AutoStart

------------------------------------------------------------------------------
                             ORCA STARTUP CALCULATIONS
                           -- RI-GTO INTEGRALS CHOSEN --
------------------------------------------------------------------------------
------------------------------------------------------------------------------
                   ___                                                        
                  /   \      - P O W E R E D   B Y -                         
                 /     \                                                     
                 |  |  |   _    _      __       _____    __    __             
                 |  |  |  | |  | |    /  \     |  _  \  |  |  /  |          
                  \  \/   | |  | |   /    \    | | | |  |  | /  /          
                 / \  \   | |__| |  /  /\  \   | |_| |  |  |/  /          
                |  |  |   |  __  | /  /__\  \  |    /   |      \           
                |  |  |   | |  | | |   __   |  |    \   |  |\   \          
                \     /   | |  | | |  |  |  |  | |\  \  |  | \   \       
                 \___/    |_|  |_| |__|  |__|  |_| \__\ |__|  \__/        
                                                                              
                      - O R C A' S   B I G   F R I E N D -                    
                                      &                                       
                       - I N T E G R A L  F E E D E R -                       
                                                                              
 v1 FN, 2020, v2 2021, v3 2022-2024                                           
------------------------------------------------------------------------------


----------------------
SHARK INTEGRAL PACKAGE
----------------------

Number of atoms                             ...     13
Number of basis functions                   ...    135
Number of shells                            ...     69
Maximum angular momentum                    ...      2
Integral batch strategy                     ... SHARK/LIBINT Hybrid
RI-J (if used) integral strategy            ... SPLIT-RIJ (Revised 2003 algorithm where possible)
Printlevel                                  ...      1
Contraction scheme used                     ... SEGMENTED contraction
Prescreening option                         ... SCHWARTZ
   Thresh                                   ... 1.000e-10
   Tcut                                     ... 1.000e-11
   Tpresel                                  ... 1.000e-11 
Coulomb Range Separation                    ... NOT USED
Exchange Range Separation                   ... NOT USED
Multipole approximations                    ... NOT USED
Finite Nucleus Model                        ... NOT USED
CABS basis                                  ... NOT available
Auxiliary Coulomb fitting basis             ... AVAILABLE
   # of basis functions in Aux-J            ...    333
   # of shells in Aux-J                     ...    115
   Maximum angular momentum in Aux-J        ...      4
Auxiliary J/K fitting basis                 ... NOT available
Auxiliary Correlation fitting basis         ... NOT available
Auxiliary 'external' fitting basis          ... NOT available

Checking pre-screening integrals            ... done (  0.0 sec) Dimension = 69
Check shell pair data                       ... done (  0.0 sec)
Shell pair information
Shell pair cut-off parameter TPreSel        ...   1.0e-11
Total number of shell pairs                 ...      2415
Shell pairs after pre-screening             ...      2262
Total number of primitive shell pairs       ...      8649
Primitive shell pairs kept                  ...      6108
          la=0 lb=0:    796 shell pairs
          la=1 lb=0:    887 shell pairs
          la=1 lb=1:    260 shell pairs
          la=2 lb=0:    195 shell pairs
          la=2 lb=1:    109 shell pairs
          la=2 lb=2:     15 shell pairs

Calculating one electron integrals          ... done (  0.0 sec)
Calculating RI/J V-Matrix + Cholesky decomp.... done (  0.0 sec)
Calculating Nuclear repulsion               ... done (  0.0 sec) ENN=    156.909237266414 Eh

Diagonalization of the overlap matrix:
Smallest eigenvalue                        ... 3.328e-04
Time for diagonalization                   ...    0.002 sec
Threshold for overlap eigenvalues          ... 1.000e-07
Number of eigenvalues below threshold      ... 0
Time for construction of square roots      ...    0.014 sec
Total time needed                          ...    0.025 sec

-------------------
DFT GRID GENERATION
-------------------

General Integration Accuracy     IntAcc      ... 4.388
Radial Grid Type                 RadialGrid  ... OptM3 with GC (2021)
Angular Grid (max. ang.)         AngularGrid ... 4 (Lebedev-302)
Angular grid pruning method      GridPruning ... 4 (adaptive)
Weight generation scheme         WeightScheme... mBecke (2022)
Basis function cutoff            BFCut       ... 1.0000e-10
Integration weight cutoff        WCut        ... 1.0000e-14
Partially contracted basis set               ... off
Rotationally invariant grid construction     ... off
Angular grids for H and He will be reduced by one unit

Total number of grid points                  ...    56190
Total number of batches                      ...      884
Average number of points per batch           ...       63
Average number of grid points per atom       ...     4322
Initializing property integral containers    ... done (  0.0 sec)

SHARK setup successfully completed in   0.7 seconds

Maximum memory used throughout the entire STARTUP-calculation: 23.4 MB
-------------------------------------------------------------------------------
                                 ORCA GUESS
                   Start orbitals & Density for SCF / CASSCF
-------------------------------------------------------------------------------

------------
SCF SETTINGS
------------
Hamiltonian:
 Density Functional     Method          .... DFT(GTOs)
  Functional kind                       .... Exchange
  Functional name                       .... Re-regularized SCAN exchange by Furness et al
  Functional family                     .... MGGA
  Functional refs                              
    [ 0] J. W. Furness, A. D. Kaplan, J. Ning, J. P. Perdew, and J. Sun.,  J. Phys. Chem. Lett. 11, 8208-8215 (2020), doi: 10.1021/acs.jpclett.0c02405
    [ 1] J. W. Furness, A. D. Kaplan, J. Ning, J. P. Perdew, and J. Sun.,  J. Phys. Chem. Lett. 11, 9248-9248 (2020), doi: 10.1021/acs.jpclett.0c03077
  Functional external parameters        .... 6
    Parameter  0 _c1        =  6.670000e-01 : c1 parameter        
    Parameter  1 _c2        =  8.000000e-01 : c2 parameter        
    Parameter  2 _d         =  1.240000e+00 : d parameter         
    Parameter  3 _k1        =  6.500000e-02 : k1 parameter        
    Parameter  4 _eta       =  1.000000e-03 : eta parameter       
    Parameter  5 _dp2       =  3.610000e-01 : dp2 parameter       
  Functional kind                       .... Correlation
  Functional name                       .... Re-regularized SCAN correlation by Furness et al
  Functional family                     .... MGGA
  Functional refs                              
    [ 0] J. W. Furness, A. D. Kaplan, J. Ning, J. P. Perdew, and J. Sun.,  J. Phys. Chem. Lett. 11, 8208-8215 (2020), doi: 10.1021/acs.jpclett.0c02405
    [ 1] J. W. Furness, A. D. Kaplan, J. Ning, J. P. Perdew, and J. Sun.,  J. Phys. Chem. Lett. 11, 9248-9248 (2020), doi: 10.1021/acs.jpclett.0c03077
  Functional external parameters        .... 1
    Parameter  0 _eta       =  1.000000e-03 : Regularization parameter
 Gradients option       PostSCFGGA      .... off
 RI-approximation to the Coulomb term is turned on
   Number of AuxJ basis functions       .... 333


General Settings:
 Integral files         IntName         .... sp_solv
 Hartree-Fock type      HFTyp           .... RHF
 Total Charge           Charge          ....    0
 Multiplicity           Mult            ....    1
 Number of Electrons    NEL             ....   38
 Basis Dimension        Dim             ....  135
 Nuclear Repulsion      ENuc            ....    156.9092372664 Eh

Convergence Acceleration:
 AO-DIIS                CNVDIIS         .... on
   Start iteration      DIISMaxIt       ....    12
   Startup error        DIISStart       ....  0.200000
   # of expansion vecs  DIISMaxEq       ....     5
   Bias factor          DIISBfac        ....   1.050
   Max. coefficient     DIISMaxC        ....  10.000
 MO-DIIS                CNVKDIIS        .... off
 Trust-Rad. Augm. Hess. CNVTRAH         .... auto
   Auto Start mean grad. ratio tolernc. ....  1.125000
   Auto Start start iteration           ....     1
   Auto Start num. interpolation iter.  ....    10
   Max. Number of Micro iterations      ....    24
   Max. Number of Macro iterations      .... Maxiter - #DIIS iter
   Number of Davidson start vectors     ....     2
   Converg. threshold    (grad. norm)   ....   3.330e-04
   Grad. Scal. Fac. for Micro threshold ....   0.100
   Minimum threshold for Micro iter.    ....   1.000e-02
   NR start threshold (gradient norm)   ....   1.000e-04
   Initial trust radius                 ....   0.400
   Minimum AH scaling param. (alpha)    ....   1.000
   Maximum AH scaling param. (alpha)    .... 1000.000
   Quad. conv. algorithm                .... NR
   White noise on init. David. guess    .... on
   Maximum white noise                  ....   0.010
   Pseudo random numbers                .... off
   Inactive MOs                         .... canonical
   Orbital update algorithm             .... Taylor
   Preconditioner                       .... Diag
   Full preconditioner red. dimension   ....   250
   COSX micro iterations for RIJONX calc.... off
 SOSCF                  CNVSOSCF        .... on
   Start iteration      SOSCFMaxIt      ....   150
   Startup grad/error   SOSCFStart      ....  0.003300
   Hessian update       SOSCFHessUp     .... L-BFGS
 Level Shifting         CNVShift        .... on
   Level shift para.    LevelShift      ....    0.2500
   Turn off err/grad.   ShiftErr        ....    0.0010
 Zerner damping         CNVZerner       .... off
 Static damping         CNVDamp         .... on
   Fraction old density DampFac         ....    0.7000
   Max. Damping (<1)    DampMax         ....    0.9800
   Min. Damping (>=0)   DampMin         ....    0.0000
   Turn off err/grad.   DampErr         ....    0.1000

SCF Procedure:
 Maximum # iterations   MaxIter         ....   125
 SCF integral mode      SCFMode         .... Direct
   Integral package                     .... SHARK and LIBINT hybrid scheme
 Reset frequency        DirectResetFreq ....    20
 Integral Threshold     Thresh          ....  1.000e-10 Eh
 Primitive CutOff       TCut            ....  1.000e-11 Eh

Convergence Tolerance:
 Convergence Check Mode ConvCheckMode   .... Total+1el-Energy
 Convergence forced     ConvForced      .... 0
 Energy Change          TolE            ....  1.000e-06 Eh
 1-El. energy change                    ....  1.000e-03 Eh
 Orbital Gradient       TolG            ....  3.330e-04
 Orbital Rotation angle TolX            ....  3.330e-04
 DIIS Error             TolErr          ....  1.000e-06

---------------------
INITIAL GUESS: MOREAD
---------------------
Guess MOs are being read from file: sp_solv.ges
Input Geometry matches current geometry (good)
Atom 0: N(Shells)= 9 and 6 - projection required
Input basis set needs projection
NBasis(read)= 86
NBasis(calc)= 135
Basis set overlap was calculated
Using GuessMode=FMatrix for the initial guess
C*T matrix was formed
Effective Fockian was calculated
Effective Fockian was diagonalized
Initial density was built
                      ------------------
                      INITIAL GUESS DONE (   0.0 sec)
                      ------------------
             **** ENERGY FILE WAS UPDATED (sp_solv.en.tmp) ****
Finished Guess after   0.3 sec
Maximum memory used throughout the entire GUESS-calculation: 9.4 MB

-------------------------------------------------------------------------------------------
                                      ORCA LEAN-SCF
                              memory conserving SCF solver
-------------------------------------------------------------------------------------------

--------------------
CPCM SOLVATION MODEL
--------------------
CPCM parameters:
  Epsilon                                         ...      78.3550
  Refrac                                          ...       1.3328
  Rsolv                                           ...       1.3000
  Surface type                                    ... GAUSSIAN VDW
  Discretization scheme                           ... Constant charge density
    Threshold for H atoms                         ...       5.0000 (charges/Ang^2)
    Threshold for non-H atoms                     ...       5.0000 (charges/Ang^2)
  Epsilon function type                           ...         CPCM
Solvent:                                          ... WATER
SMD-CDS solvent descriptors:
  Soln                                            ...       1.3328
  Soln25                                          ...       1.3323
  Sola                                            ...       0.0000
  Solb                                            ...       0.0000
  Solg                                            ...       0.0000
  Solc                                            ...       0.0000
  Solh                                            ...       0.0000
Radii:
  Scheme                                          ... Element-dependent radii
  Radius for C  used is    3.4960 Bohr (=   1.8500 Ang.)
  Radius for H  used is    2.2677 Bohr (=   1.2000 Ang.)
Calculating surface                               ...        done! (  0.0s)
Cavity surface points                             ...         1076
Cavity Volume                                     ...     621.6370
Cavity Surface-area                               ...     425.6325
Calculating surface distance matrix               ...        done! (  0.0s)
Performing Cholesky decomposition & store         ...        done! (  0.1s)
Overall time for CPCM initialization              ...                 0.1s

----------------------------------------D-I-I-S--------------------------------------------
Iteration    Energy (Eh)           Delta-E    RMSDP     MaxDP     DIISErr   Damp  Time(sec)
-------------------------------------------------------------------------------------------
               ***  Starting incremental Fock matrix formation  ***
    1    -195.1343272740789985     0.00e+00  3.39e-03  7.66e-02  2.77e-01  0.700   1.5
    2    -195.1638730883992707    -2.95e-02  2.77e-03  6.36e-02  1.95e-01  0.700   1.4
                               ***Turning on AO-DIIS***
    3    -195.1848608019487870    -2.10e-02  2.08e-03  4.69e-02  1.36e-01  0.700   1.3
    4    -195.1996296523146270    -1.48e-02  1.49e-03  3.34e-02  9.55e-02  0.700   1.4
    5    -195.2100092324254774    -1.04e-02  3.54e-03  7.87e-02  6.68e-02  0.000   1.4
                              *** Initializing SOSCF ***
---------------------------------------S-O-S-C-F--------------------------------------
Iteration    Energy (Eh)           Delta-E    RMSDP     MaxDP     MaxGrad    Time(sec)
--------------------------------------------------------------------------------------
    6    -195.2343698497210198    -2.44e-02  6.74e-05  1.05e-03  3.51e-04     1.3
               *** Restarting incremental Fock matrix formation ***
    7    -195.2343721275407802    -2.28e-06  3.82e-05  4.27e-04  2.48e-04     1.4
    8    -195.2343709069556326     1.22e-06  1.76e-05  1.97e-04  4.42e-04     1.2
    9    -195.2343730398483217    -2.13e-06  2.99e-06  3.39e-05  1.13e-05     1.2
                  *** Gradient check signals convergence ***

               *****************************************************
               *                     SUCCESS                       *
               *           SCF CONVERGED AFTER   9 CYCLES          *
               *****************************************************


SMD CDS free energy correction energy :                 4.24397     Kcal/mol
Total Energy after SMD CDS correction =              -195.227609837 Eh
             **** ENERGY FILE WAS UPDATED (sp_solv.en.tmp) ****

----------------
TOTAL SCF ENERGY
----------------

Total Energy       :       -195.22760983707826 Eh           -5312.41334 eV

Components:
Nuclear Repulsion  :        156.90923726641410 Eh            4269.71741 eV
Electronic Energy  :       -352.13646490254700 Eh           -9582.12036 eV
One Electron Energy:       -571.71449603287033 Eh          -15557.14235 eV
Two Electron Energy:        219.57803113032332 Eh            5975.02199 eV
CPCM Dielectric    :         -0.00714540371539 Eh              -0.19444 eV
SMD CDS (Gcds)     :          0.00676320277007 Eh               0.18404 eV

Virial components:
Potential Energy   :       -389.65343008258600 Eh          -10603.00888 eV
Kinetic Energy     :        194.42582024550774 Eh            5290.59554 eV
Virial Ratio       :          2.00412388432029

DFT components:
N(Alpha)           :       18.999974028875 electrons
N(Beta)            :       18.999974028875 electrons
N(Total)           :       37.999948057749 electrons
E(X)               :      -28.831258876116 Eh       
E(C)               :       -1.169742185695 Eh       
E(XC)              :      -30.001001061811 Eh       

CPCM Solvation Model Properties:
Surface-charge          :         -0.04276562702617
Corrected charge        :          0.00000000000000
Outlying charge corr.   :          0.00015883729955 Eh               0.00432 eV
Free-energy (cav+disp)  :          0.00676320277007 Eh               0.18404 eV

---------------
SCF CONVERGENCE
---------------

  Last Energy change         ...    2.1329e-06  Tolerance :   1.0000e-06
  Last MAX-Density change    ...    3.3896e-05  Tolerance :   1.0000e-05
  Last RMS-Density change    ...    2.9865e-06  Tolerance :   1.0000e-06
  Last DIIS Error            ...    3.5143e-04  Tolerance :   1.0000e-06
  Last Orbital Gradient      ...    1.1305e-05  Tolerance :   3.3300e-04
  Last Orbital Rotation      ...    1.9202e-05  Tolerance :   3.3300e-04


----------------
ORBITAL ENERGIES
----------------

  NO   OCC          E(Eh)            E(eV) 
   0   2.0000     -10.034510      -273.0529 
   1   2.0000     -10.034502      -273.0527 
   2   2.0000     -10.030983      -272.9569 
   3   2.0000     -10.016858      -272.5726 
   4   2.0000     -10.016856      -272.5725 
   5   2.0000      -0.779529       -21.2121 
   6   2.0000      -0.724768       -19.7220 
   7   2.0000      -0.646091       -17.5810 
   8   2.0000      -0.529287       -14.4026 
   9   2.0000      -0.520065       -14.1517 
  10   2.0000      -0.434895       -11.8341 
  11   2.0000      -0.431831       -11.7507 
  12   2.0000      -0.397534       -10.8174 
  13   2.0000      -0.367687       -10.0053 
  14   2.0000      -0.354399        -9.6437 
  15   2.0000      -0.310737        -8.4556 
  16   2.0000      -0.310196        -8.4409 
  17   2.0000      -0.242171        -6.5898 
  18   2.0000      -0.238047        -6.4776 
  19   0.0000      -0.025589        -0.6963 
  20   0.0000       0.003113         0.0847 
  21   0.0000       0.110444         3.0053 
  22   0.0000       0.127520         3.4700 
  23   0.0000       0.132214         3.5977 
  24   0.0000       0.142916         3.8890 
  25   0.0000       0.159919         4.3516 
  26   0.0000       0.172721         4.7000 
  27   0.0000       0.177122         4.8197 
  28   0.0000       0.181514         4.9392 
  29   0.0000       0.187825         5.1110 
*Only the first 10 virtual orbitals were printed.

                    ********************************
                    * MULLIKEN POPULATION ANALYSIS *
                    ********************************

-----------------------
MULLIKEN ATOMIC CHARGES
-----------------------
   0 C :   -0.426934
   1 C :   -0.119707
   2 C :   -0.283452
   3 C :   -0.119789
   4 C :   -0.426906
   5 H :    0.167209
   6 H :    0.167206
   7 H :    0.182320
   8 H :    0.179549
   9 H :    0.163771
  10 H :    0.182323
  11 H :    0.167208
  12 H :    0.167202
Sum of atomic charges:   -0.0000000

--------------------------------
MULLIKEN REDUCED ORBITAL CHARGES
--------------------------------
  0 C s       :     3.312774  s :     3.312774
      pz      :     1.062190  p :     3.087760
      px      :     1.020362
      py      :     1.005207
      dz2     :     0.002569  d :     0.026400
      dxz     :     0.005642
      dyz     :     0.005791
      dx2y2   :     0.007483
      dxy     :     0.004916

  1 C s       :     3.175815  s :     3.175815
      pz      :     0.992873  p :     2.905632
      px      :     0.921004
      py      :     0.991755
      dz2     :     0.004697  d :     0.038260
      dxz     :     0.007966
      dyz     :     0.007851
      dx2y2   :     0.010452
      dxy     :     0.007294

  2 C s       :     3.235870  s :     3.235870
      pz      :     0.960429  p :     3.009777
      px      :     0.925664
      py      :     1.123684
      dz2     :     0.004439  d :     0.037805
      dxz     :     0.010787
      dyz     :     0.008098
      dx2y2   :     0.010490
      dxy     :     0.003991

  3 C s       :     3.175888  s :     3.175888
      pz      :     0.992918  p :     2.905642
      px      :     0.921006
      py      :     0.991717
      dz2     :     0.004702  d :     0.038259
      dxz     :     0.007970
      dyz     :     0.007848
      dx2y2   :     0.010448
      dxy     :     0.007292

  4 C s       :     3.312749  s :     3.312749
      pz      :     1.062214  p :     3.087757
      px      :     1.020264
      py      :     1.005280
      dz2     :     0.002573  d :     0.026400
      dxz     :     0.005647
      dyz     :     0.005787
      dx2y2   :     0.007479
      dxy     :     0.004914

  5 H s       :     0.813022  s :     0.813022
      pz      :     0.006775  p :     0.019769
      px      :     0.009268
      py      :     0.003727

  6 H s       :     0.813063  s :     0.813063
      pz      :     0.008734  p :     0.019731
      px      :     0.003500
      py      :     0.007496

  7 H s       :     0.798548  s :     0.798548
      pz      :     0.008669  p :     0.019132
      px      :     0.003368
      py      :     0.007096

  8 H s       :     0.802373  s :     0.802373
      pz      :     0.004705  p :     0.018078
      px      :     0.003530
      py      :     0.009843

  9 H s       :     0.818408  s :     0.818408
      pz      :     0.007795  p :     0.017821
      px      :     0.003057
      py      :     0.006968

 10 H s       :     0.798545  s :     0.798545
      pz      :     0.008673  p :     0.019132
      px      :     0.003367
      py      :     0.007092

 11 H s       :     0.813023  s :     0.813023
      pz      :     0.006775  p :     0.019769
      px      :     0.009266
      py      :     0.003728

 12 H s       :     0.813067  s :     0.813067
      pz      :     0.008740  p :     0.019731
      px      :     0.003499
      py      :     0.007491


------------------------
MULLIKEN OVERLAP CHARGES
------------------------
B(  0-C ,  1-C ) :   1.1645 B(  0-C ,  2-C ) :  -0.1120 B(  0-C ,  5-H ) :   0.8266 
B(  0-C ,  6-H ) :   0.8680 B(  1-C ,  2-C ) :   0.4587 B(  1-C ,  3-C ) :  -0.1097 
B(  1-C ,  5-H ) :  -0.0811 B(  1-C ,  6-H ) :  -0.1262 B(  1-C ,  7-H ) :   0.7804 
B(  1-C ,  8-H ) :  -0.0879 B(  1-C ,  9-H ) :  -0.1288 B(  2-C ,  3-C ) :   0.4588 
B(  2-C ,  4-C ) :  -0.1120 B(  2-C ,  7-H ) :  -0.0541 B(  2-C ,  8-H ) :   0.8685 
B(  2-C ,  9-H ) :   0.9386 B(  2-C , 10-H ) :  -0.0541 B(  3-C ,  4-C ) :   1.1646 
B(  3-C ,  8-H ) :  -0.0879 B(  3-C ,  9-H ) :  -0.1288 B(  3-C , 10-H ) :   0.7804 
B(  3-C , 11-H ) :  -0.0811 B(  3-C , 12-H ) :  -0.1262 B(  4-C , 11-H ) :   0.8266 
B(  4-C , 12-H ) :   0.8680 


                     *******************************
                     * LOEWDIN POPULATION ANALYSIS *
                     *******************************

----------------------
LOEWDIN ATOMIC CHARGES
----------------------
   0 C :   -0.335493
   1 C :   -0.191125
   2 C :   -0.290937
   3 C :   -0.191113
   4 C :   -0.335504
   5 H :    0.163770
   6 H :    0.162830
   7 H :    0.170337
   8 H :    0.179587
   9 H :    0.170712
  10 H :    0.170339
  11 H :    0.163771
  12 H :    0.162825

-------------------------------
LOEWDIN REDUCED ORBITAL CHARGES
-------------------------------
  0 C s       :     2.984407  s :     2.984407
      pz      :     1.098474  p :     3.289343
      px      :     1.102791
      py      :     1.088078
      dz2     :     0.006836  d :     0.061743
      dxz     :     0.013132
      dyz     :     0.013136
      dx2y2   :     0.016207
      dxy     :     0.012432

  1 C s       :     2.942039  s :     2.942039
      pz      :     1.050931  p :     3.167545
      px      :     1.051082
      py      :     1.065532
      dz2     :     0.010437  d :     0.081541
      dxz     :     0.016857
      dyz     :     0.016708
      dx2y2   :     0.021254
      dxy     :     0.016285

  2 C s       :     2.923101  s :     2.923101
      pz      :     1.100553  p :     3.286522
      px      :     1.045244
      py      :     1.140725
      dz2     :     0.008194  d :     0.081314
      dxz     :     0.023637
      dyz     :     0.019225
      dx2y2   :     0.023642
      dxy     :     0.006616

  3 C s       :     2.942038  s :     2.942038
      pz      :     1.051050  p :     3.167535
      px      :     1.051112
      py      :     1.065373
      dz2     :     0.010449  d :     0.081540
      dxz     :     0.016869
      dyz     :     0.016703
      dx2y2   :     0.021243
      dxy     :     0.016276

  4 C s       :     2.984404  s :     2.984404
      pz      :     1.098555  p :     3.289357
      px      :     1.102792
      py      :     1.088010
      dz2     :     0.006848  d :     0.061742
      dxz     :     0.013147
      dyz     :     0.013130
      dx2y2   :     0.016195
      dxy     :     0.012424

  5 H s       :     0.789936  s :     0.789936
      pz      :     0.016135  p :     0.046294
      px      :     0.021989
      py      :     0.008170

  6 H s       :     0.791147  s :     0.791147
      pz      :     0.021029  p :     0.046022
      px      :     0.007652
      py      :     0.017342

  7 H s       :     0.784267  s :     0.784267
      pz      :     0.021047  p :     0.045396
      px      :     0.007648
      py      :     0.016700

  8 H s       :     0.776584  s :     0.776584
      pz      :     0.011127  p :     0.043829
      px      :     0.008182
      py      :     0.024520

  9 H s       :     0.786344  s :     0.786344
      pz      :     0.018852  p :     0.042945
      px      :     0.006848
      py      :     0.017244

 10 H s       :     0.784266  s :     0.784266
      pz      :     0.021059  p :     0.045395
      px      :     0.007647
      py      :     0.016690

 11 H s       :     0.789936  s :     0.789936
      pz      :     0.016135  p :     0.046293
      px      :     0.021985
      py      :     0.008173

 12 H s       :     0.791152  s :     0.791152
      pz      :     0.021045  p :     0.046023
      px      :     0.007649
      py      :     0.017330


---------------------------------
LOEWDIN BOND ORDERS (THRESH 0.050000)
---------------------------------
B(  0-C ,  1-C ) :   2.0765 B(  0-C ,  2-C ) :   0.1040 B(  0-C ,  5-H ) :   0.9137 
B(  0-C ,  6-H ) :   0.9123 B(  0-C ,  7-H ) :   0.0588 B(  1-C ,  2-C ) :   1.1079 
B(  1-C ,  3-C ) :   0.0838 B(  1-C ,  5-H ) :   0.0669 B(  1-C ,  6-H ) :   0.0596 
B(  1-C ,  7-H ) :   0.8738 B(  2-C ,  3-C ) :   1.1079 B(  2-C ,  4-C ) :   0.1040 
B(  2-C ,  8-H ) :   0.8608 B(  2-C ,  9-H ) :   0.8830 B(  3-C ,  4-C ) :   2.0765 
B(  3-C , 10-H ) :   0.8738 B(  3-C , 11-H ) :   0.0669 B(  3-C , 12-H ) :   0.0596 
B(  4-C , 10-H ) :   0.0588 B(  4-C , 11-H ) :   0.9137 B(  4-C , 12-H ) :   0.9123 


------------------------------------------
LOEWDIN REDUCED ORBITAL POPULATIONS PER MO
-------------------------------------------
THRESHOLD FOR PRINTING IS 0.1%%
                      0         1         2         3         4         5   
                 -10.03451 -10.03450 -10.03098 -10.01686 -10.01686  -0.77953
                   2.00000   2.00000   2.00000   2.00000   2.00000   2.00000
                  --------  --------  --------  --------  --------  --------
 0 C  s               0.0       0.1       0.0      48.9      50.7       7.7
 0 C  px              0.0       0.1       0.0       0.0       0.0       1.7
 0 C  py              0.0       0.1       0.0       0.0       0.0       1.2
 1 C  s              16.0      83.5       0.1       0.0       0.0      17.7
 1 C  pz              0.0       0.0       0.0       0.0       0.0       0.9
 1 C  px              0.0       0.0       0.1       0.0       0.0       0.9
 1 C  py              0.0       0.0       0.0       0.0       0.0       0.2
 2 C  s               0.0       0.1      99.5       0.0       0.0      22.5
 2 C  pz              0.0       0.1       0.0       0.0       0.0       1.8
 2 C  px              0.1       0.0       0.0       0.0       0.0       0.0
 2 C  py              0.0       0.0       0.0       0.0       0.0       0.1
 3 C  s              83.6      15.9       0.1       0.0       0.0      17.7
 3 C  pz              0.0       0.0       0.0       0.0       0.0       0.9
 3 C  px              0.0       0.0       0.1       0.0       0.0       0.9
 3 C  py              0.0       0.0       0.0       0.0       0.0       0.2
 4 C  s               0.1       0.0       0.0      50.7      48.9       7.7
 4 C  px              0.1       0.0       0.0       0.0       0.0       1.7
 4 C  py              0.1       0.0       0.0       0.0       0.0       1.2
 5 H  s               0.0       0.0       0.0       0.0       0.0       0.8
 6 H  s               0.0       0.0       0.0       0.0       0.0       0.9
 7 H  s               0.0       0.0       0.0       0.0       0.0       2.1
 7 H  pz              0.0       0.0       0.0       0.0       0.0       0.1
 8 H  s               0.0       0.0       0.0       0.0       0.0       2.8
 8 H  py              0.0       0.0       0.0       0.0       0.0       0.2
 9 H  s               0.0       0.0       0.0       0.0       0.0       2.9
 9 H  pz              0.0       0.0       0.0       0.0       0.0       0.2
 9 H  py              0.0       0.0       0.0       0.0       0.0       0.1
10 H  s               0.0       0.0       0.0       0.0       0.0       2.1
10 H  pz              0.0       0.0       0.0       0.0       0.0       0.1
11 H  s               0.0       0.0       0.0       0.0       0.0       0.8
12 H  s               0.0       0.0       0.0       0.0       0.0       0.9

                      6         7         8         9        10        11   
                  -0.72477  -0.64609  -0.52929  -0.52007  -0.43490  -0.43183
                   2.00000   2.00000   2.00000   2.00000   2.00000   2.00000
                  --------  --------  --------  --------  --------  --------
 0 C  s              16.7      13.7       7.3       2.1       0.9       0.0
 0 C  pz              0.1       0.1       0.3       2.2       1.0      10.7
 0 C  px              1.1       0.3       4.2       0.7      12.3       5.6
 0 C  py              1.2       0.1       4.9       3.5       1.5       1.0
 0 C  dxy             0.2       0.0       0.0       0.0       0.1       0.0
 1 C  s              14.9       0.3       7.7       4.9       0.7       0.0
 1 C  pz              0.0       0.9       0.3       7.5       1.1      11.3
 1 C  px              2.8      11.1       1.1       0.1       0.2       2.2
 1 C  py              1.4       3.3       3.8       3.2       7.2       1.9
 1 C  dxz             0.0       0.1       0.0       0.0       0.0       0.0
 1 C  dxy             0.2       0.1       0.0       0.0       0.0       0.0
 2 C  s               0.0      16.6       0.0       4.4       0.7       0.0
 2 C  pz              0.0       0.3       0.0      12.1       0.2       0.0
 2 C  px              7.9       0.0       8.6       0.0       0.0       9.5
 2 C  py              0.0       0.5       0.0       1.0      21.0       0.0
 2 C  dxz             0.2       0.0       0.4       0.0       0.0       0.1
 2 C  dx2y2           0.0       0.0       0.0       0.1       0.1       0.0
 3 C  s              14.9       0.3       7.7       4.9       0.7       0.0
 3 C  pz              0.0       0.9       0.3       7.6       1.1      11.3
 3 C  px              2.8      11.1       1.1       0.1       0.2       2.2
 3 C  py              1.4       3.3       3.8       3.2       7.2       1.9
 3 C  dxz             0.0       0.1       0.0       0.0       0.0       0.0
 3 C  dxy             0.2       0.1       0.0       0.0       0.0       0.0
 4 C  s              16.7      13.7       7.3       2.1       0.9       0.0
 4 C  pz              0.1       0.1       0.3       2.2       1.0      10.7
 4 C  px              1.1       0.3       4.3       0.7      12.2       5.7
 4 C  py              1.2       0.1       4.9       3.5       1.5       1.0
 4 C  dxy             0.2       0.0       0.0       0.0       0.1       0.0
 5 H  s               2.4       3.5       4.8       0.7       6.7       4.9
 5 H  pz              0.1       0.1       0.1       0.0       0.1       0.0
 5 H  px              0.1       0.2       0.2       0.0       0.1       0.2
 6 H  s               2.3       2.7       5.2       3.5       0.3       2.9
 6 H  pz              0.1       0.1       0.2       0.1       0.0       0.0
 6 H  py              0.1       0.1       0.1       0.1       0.0       0.1
 7 H  s               2.1       0.0       4.7       7.1       1.1       4.0
 7 H  pz              0.1       0.0       0.2       0.2       0.0       0.1
 7 H  py              0.1       0.0       0.1       0.2       0.0       0.1
 8 H  s               0.0       4.7       0.0       2.1       9.3       0.0
 8 H  pz              0.0       0.1       0.0       0.0       0.1       0.0
 8 H  py              0.0       0.4       0.0       0.2       0.2       0.0
 9 H  s               0.0       3.2       0.0       7.1       1.1       0.0
 9 H  pz              0.0       0.2       0.0       0.2       0.1       0.0
 9 H  px              0.0       0.0       0.0       0.0       0.0       0.1
 9 H  py              0.0       0.2       0.0       0.2       0.0       0.0
10 H  s               2.1       0.0       4.7       7.1       1.1       4.0
10 H  pz              0.1       0.0       0.2       0.2       0.0       0.1
10 H  py              0.1       0.0       0.1       0.2       0.0       0.1
11 H  s               2.4       3.5       4.8       0.7       6.6       5.0
11 H  pz              0.1       0.1       0.1       0.0       0.1       0.0
11 H  px              0.1       0.2       0.2       0.0       0.1       0.2
12 H  s               2.3       2.7       5.2       3.5       0.3       2.9
12 H  pz              0.1       0.1       0.2       0.1       0.0       0.0
12 H  py              0.1       0.1       0.1       0.1       0.0       0.1

                     12        13        14        15        16        17   
                  -0.39753  -0.36769  -0.35440  -0.31074  -0.31020  -0.24217
                   2.00000   2.00000   2.00000   2.00000   2.00000   2.00000
                  --------  --------  --------  --------  --------  --------
 0 C  s               0.2       0.5       0.1       0.0       0.3       0.0
 0 C  pz              3.4       1.9      10.1       3.9       3.5       6.6
 0 C  px              0.3       6.8       4.4       5.4       0.2       7.8
 0 C  py             10.0       7.8       0.0       2.2       1.4       8.3
 0 C  dxz             0.0       0.1       0.1       0.2       0.0       0.1
 0 C  dyz             0.0       0.0       0.0       0.3       0.2       0.1
 0 C  dx2y2           0.0       0.0       0.2       0.2       0.2       0.0
 1 C  s               0.0       0.3       0.1       0.0       0.3       0.3
 1 C  pz              0.3       0.1       1.7      10.2       5.6       9.2
 1 C  px             11.5       6.8       2.2       1.2       1.0       1.7
 1 C  py              0.4      12.0       0.9       0.0       4.3       7.4
 1 C  dz2             0.0       0.1       0.0       0.0       0.2       0.0
 1 C  dxz             0.0       0.1       0.2       0.2       0.0       0.0
 1 C  dyz             0.0       0.0       0.0       0.2       0.4       0.0
 1 C  dx2y2           0.0       0.0       0.1       0.2       0.2       0.3
 1 C  dxy             0.0       0.1       0.1       0.0       0.1       0.0
 2 C  s               0.3       0.0       0.9       0.0       0.9       0.1
 2 C  pz             24.1       0.0       0.0       0.0      14.2       2.2
 2 C  px              0.0       7.6       0.0      16.5       0.0       0.0
 2 C  py              1.5       0.0      23.3       0.0       5.8       3.8
 2 C  dz2             0.0       0.0       0.2       0.0       0.1       0.0
 2 C  dxz             0.0       0.3       0.0       0.1       0.0       0.0
 2 C  dyz             0.0       0.0       0.2       0.0       0.5       0.2
 2 C  dx2y2           0.2       0.0       0.0       0.0       0.1       0.6
 2 C  dxy             0.0       0.1       0.0       0.0       0.0       0.0
 3 C  s               0.0       0.3       0.1       0.0       0.3       0.3
 3 C  pz              0.3       0.1       1.7      10.4       5.4       9.1
 3 C  px             11.5       6.8       2.2       1.3       1.0       1.7
 3 C  py              0.4      11.9       0.9       0.0       4.3       7.4
 3 C  dz2             0.0       0.1       0.0       0.0       0.2       0.0
 3 C  dxz             0.0       0.1       0.2       0.2       0.0       0.0
 3 C  dyz             0.0       0.0       0.0       0.3       0.3       0.0
 3 C  dx2y2           0.0       0.0       0.1       0.2       0.2       0.3
 3 C  dxy             0.0       0.1       0.1       0.0       0.1       0.0
 4 C  s               0.2       0.5       0.1       0.0       0.3       0.0
 4 C  pz              3.4       1.9      10.1       4.0       3.4       6.6
 4 C  px              0.3       6.8       4.4       5.4       0.2       7.8
 4 C  py             10.0       7.7       0.0       2.3       1.4       8.3
 4 C  dxz             0.0       0.1       0.1       0.3       0.0       0.1
 4 C  dyz             0.0       0.0       0.0       0.3       0.2       0.1
 4 C  dx2y2           0.0       0.0       0.2       0.2       0.1       0.0
 5 H  s               0.0       1.1       6.5       6.2       1.3       0.3
 6 H  s               5.7       3.8       3.2       5.5       3.5       0.1
 6 H  pz              0.1       0.1       0.0       0.0       0.0       0.1
 6 H  py              0.0       0.0       0.1       0.0       0.0       0.1
 7 H  s               0.0       3.9       0.0       4.8       9.4       0.0
 7 H  pz              0.0       0.1       0.0       0.0       0.0       0.1
 7 H  px              0.1       0.1       0.0       0.0       0.0       0.0
 8 H  s               5.1       0.0       6.7       0.0       0.9       7.2
 8 H  pz              0.0       0.0       0.1       0.0       0.2       0.0
 8 H  px              0.0       0.1       0.0       0.2       0.0       0.0
 8 H  py              0.2       0.0       0.0       0.0       0.0       0.0
 9 H  s               3.6       0.0       8.0       0.0      13.4       0.0
 9 H  pz              0.0       0.0       0.3       0.0       0.0       0.0
 9 H  px              0.0       0.0       0.0       0.2       0.0       0.0
 9 H  py              0.3       0.0       0.0       0.0       0.1       0.0
10 H  s               0.0       3.9       0.0       5.0       9.2       0.0
10 H  pz              0.0       0.1       0.0       0.0       0.0       0.1
10 H  px              0.1       0.1       0.0       0.0       0.0       0.0
11 H  s               0.0       1.1       6.4       6.3       1.2       0.3
12 H  s               5.7       3.8       3.2       5.6       3.4       0.1
12 H  pz              0.1       0.1       0.0       0.0       0.0       0.1
12 H  py              0.0       0.0       0.1       0.0       0.0       0.1

                     18        19        20        21        22        23   
                  -0.23805  -0.02559   0.00311   0.11044   0.12752   0.13221
                   2.00000   0.00000   0.00000   0.00000   0.00000   0.00000
                  --------  --------  --------  --------  --------  --------
 0 C  s               0.0       0.0       0.0      12.8      10.4       0.3
 0 C  pz             11.1       8.0       7.6       0.1       0.7       6.1
 0 C  px              4.2       5.1       5.2       1.1       0.6       2.2
 0 C  py             11.2      10.0       7.3       0.3       0.9       3.4
 0 C  dz2             0.0       0.0       0.0       0.0       0.2       0.1
 0 C  dxz             0.0       0.2       0.1       0.2       0.1       0.0
 0 C  dyz             0.0       0.1       0.0       0.3       0.1       0.5
 0 C  dx2y2           0.3       0.2       0.7       0.1       0.0       0.1
 1 C  s               0.2       0.3       0.7       9.7       7.1       1.9
 1 C  pz              3.5       9.1       5.9       2.9       1.4       3.4
 1 C  px              9.6       3.4       8.9       0.2       4.2       0.4
 1 C  py              7.2       8.4       9.8       1.0       1.7       1.0
 1 C  dz2             0.0       0.0       0.1       0.0       0.3       0.6
 1 C  dxz             0.2       0.2       0.1       0.3       0.3       0.1
 1 C  dyz             0.1       0.0       0.1       0.0       0.0       0.3
 1 C  dx2y2           0.1       0.4       0.2       0.1       0.0       0.4
 1 C  dxy             0.0       0.0       0.0       0.2       0.0       0.4
 2 C  s               0.0       0.1       0.0      16.4       0.0       1.8
 2 C  pz              0.0       0.2       0.0       2.9       0.0      10.9
 2 C  px              2.0       0.0       1.2       0.0      20.4       0.0
 2 C  py              0.0       0.1       0.0       0.4       0.0       7.6
 2 C  dz2             0.0       0.3       0.0       0.1       0.0       0.2
 2 C  dxz             0.2       0.0       0.5       0.0       1.9       0.0
 2 C  dyz             0.0       0.4       0.0       0.1       0.0       1.1
 2 C  dx2y2           0.0       0.7       0.0       0.0       0.0       0.8
 2 C  dxy             0.1       0.0       0.5       0.0       0.1       0.0
 3 C  s               0.2       0.3       0.7       9.7       7.1       1.9
 3 C  pz              3.4       9.1       5.9       2.9       1.4       3.4
 3 C  px              9.6       3.4       8.9       0.2       4.2       0.4
 3 C  py              7.2       8.5       9.8       1.0       1.7       1.0
 3 C  dz2             0.0       0.0       0.1       0.0       0.3       0.6
 3 C  dxz             0.2       0.2       0.1       0.3       0.3       0.1
 3 C  dyz             0.1       0.0       0.1       0.0       0.0       0.3
 3 C  dx2y2           0.1       0.4       0.2       0.1       0.0       0.4
 3 C  dxy             0.0       0.0       0.0       0.2       0.0       0.4
 4 C  s               0.0       0.0       0.0      12.8      10.5       0.3
 4 C  pz             11.0       8.0       7.6       0.1       0.7       6.1
 4 C  px              4.2       5.1       5.2       1.1       0.6       2.2
 4 C  py             11.2      10.0       7.3       0.3       0.9       3.4
 4 C  dz2             0.0       0.0       0.0       0.0       0.2       0.1
 4 C  dxz             0.0       0.2       0.1       0.2       0.1       0.0
 4 C  dyz             0.0       0.1       0.0       0.3       0.1       0.5
 4 C  dx2y2           0.3       0.2       0.7       0.1       0.0       0.1
 5 H  s               0.3       0.1       0.1       2.1       1.3       0.1
 5 H  pz              0.1       0.2       0.2       0.4       0.7       0.0
 5 H  px              0.1       0.1       0.2       0.4       0.2       0.2
 5 H  py              0.1       0.3       0.2       0.0       0.2       0.2
 6 H  s               0.1       0.0       0.0       0.8       3.1       4.4
 6 H  pz              0.1       0.2       0.2       0.1       1.1       0.9
 6 H  px              0.0       0.1       0.1       0.2       0.2       0.1
 6 H  py              0.1       0.2       0.3       0.0       0.2       0.4
 7 H  s               0.1       0.0       0.1       1.5       1.5       2.4
 7 H  pz              0.0       0.3       0.2       0.3       1.0       0.6
 7 H  px              0.1       0.1       0.3       0.0       0.3       0.0
 7 H  py              0.1       0.2       0.3       0.5       0.0       0.3
 8 H  s               0.0       2.9       0.0       4.0       0.0       0.0
 8 H  pz              0.0       0.1       0.0       0.2       0.0       0.6
 8 H  px              0.0       0.0       0.2       0.0       0.5       0.0
 8 H  py              0.0       0.0       0.0       1.8       0.0       0.1
 9 H  s               0.0       0.0       0.0       1.7       0.0      11.9
 9 H  pz              0.0       0.0       0.0       0.2       0.0       1.2
 9 H  px              0.0       0.0       0.0       0.0       1.3       0.0
 9 H  py              0.0       0.0       0.0       0.8       0.0       2.5
10 H  s               0.1       0.0       0.1       1.5       1.5       2.4
10 H  pz              0.0       0.3       0.2       0.3       1.0       0.6
10 H  px              0.1       0.1       0.3       0.0       0.3       0.0
10 H  py              0.1       0.2       0.3       0.5       0.0       0.3
11 H  s               0.3       0.1       0.1       2.1       1.3       0.1
11 H  pz              0.1       0.2       0.2       0.4       0.7       0.0
11 H  px              0.1       0.1       0.2       0.4       0.2       0.2
11 H  py              0.1       0.3       0.2       0.0       0.2       0.2
12 H  s               0.1       0.0       0.0       0.8       3.1       4.4
12 H  pz              0.1       0.2       0.2       0.1       1.1       0.9
12 H  px              0.0       0.1       0.2       0.2       0.2       0.1
12 H  py              0.1       0.2       0.3       0.0       0.2       0.4

                     24        25        26        27        28        29   
                   0.14292   0.15992   0.17272   0.17712   0.18151   0.18783
                   0.00000   0.00000   0.00000   0.00000   0.00000   0.00000
                  --------  --------  --------  --------  --------  --------
 0 C  s               6.8       4.7       6.1       2.0       2.2       1.5
 0 C  pz              0.1       1.4       1.8      11.0       1.4       0.1
 0 C  px              3.0       2.3       9.1       9.3       1.2      15.6
 0 C  py              2.0       2.1      13.4       0.5       0.7       0.4
 0 C  dz2             0.0       0.0       0.1       0.2       0.1       0.0
 0 C  dxz             0.2       0.0       0.2       0.2       0.0       0.5
 0 C  dyz             0.0       0.7       0.1       0.6       0.2       0.1
 0 C  dx2y2           0.1       0.0       0.1       0.4       0.0       0.5
 0 C  dxy             0.2       0.0       0.4       0.0       0.2       0.3
 1 C  s               9.0       0.7       5.0       1.3       1.0       4.7
 1 C  pz              1.0       1.3       1.1       3.5       8.7       0.3
 1 C  px              0.3       6.3       0.3       0.7       1.1       1.2
 1 C  py             10.1       0.4       0.9       1.0       2.1       2.3
 1 C  dz2             0.2       0.0       0.0       0.0       0.1       0.0
 1 C  dxz             0.1       0.9       0.0       0.5       0.1       0.0
 1 C  dyz             1.0       0.1       0.6       0.6       0.0       0.2
 1 C  dx2y2           0.0       0.1       0.0       0.5       0.0       0.2
 1 C  dxy             0.6       0.2       0.1       0.1       0.7       0.2
 2 C  s               0.1      10.5       0.0       0.0       4.5       0.6
 2 C  pz              8.6      12.0       0.0       0.0       1.8      10.2
 2 C  px              0.0       0.0       0.5       5.7       0.0       0.0
 2 C  py              0.2       8.0       0.0       0.0      22.8       3.1
 2 C  dz2             0.1       0.5       0.0       0.0       0.2       0.2
 2 C  dxz             0.0       0.0       0.3       0.5       0.0       0.0
 2 C  dyz             0.2       0.5       0.0       0.0       1.0       0.0
 2 C  dx2y2           1.1       0.5       0.0       0.0       0.9       0.6
 2 C  dxy             0.0       0.0       0.0       0.2       0.0       0.0
 3 C  s               9.0       0.7       5.0       1.3       0.9       4.7
 3 C  pz              1.0       1.3       1.1       3.5       8.6       0.3
 3 C  px              0.3       6.3       0.3       0.7       1.1       1.2
 3 C  py             10.1       0.4       0.9       1.0       2.1       2.3
 3 C  dz2             0.2       0.0       0.0       0.0       0.1       0.0
 3 C  dxz             0.1       0.9       0.0       0.5       0.1       0.0
 3 C  dyz             1.0       0.1       0.6       0.6       0.0       0.2
 3 C  dx2y2           0.0       0.1       0.0       0.5       0.0       0.2
 3 C  dxy             0.6       0.2       0.1       0.1       0.7       0.2
 4 C  s               6.8       4.7       6.1       2.0       2.2       1.6
 4 C  pz              0.1       1.4       1.8      11.0       1.4       0.1
 4 C  px              3.0       2.3       9.1       9.3       1.2      15.6
 4 C  py              2.0       2.1      13.4       0.5       0.7       0.4
 4 C  dz2             0.0       0.0       0.1       0.2       0.1       0.0
 4 C  dxz             0.2       0.0       0.2       0.2       0.0       0.5
 4 C  dyz             0.0       0.7       0.1       0.6       0.2       0.1
 4 C  dx2y2           0.1       0.0       0.1       0.4       0.0       0.5
 4 C  dxy             0.2       0.0       0.4       0.0       0.2       0.3
 5 H  s               0.5       0.8       0.5       4.6       0.0       7.4
 5 H  pz              0.0       0.3       0.0       0.4       0.1       0.8
 5 H  px              0.1       0.4       0.3       1.9       0.0       1.5
 5 H  py              0.2       0.1       0.1       0.2       0.1       0.0
 6 H  s               0.1       4.4       2.1       2.9       0.1       0.7
 6 H  pz              0.1       0.6       0.5       0.4       0.0       0.1
 6 H  px              0.3       0.0       0.2       0.0       0.1       0.1
 6 H  py              0.4       0.6       1.3       0.3       0.1       0.0
 7 H  s               4.1       0.5       3.5       2.2       0.4       1.0
 7 H  pz              0.7       0.2       0.9       0.2       0.2       0.0
 7 H  px              0.0       1.0       0.0       0.0       0.2       0.1
 7 H  py              1.2       0.0       0.7       0.7       0.0       0.0
 8 H  s               0.6       2.5       0.0       0.0      18.7       1.8
 8 H  pz              0.5       0.2       0.0       0.0       0.8       0.0
 8 H  px              0.0       0.0       0.1       0.3       0.0       0.0
 8 H  py              0.4       0.2       0.0       0.0       5.6       0.5
 9 H  s               2.8       2.2       0.0       0.0       1.0       1.9
 9 H  pz              0.1       2.5       0.0       0.0       0.9       1.1
 9 H  px              0.0       0.0       0.1       0.5       0.0       0.0
 9 H  py              0.5       0.0       0.0       0.0       0.2       0.0
10 H  s               4.1       0.5       3.5       2.2       0.4       1.0
10 H  pz              0.7       0.2       0.9       0.2       0.2       0.0
10 H  px              0.0       1.0       0.0       0.0       0.2       0.1
10 H  py              1.2       0.0       0.7       0.7       0.0       0.0
11 H  s               0.5       0.8       0.5       4.6       0.0       7.4
11 H  pz              0.0       0.3       0.0       0.4       0.1       0.8
11 H  px              0.1       0.4       0.3       1.9       0.0       1.5
11 H  py              0.2       0.1       0.1       0.2       0.1       0.0
12 H  s               0.1       4.4       2.1       2.9       0.1       0.7
12 H  pz              0.1       0.6       0.5       0.4       0.0       0.1
12 H  px              0.3       0.0       0.2       0.0       0.1       0.1
12 H  py              0.4       0.6       1.3       0.3       0.1       0.0

                     30        31        32        33        34        35   
                   0.21450   0.21461   0.22953   0.25052   0.25524   0.26404
                   0.00000   0.00000   0.00000   0.00000   0.00000   0.00000
                  --------  --------  --------  --------  --------  --------
 0 C  s               0.3       7.8       0.8       6.1       2.8       1.7
 0 C  pz              1.7       2.1      13.2       0.1       4.4       7.0
 0 C  px              2.5       1.3       3.6       6.6       2.5       2.7
 0 C  py             20.8       2.9       0.5       7.6      11.1       1.9
 0 C  dz2             0.4       0.0       0.0       0.0       0.3       0.0
 0 C  dxz             0.0       1.3       0.6       0.4       0.1       0.5
 0 C  dyz             0.3       0.7       0.0       0.2       0.2       0.0
 0 C  dx2y2           0.1       0.0       0.1       0.0       0.0       0.5
 0 C  dxy             0.3       0.2       0.0       0.6       0.6       0.1
 1 C  s               0.3       4.1       1.2       2.0       0.4       0.8
 1 C  pz              0.3       2.7       3.3       6.8       1.8      11.6
 1 C  px              7.1       2.7       0.8       2.1       2.2       4.2
 1 C  py              0.4       4.4       6.5       0.5       2.9       0.1
 1 C  dz2             0.0       0.1       0.0       0.3       0.2       0.0
 1 C  dxz             0.3       0.1       0.3       0.0       0.1       0.2
 1 C  dyz             0.1       0.4       0.1       0.1       0.5       0.2
 1 C  dx2y2           0.1       0.1       0.2       0.1       0.0       0.6
 1 C  dxy             0.2       0.0       0.2       0.1       0.0       0.0
 2 C  s               0.9       0.0       3.5       0.2       0.0       0.0
 2 C  pz             16.0       0.0       2.7      11.3       0.0       0.0
 2 C  px              0.0       5.5       0.0       0.0       3.7      12.8
 2 C  py              0.4       0.0       4.3       1.0       0.0       0.0
 2 C  dz2             0.0       0.0       0.1       0.2       0.0       0.0
 2 C  dxz             0.0       0.0       0.0       0.0       1.0       0.5
 2 C  dyz             0.5       0.0       0.0       1.1       0.0       0.0
 2 C  dx2y2           0.2       0.0       0.3       0.8       0.0       0.0
 2 C  dxy             0.0       0.1       0.0       0.0       0.1       0.0
 3 C  s               0.2       4.2       1.2       2.0       0.4       0.8
 3 C  pz              0.4       2.6       3.3       6.8       1.8      11.7
 3 C  px              6.6       3.2       0.8       2.1       2.2       4.2
 3 C  py              0.5       4.2       6.5       0.5       2.9       0.1
 3 C  dz2             0.0       0.1       0.0       0.3       0.2       0.0
 3 C  dxz             0.4       0.1       0.3       0.0       0.1       0.2
 3 C  dyz             0.1       0.5       0.1       0.1       0.5       0.2
 3 C  dx2y2           0.1       0.1       0.2       0.1       0.0       0.6
 3 C  dxy             0.2       0.0       0.2       0.1       0.0       0.0
 4 C  s               0.6       7.6       0.8       6.1       2.8       1.7
 4 C  pz              1.8       2.0      13.2       0.1       4.4       7.0
 4 C  px              2.7       1.1       3.6       6.6       2.5       2.7
 4 C  py             20.0       3.7       0.5       7.6      11.1       1.9
 4 C  dz2             0.4       0.0       0.0       0.0       0.3       0.0
 4 C  dxz             0.1       1.3       0.6       0.4       0.1       0.5
 4 C  dyz             0.3       0.6       0.0       0.2       0.2       0.0
 4 C  dx2y2           0.1       0.0       0.1       0.0       0.0       0.5
 4 C  dxy             0.2       0.2       0.0       0.6       0.6       0.1
 5 H  s               0.2       6.2       5.4       1.4       1.4       6.7
 5 H  pz              0.2       0.8       0.4       0.0       1.0       0.2
 5 H  px              0.3       0.5       0.9       0.0       0.1       0.9
 5 H  py              0.4       0.0       0.0       0.0       0.5       0.2
 6 H  s               2.3       5.6       0.7       1.9       2.5       0.9
 6 H  pz              0.0       0.7       0.0       0.3       0.3       0.0
 6 H  px              0.1       0.2       0.4       0.0       0.5       0.3
 6 H  py              0.0       0.3       0.4       0.3       0.0       0.2
 7 H  s               0.3       1.3       1.5       1.4       8.6       1.2
 7 H  pz              0.0       0.1       0.4       0.3       1.7       0.1
 7 H  px              0.5       0.1       0.0       0.0       0.1       0.2
 7 H  py              0.2       0.0       0.1       0.0       0.6       0.0
 8 H  s               0.3       0.0       3.9       1.0       0.0       0.0
 8 H  pz              0.4       0.0       0.0       1.1       0.0       0.0
 8 H  px              0.0       0.3       0.0       0.0       0.1       0.1
 8 H  py              0.0       0.0       0.5       0.0       0.0       0.0
 9 H  s               2.1       0.0       0.3       4.4       0.0       0.0
 9 H  px              0.0       0.1       0.0       0.0       0.3       0.5
 9 H  py              0.2       0.0       0.7       0.4       0.0       0.0
10 H  s               0.2       1.3       1.5       1.4       8.5       1.2
10 H  pz              0.0       0.1       0.4       0.3       1.7       0.1
10 H  px              0.5       0.1       0.0       0.0       0.1       0.2
10 H  py              0.2       0.0       0.1       0.0       0.6       0.0
11 H  s               0.1       6.2       5.4       1.4       1.4       6.7
11 H  pz              0.2       0.8       0.4       0.0       1.0       0.2
11 H  px              0.2       0.5       0.9       0.0       0.1       0.9
11 H  py              0.4       0.0       0.0       0.0       0.5       0.2
12 H  s               2.6       5.2       0.7       1.9       2.5       0.9
12 H  pz              0.1       0.7       0.0       0.3       0.3       0.0
12 H  px              0.1       0.2       0.4       0.0       0.5       0.3
12 H  py              0.0       0.3       0.4       0.3       0.0       0.2

                     36        37        38        39        40        41   
                   0.28522   0.29166   0.30873   0.31389   0.33535   0.34655
                   0.00000   0.00000   0.00000   0.00000   0.00000   0.00000
                  --------  --------  --------  --------  --------  --------
 0 C  s               0.5       0.5       6.7       2.8       3.8       7.7
 0 C  pz              9.7      16.6       0.5       2.2       9.4       0.3
 0 C  px              0.9       2.0      15.3       0.8       2.6       1.3
 0 C  py              0.3       1.4      10.4       3.0       5.1       2.1
 0 C  dz2             0.0       0.0       0.0       0.1       0.0       0.6
 0 C  dxz             0.3       0.1       0.1       0.3       0.0       0.0
 0 C  dyz             0.1       0.2       1.2       0.4       0.3       0.0
 0 C  dx2y2           0.2       0.5       0.1       0.0       0.0       0.1
 0 C  dxy             0.0       0.1       0.4       0.0       0.2       0.5
 1 C  s               0.6       0.3       0.5       2.6       1.0       8.0
 1 C  pz              1.8       3.6       1.4       0.6       3.5       2.3
 1 C  px              2.5       0.6       1.7       2.2       0.1       1.8
 1 C  py             15.6       0.8       1.7       0.7      13.2       1.4
 1 C  dz2             0.5       0.2       0.0       0.0       0.0       0.0
 1 C  dxz             0.0       0.0       0.6       0.5       0.2       0.2
 1 C  dyz             0.0       0.1       0.3       0.7       0.2       0.4
 1 C  dx2y2           0.1       0.5       0.0       0.2       0.0       0.1
 1 C  dxy             0.0       0.2       0.0       0.0       0.0       0.7
 2 C  s               0.0       0.0       0.0       2.1       0.0       2.2
 2 C  pz              0.0       4.9       0.0      21.7       0.0       0.6
 2 C  px             11.5       0.0       7.1       0.0      12.1       0.0
 2 C  py              0.0      13.4       0.0       5.7       0.0      23.3
 2 C  dz2             0.0       0.5       0.0       0.0       0.0       0.0
 2 C  dxz             2.4       0.0       0.5       0.0       0.2       0.0
 2 C  dyz             0.0       1.2       0.0       0.3       0.0       0.0
[...]
12 H  py              1.1       3.0       1.0       0.1       6.1       5.1

                    126       127       128       129       130       131   
                   3.49023   3.59370   3.78523   3.81610  21.63054  21.77336
                   0.00000   0.00000   0.00000   0.00000   0.00000   0.00000
                  --------  --------  --------  --------  --------  --------
 0 C  s               0.3       0.1       0.0       0.0      23.8      32.2
 0 C  pz              0.0       0.1       1.3       1.2       0.0       0.0
 0 C  px              0.7       0.4       0.5       1.0       0.0       0.0
 0 C  py              0.3       0.1       0.3       0.1       0.0       0.0
 0 C  dz2             0.6       0.0       0.4       0.2       0.0       0.0
 0 C  dxz             1.9       0.9       3.1       4.2       0.0       0.0
 0 C  dyz             0.4       0.3       3.6       3.7       0.0       0.0
 0 C  dx2y2           0.1       0.9       4.4       4.3       0.0       0.0
 0 C  dxy             0.3       0.1       0.2       0.0       0.0       0.0
 1 C  s               1.0       0.0       0.1       0.1      24.1      17.7
 1 C  pz              0.1       0.1       0.5       1.1       0.0       0.0
 1 C  px              1.0       0.1       0.3       0.1       0.0       0.0
 1 C  py              0.5       0.4       0.2       0.5       0.0       0.0
 1 C  dz2             0.6       0.4       0.5       1.1       0.0       0.0
 1 C  dxz             2.4       0.0       1.1       1.2       0.0       0.0
 1 C  dyz             0.7       0.0       4.0       5.1       0.0       0.0
 1 C  dx2y2           0.3       0.8       3.0       2.7       0.0       0.0
 1 C  dxy             0.2       0.6       0.0       0.7       0.0       0.0
 2 C  s               3.5       0.1       0.2       0.0       3.8       0.0
 2 C  pz              7.4       0.3       2.6       0.0       0.0       0.0
 2 C  px              0.0       0.0       0.0       1.2       0.0       0.0
 2 C  py              1.4      10.8       1.3       0.0       0.0       0.0
 2 C  dz2             0.3       4.7       0.0       0.0       0.0       0.0
 2 C  dxz             0.0       0.0       0.0       3.0       0.0       0.0
 2 C  dyz             0.0      19.5       3.9       0.0       0.0       0.0
 2 C  dx2y2          17.9       1.3       2.1       0.0       0.0       0.0
 2 C  dxy             0.0       0.0       0.0       0.7       0.0       0.0
 3 C  s               1.0       0.0       0.1       0.1      24.1      17.7
 3 C  pz              0.1       0.1       0.5       1.1       0.0       0.0
 3 C  px              1.0       0.1       0.3       0.1       0.0       0.0
 3 C  py              0.5       0.4       0.2       0.5       0.0       0.0
 3 C  dz2             0.6       0.4       0.5       1.1       0.0       0.0
 3 C  dxz             2.4       0.0       1.1       1.2       0.0       0.0
 3 C  dyz             0.7       0.0       4.0       5.1       0.0       0.0
 3 C  dx2y2           0.3       0.8       3.0       2.7       0.0       0.0
 3 C  dxy             0.2       0.6       0.0       0.7       0.0       0.0
 4 C  s               0.3       0.1       0.0       0.0      23.8      32.1
 4 C  pz              0.0       0.1       1.3       1.2       0.0       0.0
 4 C  px              0.7       0.4       0.5       1.0       0.0       0.0
 4 C  py              0.3       0.1       0.3       0.1       0.0       0.0
 4 C  dz2             0.6       0.0       0.4       0.2       0.0       0.0
 4 C  dxz             1.9       0.9       3.1       4.2       0.0       0.0
 4 C  dyz             0.4       0.3       3.6       3.7       0.0       0.0
 4 C  dx2y2           0.1       0.9       4.4       4.3       0.0       0.0
 4 C  dxy             0.3       0.1       0.2       0.0       0.0       0.0
 5 H  s               0.8       0.5       2.3       2.6       0.0       0.0
 5 H  pz              0.6       0.5       1.8       2.1       0.0       0.0
 5 H  px              2.1       0.6       2.5       2.8       0.0       0.0
 5 H  py              0.1       0.0       0.0       0.0       0.0       0.0
 6 H  s               0.3       0.1       1.8       1.6       0.0       0.0
 6 H  pz              0.4       0.2       2.3       2.1       0.0       0.0
 6 H  px              0.1       0.1       0.2       0.3       0.0       0.0
 6 H  py              0.6       0.0       1.1       1.0       0.0       0.0
 7 H  s               0.5       0.2       1.5       2.3       0.0       0.0
 7 H  pz              1.0       0.4       2.4       3.2       0.0       0.0
 7 H  px              0.0       0.0       0.3       0.2       0.0       0.0
 7 H  py              1.1       0.1       1.1       1.9       0.0       0.0
 8 H  s               4.6       6.8       0.1       0.0       0.0       0.0
 8 H  pz              1.5       4.7       0.2       0.0       0.0       0.0
 8 H  px              0.0       0.0       0.0       0.4       0.0       0.0
 8 H  py             15.9      11.3       0.1       0.0       0.0       0.0
 9 H  s               1.7       6.9       2.6       0.0       0.0       0.0
 9 H  pz              2.0      10.2       3.1       0.0       0.0       0.0
 9 H  px              0.0       0.0       0.0       0.2       0.0       0.0
 9 H  py              5.9       7.5       1.8       0.0       0.0       0.0
10 H  s               0.5       0.2       1.5       2.3       0.0       0.0
10 H  pz              1.0       0.4       2.4       3.2       0.0       0.0
10 H  px              0.0       0.0       0.3       0.2       0.0       0.0
10 H  py              1.1       0.1       1.1       1.9       0.0       0.0
11 H  s               0.8       0.5       2.3       2.6       0.0       0.0
11 H  pz              0.6       0.5       1.8       2.1       0.0       0.0
11 H  px              2.1       0.6       2.5       2.8       0.0       0.0
11 H  py              0.1       0.0       0.0       0.0       0.0       0.0
12 H  s               0.3       0.1       1.8       1.6       0.0       0.0
12 H  pz              0.4       0.2       2.3       2.1       0.0       0.0
12 H  px              0.1       0.1       0.2       0.3       0.0       0.0
12 H  py              0.6       0.0       1.1       1.0       0.0       0.0

                    132       133       134   
                  21.98703  22.11491  22.18404
                   0.00000   0.00000   0.00000
                  --------  --------  --------
 0 C  s               0.0      26.0      17.7
 1 C  s               3.4      22.3      32.1
 2 C  s              92.9       2.9       0.0
 3 C  s               3.4      22.3      32.1
 4 C  s               0.0      26.0      17.7


                      *****************************
                      * MAYER POPULATION ANALYSIS *
                      *****************************

  NA   - Mulliken gross atomic population
  ZA   - Total nuclear charge
  QA   - Mulliken gross atomic charge
  VA   - Mayer's total valence
  BVA  - Mayer's bonded valence
  FA   - Mayer's free valence

  ATOM       NA         ZA         QA         VA         BVA        FA
  0 C      6.4269     6.0000    -0.4269     3.9147     3.9147     0.0000
  1 C      6.1197     6.0000    -0.1197     3.6393     3.6393    -0.0000
  2 C      6.2835     6.0000    -0.2835     3.7730     3.7730    -0.0000
  3 C      6.1198     6.0000    -0.1198     3.6394     3.6394     0.0000
  4 C      6.4269     6.0000    -0.4269     3.9147     3.9147     0.0000
  5 H      0.8328     1.0000     0.1672     0.9636     0.9636     0.0000
  6 H      0.8328     1.0000     0.1672     0.9633     0.9633     0.0000
  7 H      0.8177     1.0000     0.1823     0.9554     0.9554    -0.0000
  8 H      0.8205     1.0000     0.1795     0.9506     0.9506    -0.0000
  9 H      0.8362     1.0000     0.1638     0.9664     0.9664    -0.0000
 10 H      0.8177     1.0000     0.1823     0.9554     0.9554     0.0000
 11 H      0.8328     1.0000     0.1672     0.9636     0.9636    -0.0000
 12 H      0.8328     1.0000     0.1672     0.9633     0.9633     0.0000

  Mayer bond orders larger than 0.100000
B(  0-C ,  1-C ) :   1.9138 B(  0-C ,  5-H ) :   0.9614 B(  0-C ,  6-H ) :   0.9766 
B(  1-C ,  2-C ) :   0.8998 B(  1-C ,  7-H ) :   0.9261 B(  2-C ,  3-C ) :   0.8999 
B(  2-C ,  8-H ) :   0.9536 B(  2-C ,  9-H ) :   1.0059 B(  3-C ,  4-C ) :   1.9138 
B(  3-C , 10-H ) :   0.9261 B(  4-C , 11-H ) :   0.9614 B(  4-C , 12-H ) :   0.9766 


-------
TIMINGS
-------

Total SCF time: 0 days 0 hours 0 min 12 sec 

Total time                  ....      12.599 sec
Sum of individual times     ....      12.104 sec  ( 96.1%)

SCF preparation             ....       0.236 sec  (  1.9%)
Fock matrix formation       ....      11.041 sec  ( 87.6%)
  Startup                   ....       0.060 sec  (  0.5% of F)
  Split-RI-J                ....       1.317 sec  ( 11.9% of F)
  XC integration            ....       7.497 sec  ( 67.9% of F)
    Basis function eval.    ....       1.464 sec  ( 19.5% of XC)
    Density eval.           ....       1.791 sec  ( 23.9% of XC)
    XC-Functional eval.     ....       1.375 sec  ( 18.3% of XC)
    XC-Potential eval.      ....       2.146 sec  ( 28.6% of XC)
  CPCM terms                ....       1.707 sec  ( 15.5% of F)
Diagonalization             ....       0.000 sec  (  0.0%)
Density matrix formation    ....       0.181 sec  (  1.4%)
Total Energy calculation    ....       0.040 sec  (  0.3%)
Population analysis         ....       0.069 sec  (  0.5%)
Orbital Transformation      ....       0.055 sec  (  0.4%)
Orbital Orthonormalization  ....       0.000 sec  (  0.0%)
DIIS solution               ....       0.355 sec  (  2.8%)
  MO trafo                  ....       0.000 sec  (  0.0 % of DIIS)
  Orb grad                  ....       0.000 sec  (  0.0 % of DIIS)
  Energy W gradient         ....       0.000 sec  (  0.0 % of DIIS)
  DIIS error                ....       0.003 sec  (  0.9 % of DIIS)
  DIIS work                 ....       0.311 sec  ( 87.7 % of DIIS)
  Form Q                    ....       0.000 sec  (  0.0 % of DIIS)
  Form QpQm                 ....       0.000 sec  (  0.0 % of DIIS)
  Exp/Cayley                ....       0.000 sec  (  0.0 % of DIIS)
  Orb update                ....       0.000 sec  (  0.0 % of DIIS)
  Wake-sleep                ....       0.014 sec  (  3.9 % of DIIS)
SOSCF solution              ....       0.127 sec  (  1.0%)
  MO trafo                  ....       0.051 sec  ( 40.2 % of SOSCF)
  Orb grad                  ....       0.002 sec  (  1.4 % of SOSCF)
  Rot update                ....       0.050 sec  ( 39.1 % of SOSCF)
  Step                      ....       0.024 sec  ( 19.2 % of SOSCF)
Finished LeanSCF after  13.1 sec

Maximum memory used throughout the entire LEANSCF-calculation: 16.4 MB


-------------------------------------------------------------------------------
                          DFT DISPERSION CORRECTION                            
                                                                               
                                DFTD4 V3.4.0                                   
-------------------------------------------------------------------------------
The R2SCAN3C composite method is recognized
Using three-body term ABC
Active option DFTDOPT                   ...         5   

-------------------------   ----------------
Dispersion correction           -0.002841427
-------------------------   ----------------

------------------   -----------------
gCP correction             0.003800898
------------------   -----------------

-------------------------   --------------------
FINAL SINGLE POINT ENERGY      -195.226650366445
-------------------------   --------------------


------------------------------------------------------------------------------
                              ORCA PROPERTY CALCULATIONS
------------------------------------------------------------------------------

GBWName                                 ... sp_solv.gbw
Number of atoms                         ...     13
Number of basis functions               ...    135
Max core memory                         ...   1024 MB

Electric properties:
Dipole moment                           ... YES
Quadrupole moment                       ...  NO
Static polarizability (Dipole/Dipole)   ...  NO
Static polarizability (Dipole/Quad.)    ...  NO
Static polarizability (Quad./Quad.)     ...  NO
Static polarizability (Velocity)        ...  NO

Atomic electric properties:
Dipole moment                           ...  NO
Quadrupole moment                       ...  NO
Static polarizability                   ...  NO

Choice of electric origin               ... Center of mass
Position of electric origin             ...    -0.000000     0.000001    -0.000000

General magnetic properties:
Magnetizability                         ...  NO

EPR properties:
g-Tensor (aka g-matrix)                 ...  NO
Zero-Field splitting spin-orbit         ...  NO
Zero-field splitting spin-spin          ...  NO
Hyperfine couplings                     ...  NO (   0 nuclei)
Quadrupole couplings                    ...  NO (   0 nuclei)
Contact density                         ...  NO (   0 nuclei)

NMR properties:
Chemical shifts                         ...  NO (   0 nuclei)
Spin-rotation constants                 ...  NO (   0 nuclei)
Spin-spin couplings                     ...  NO (   0 nuclei,    0 pairs)

Choice of magnetic origin               ... GIAO
Position of magnetic origin             ...     0.000000     0.000000     0.000000

Properties with geometric perturbations:
SCF Hessian                             ...  NO
IR spectrum                             ...  NO
VCD spectrum                            ...  NO
X-ray spectroscopy properties:
SCF XES/XAS/RIXS spectra                ...  NO


-------------
DIPOLE MOMENT
-------------

Method             : SCF
Type of density    : Electron Density
Multiplicity       :   1
Irrep              :   0
Energy             :  -195.2276098370782620 Eh
Relativity type    : 
Basis              : AO
                                X                 Y                 Z
Electronic contribution:      0.000386285      -0.683928860       0.317131969
Nuclear contribution   :     -0.000440776       0.473458542      -0.375185082
                        -----------------------------------------
Total Dipole Moment    :     -0.000054491      -0.210470318      -0.058053114
                        -----------------------------------------
Magnitude (a.u.)       :      0.218329846
Magnitude (Debye)      :      0.554950366



--------------------
Rotational spectrum 
--------------------
 
Rotational constants in cm-1:             0.478538             0.087140             0.083362 
Rotational constants in MHz :         14346.193818          2612.404284          2499.140852 

Dipole components along the rotational axes: 
x,y,z [a.u.] :    -0.000054    -0.210470    -0.058055 
x,y,z [Debye]:    -0.000139    -0.534972    -0.147564 

 

Dipole moment calculation done in   0.0 sec 

Maximum memory used throughout the entire PROP-calculation: 7.7 MB

--------------------------------
SUGGESTED CITATIONS FOR THIS RUN
--------------------------------

Below you find a list of papers that are relevant to this ORCA run
We neither can nor want to force you to cite these papers, but we appreciate if you do
You receive ORCA, which is the product of decades of hard work by many enthusiastic individuals, for free
The only thing we kindly ask in return is that you cite our papers,
We deeply appreciate it, if you show your appreciation for ORCA by not just citing the generic ORCA reference.

Please note that relegating all ORCA citations to the supporting information does *not* help us.
SI sections are not indexed - citations you put there will not count into any citation statistics
But we need these citations in order to attract the funding resources that allow us to do what we are doing

Therefore, if you are a happy ORCA user, please consider citing a few of the papers listed below in the main body of your paper

In addition to the list printed below, the program has created the file sp_solv.bibtex that contains the list in bibtex format
You can import this file easily into all common literature databanks and citation aid programs


List of essential papers. We consider these as the minimum necessary citations

  1. Neese,F.
     Software update: the ORCA program system, version 5.0
     WIRES Comput. Molec. Sci., 2022 12(1)e1606
     doi.org/10.1002/wcms.1606
  2. Grimme,S.; Hansen,A.; Ehlert,S.; Mewes,J.
     r2SCAN-3c: A 'Swiss army knife' composite electronic-structure method
     J. Chem. Phys., 2021 154 064103
     doi.org/10.1063/5.0040021

List of papers to cite with high priority. The work reported in these papers was absolutely
necessary for this run to complete.
Our perspective: the developers of density functionals and basis sets usually get cited in chemistry papers
Good! But without the algorithms to do something with them, the functionals or basis sets would not do anything.
Hence, in our opinion, the algorithm design and method developments papers are equally worthy of getting cited

  1. Neese,F.
     An improvement of the resolution of the identity approximation for the formation of the Coulomb matrix
     J. Comp. Chem., 2003 24(14)1740-1747
     doi.org/10.1002/jcc.10318
  2. Garcia-Rates,M.; Neese,F.
     Effect of the Solute Cavity on the Solvation Energy and its Derivatives within the Framework of the Gaussian Charge Scheme
     J. Comput. Chem., 2020 41 922-939
     doi.org/10.1002/jcc.26139
  3. Neese,F.
     The SHARK Integral Generation and Digestion System
     J. Comp. Chem., 2022  1-16
     doi.org/10.1002/jcc.26942
  4. Lehtola,S.; Steigemann,C.; Oliveira,M.; Marques,M.
     Recent developments in Libxc - A comprehensive library of functionals for density functional theory
     Software X, 2018 7 
     doi.org/10.1016/j.softx.2017.11.002
  5. Caldeweyher,E.; Bannwarth,C.; Grimme,S.
     Extension of the D3 dispersion coefficient model
     J. Chem. Phys., 2017 147 034112-XXXX
     doi.org/10.1063/1.4993215
  6. Caldeweyher,E.; Ehlert,S.; Hansen,A.; Neugebauer,H.; Spicher,S.; Bannwarth,C.; Grimme,S.
     A generally applicable atomic-charge dependent London dispersion correction
     J. Chem. Phys., 2019 150 154122-XXXX
     doi.org/10.1063/1.5090222
  7. Caldeweyher,E.; Mewes,J.; Ehlert,S.; Grimme,S.
     Extension and evaluation of the D4 London-dispersion model for periodic systems
     Phys. Chem. Chem. Phys., 2020 22(16)8499-8512
     doi.org/10.1039/D0CP00502A

List of suggested additional citations. These are papers that are important in the 'surrounding' of 
of this run, or papers that preceded the highly important papers. If you like your results we are grateful for a citation.

  1. Neese,F.
     The ORCA program system
     WIRES Comput. Molec. Sci., 2012 2(1)73-78
     doi.org/10.1002/wcms.81
  2. Neese,F.
     Software update: the ORCA program system, version 4.0
     WIRES Comput. Molec. Sci., 2018 8(1)1-6
     doi.org/10.1002/wcms.1327
  3. Neese,F.; Wennmohs,F.; Becker,U.; Riplinger,C.
     The ORCA quantum chemistry program package
     J. Chem. Phys., 2020 152 Art. No. L224108
     doi.org/10.1063/5.0004608

List of optional additional citations

  1. Neese,F.
     Approximate second-order SCF convergence for spin unrestricted wavefunctions
     Chem. Phys. Lett., 2000 325(1-3)93-98
     doi.org/10.1016/s0009-2614(00)00662-x

Timings for individual modules:

Sum of individual times          ...       14.238 sec (=   0.237 min)
Startup calculation              ...        0.748 sec (=   0.012 min)   5.3 %
SCF iterations                   ...       13.385 sec (=   0.223 min)  94.0 %
Property calculations            ...        0.105 sec (=   0.002 min)   0.7 %
                             ****ORCA TERMINATED NORMALLY****
TOTAL RUN TIME: 0 days 0 hours 0 minutes 14 seconds 986 msec
