 Entering Gaussian System
 *********************************************
 Gaussian 98:
 frequency output generated by the xtb code
 *********************************************
                         Standard orientation:
 --------------------------------------------------------------------
  Center     Atomic     Atomic              Coordinates (Angstroms)
  Number     Number      Type              X           Y           Z
 --------------------------------------------------------------------
    1          6             0       -2.082187   -1.545319   -0.053563
    2          6             0       -2.415330   -0.060375   -0.130586
    3          6             0       -1.393691    0.788512    0.634553
    4          6             0       -0.041436    0.714312   -0.026878
    5          8             0        0.182176    1.018942   -1.180111
    6          8             0        0.889968    0.279282    0.812765
    7          6             0        2.236598    0.135748    0.331332
    8          6             0        2.443545   -1.222411   -0.321680
    9          1             0       -2.044147   -1.875266    0.981787
   10          1             0       -2.834493   -2.129633   -0.576532
   11          1             0       -1.115632   -1.742905   -0.513048
   12          1             0       -3.404671    0.116101    0.292269
   13          1             0       -2.424588    0.261434   -1.173787
   14          1             0       -1.297731    0.449115    1.665061
   15          1             0       -1.709417    1.832819    0.621482
   16          1             0        2.439864    0.940644   -0.381631
   17          1             0        2.859480    0.248365    1.219107
   18          1             0        1.824015   -1.305987   -1.212111
   19          1             0        3.484794   -1.329721   -0.607339
   20          1             0        2.177424   -2.015632    0.371858
 --------------------------------------------------------------------
     1 basis functions        1 primitive gaussians
     1 alpha electrons        1 beta electrons
 
 Harmonic frequencies (cm**-1), IR intensities (km*mol⁻¹),
 Raman scattering activities (A**4/amu), Raman depolarization ratios,
 reduced masses (AMU), force constants (mDyne/A) and normal coordinates:
                      1                      2                      3
                        a                      a                      a 
 Frequencies --    17.4311                50.4575                77.2849
 Red. masses --    10.2001                 9.1734                10.3829
 Frc consts  --     0.0000                 0.0000                 0.0000
 IR Inten    --     2.8062                 2.4136                 1.2836
 Raman Activ --     0.0000                 0.0000                 0.0000
 Depolar     --     0.0000                 0.0000                 0.0000
 Atom AN      X      Y      Z        X      Y      Z        X      Y      Z
   1   6     0.36  -0.11   0.29     0.25  -0.00  -0.19     0.39   0.07  -0.29
   2   6     0.12  -0.18  -0.07     0.01  -0.04   0.10     0.02   0.02   0.12
   3   6    -0.08   0.17  -0.17    -0.01  -0.01   0.10     0.01   0.08   0.06
   4   6    -0.01   0.16  -0.03    -0.06   0.13  -0.01    -0.00  -0.02   0.04
   5   8     0.16   0.39   0.05    -0.17   0.37   0.02    -0.05  -0.43  -0.07
   6   8    -0.17  -0.11  -0.01    -0.00   0.00  -0.17     0.04   0.30   0.17
   7   6    -0.12  -0.19   0.09    -0.04  -0.04  -0.25    -0.02  -0.01   0.07
   8   6    -0.26  -0.09  -0.17     0.01  -0.34   0.39    -0.39   0.00  -0.07
   9   1     0.10   0.04   0.11     0.14  -0.05  -0.07     0.25  -0.03  -0.11
  10   1     0.14  -0.10   0.11     0.07  -0.01  -0.04     0.10   0.00  -0.04
  11   1     0.12  -0.02   0.12     0.06   0.06  -0.12     0.07   0.11  -0.20
  12   1     0.02  -0.07  -0.05     0.01  -0.08   0.08     0.02  -0.09   0.11
  13   1     0.04  -0.12  -0.04    -0.06   0.04   0.05    -0.09   0.06   0.05
  14   1    -0.04   0.12  -0.02     0.03  -0.03   0.02     0.01   0.04   0.02
  15   1    -0.07   0.03  -0.14    -0.03  -0.01   0.06     0.00   0.02  -0.00
  16   1     0.02  -0.02   0.08    -0.07  -0.10  -0.19     0.04   0.00   0.04
  17   1    -0.06  -0.14   0.05     0.02   0.13  -0.12     0.01  -0.07   0.02
  18   1    -0.05   0.06  -0.07    -0.03  -0.25   0.15    -0.12   0.08  -0.02
  19   1    -0.07  -0.05  -0.03    -0.01  -0.11   0.09    -0.12  -0.07  -0.03
  20   1    -0.13  -0.06  -0.11     0.05  -0.01   0.24    -0.17   0.00  -0.04
                      4                      5                      6
                        a                      a                      a 
 Frequencies --   112.4688               178.6537               203.6096
 Red. masses --     8.5753                 7.3106                 3.0311
 Frc consts  --     0.0000                 0.0000                 0.0000
 IR Inten    --     1.3465                 3.4686                 3.1348
 Raman Activ --     0.0000                 0.0000                 0.0000
 Depolar     --     0.0000                 0.0000                 0.0000
 Atom AN      X      Y      Z        X      Y      Z        X      Y      Z
   1   6    -0.16  -0.15   0.03    -0.29  -0.20  -0.04    -0.09  -0.05  -0.01
   2   6     0.19  -0.08  -0.25    -0.12  -0.15   0.17    -0.04  -0.04  -0.05
   3   6     0.05  -0.20   0.08     0.10  -0.17  -0.09    -0.02   0.01  -0.13
   4   6     0.07   0.08   0.11     0.10   0.07  -0.14     0.06  -0.02   0.05
   5   8    -0.03   0.07   0.10     0.19   0.27  -0.10     0.25   0.02   0.10
   6   8     0.22   0.36   0.11     0.10   0.22  -0.06     0.01  -0.02   0.14
   7   6     0.08   0.06  -0.15     0.12   0.01   0.12    -0.04   0.05  -0.03
   8   6    -0.37  -0.08   0.01    -0.13  -0.01   0.08    -0.09   0.04  -0.03
   9   1    -0.28  -0.03   0.02     0.17  -0.05  -0.02     0.21   0.05   0.01
  10   1     0.03  -0.00  -0.14    -0.25  -0.03   0.19    -0.16  -0.03   0.21
  11   1     0.04  -0.11   0.21    -0.21  -0.11  -0.26    -0.14  -0.07  -0.22
  12   1     0.01   0.04  -0.20     0.01  -0.03   0.16     0.00  -0.00   0.01
  13   1     0.21  -0.05  -0.08    -0.14  -0.03   0.06    -0.04  -0.03  -0.02
  14   1     0.00  -0.13   0.00     0.08  -0.05  -0.03    -0.03   0.04  -0.02
  15   1    -0.01  -0.06   0.09     0.01  -0.06   0.01    -0.00   0.00  -0.08
  16   1     0.02  -0.02  -0.09     0.12   0.01   0.06    -0.07   0.00  -0.04
  17   1     0.08   0.02  -0.09     0.00  -0.06   0.07     0.03   0.04  -0.05
  18   1    -0.18  -0.02   0.05     0.09   0.11  -0.08    -0.37  -0.14   0.25
  19   1    -0.14  -0.10  -0.07    -0.01  -0.14   0.18    -0.12   0.19  -0.43
  20   1    -0.10   0.02   0.06    -0.26   0.02  -0.04     0.40  -0.00   0.13
                      7                      8                      9
                        a                      a                      a 
 Frequencies --   250.7555               292.1733               358.5418
 Red. masses --     4.8512                 8.9866                 9.3681
 Frc consts  --     0.0000                 0.0000                 0.0000
 IR Inten    --     0.7818                16.6761                 3.0725
 Raman Activ --     0.0000                 0.0000                 0.0000
 Depolar     --     0.0000                 0.0000                 0.0000
 Atom AN      X      Y      Z        X      Y      Z        X      Y      Z
   1   6     0.05   0.07   0.06    -0.05  -0.04  -0.05    -0.14  -0.19  -0.13
   2   6     0.16   0.07  -0.32    -0.17  -0.06   0.11     0.00  -0.14   0.04
   3   6    -0.08   0.02   0.06    -0.08   0.09  -0.16    -0.18   0.31  -0.08
   4   6    -0.04  -0.03   0.19     0.05  -0.09   0.12    -0.02   0.18   0.19
   5   8    -0.17  -0.10   0.18     0.46  -0.06   0.23    -0.21  -0.03   0.12
   6   8     0.04  -0.07   0.09     0.03  -0.12   0.18     0.16   0.31   0.12
   7   6    -0.03   0.05  -0.19    -0.12   0.19  -0.35     0.12  -0.23  -0.02
   8   6     0.05  -0.02  -0.03    -0.07   0.05  -0.03     0.27  -0.19  -0.13
   9   1     0.34   0.18   0.06    -0.11  -0.07  -0.03    -0.07  -0.12  -0.06
  10   1    -0.18  -0.04   0.36     0.05  -0.00  -0.13    -0.07   0.02  -0.08
  11   1    -0.14  -0.09  -0.27     0.04   0.04   0.07    -0.05  -0.08  -0.04
  12   1    -0.00   0.06  -0.22    -0.02  -0.04   0.11     0.00  -0.05   0.02
  13   1     0.19  -0.01  -0.10    -0.15  -0.02   0.03    -0.03  -0.05   0.01
  14   1    -0.10  -0.02   0.02    -0.07   0.14  -0.01    -0.13   0.28   0.04
  15   1    -0.01   0.01   0.02    -0.01   0.03  -0.17    -0.10   0.07  -0.25
  16   1    -0.08  -0.01  -0.10    -0.20   0.01  -0.20     0.09  -0.07   0.01
  17   1     0.04   0.07  -0.09     0.07   0.19  -0.19     0.03  -0.11   0.00
  18   1     0.17   0.02  -0.12     0.11   0.00  -0.10     0.11  -0.07  -0.06
  19   1     0.06  -0.08   0.19     0.02  -0.08   0.17     0.09   0.03  -0.02
  20   1    -0.16   0.02  -0.04    -0.19   0.08   0.00     0.13  -0.10  -0.07
                     10                     11                     12
                        a                      a                      a 
 Frequencies --   395.3729               443.2066               603.6618
 Red. masses --     9.4839                10.1742                11.0967
 Frc consts  --     0.0000                 0.0000                 0.0000
 IR Inten    --     4.5551                 7.0702                17.1973
 Raman Activ --     0.0000                 0.0000                 0.0000
 Depolar     --     0.0000                 0.0000                 0.0000
 Atom AN      X      Y      Z        X      Y      Z        X      Y      Z
   1   6    -0.12  -0.24  -0.14     0.01  -0.00   0.03    -0.02  -0.06  -0.01
   2   6     0.49  -0.05   0.17     0.03   0.01   0.02    -0.13  -0.06  -0.03
   3   6     0.22   0.28   0.16     0.01  -0.11   0.15    -0.33   0.15   0.23
   4   6     0.02   0.13  -0.03    -0.07   0.27  -0.06    -0.10   0.42   0.11
   5   8    -0.02  -0.09  -0.11     0.36  -0.11  -0.09     0.30  -0.24   0.02
   6   8    -0.21  -0.23  -0.06    -0.25   0.34   0.14     0.03  -0.19  -0.35
   7   6    -0.20   0.09   0.01    -0.37  -0.18  -0.08     0.29   0.07  -0.04
   8   6    -0.11   0.11   0.06     0.17  -0.13  -0.12     0.00   0.02   0.03
   9   1    -0.08  -0.17  -0.07     0.02   0.01   0.01     0.02  -0.01  -0.00
  10   1    -0.16   0.12  -0.07    -0.01  -0.00   0.03     0.00  -0.04   0.01
  11   1    -0.09  -0.21  -0.08    -0.00  -0.01  -0.00    -0.01   0.01  -0.01
  12   1     0.12   0.01  -0.02     0.00  -0.00  -0.02    -0.08  -0.05  -0.08
  13   1     0.20  -0.00   0.05     0.04   0.02   0.01     0.03  -0.02  -0.01
  14   1     0.10   0.17   0.07     0.12  -0.21  -0.03    -0.04  -0.08   0.02
  15   1    -0.02   0.05  -0.05    -0.07  -0.05   0.27    -0.21   0.00   0.21
  16   1    -0.10   0.03  -0.01    -0.11  -0.07  -0.05     0.16   0.05   0.05
  17   1    -0.05   0.07  -0.00    -0.07  -0.03  -0.05    -0.02  -0.04   0.07
  18   1    -0.02   0.03   0.01     0.15  -0.12  -0.10    -0.08   0.04   0.06
  19   1    -0.03   0.03   0.03     0.10   0.16   0.06    -0.03  -0.13  -0.06
  20   1    -0.04   0.04   0.02     0.13  -0.11  -0.08    -0.06   0.07   0.06
                     13                     14                     15
                        a                      a                      a 
 Frequencies --   684.0450               800.5535               826.7425
 Red. masses --    10.1351                 4.0258                 4.0820
 Frc consts  --     0.0000                 0.0000                 0.0000
 IR Inten    --    17.2574                21.4955                11.0085
 Raman Activ --     0.0000                 0.0000                 0.0000
 Depolar     --     0.0000                 0.0000                 0.0000
 Atom AN      X      Y      Z        X      Y      Z        X      Y      Z
   1   6    -0.02  -0.01   0.01     0.05   0.02  -0.03    -0.08   0.02   0.04
   2   6    -0.05  -0.03  -0.14     0.19   0.04  -0.12    -0.18  -0.05   0.11
   3   6     0.17  -0.02  -0.26     0.07  -0.01  -0.10     0.14  -0.14  -0.04
   4   6     0.28   0.54   0.17    -0.09  -0.06   0.12     0.20   0.21   0.09
   5   8    -0.28  -0.12  -0.12     0.01  -0.06   0.22    -0.07  -0.04  -0.04
   6   8     0.04  -0.27   0.22    -0.01   0.06  -0.17     0.07  -0.08   0.03
   7   6    -0.01  -0.02   0.06    -0.13   0.07  -0.19    -0.18   0.03  -0.13
   8   6    -0.01   0.03   0.01    -0.04   0.05  -0.03    -0.07   0.07  -0.04
   9   1    -0.04   0.08   0.03    -0.12   0.16   0.05     0.14  -0.16  -0.05
  10   1     0.01  -0.05   0.03    -0.07   0.05   0.06     0.10  -0.09  -0.07
  11   1     0.01  -0.03   0.05     0.00  -0.23   0.08    -0.00   0.32  -0.09
  12   1     0.09  -0.03   0.21     0.15  -0.14   0.27    -0.11   0.22  -0.21
  13   1    -0.27  -0.01  -0.03    -0.27   0.11   0.01     0.24  -0.14  -0.02
  14   1     0.04  -0.17  -0.12    -0.05  -0.07  -0.04     0.04   0.10   0.03
  15   1    -0.05  -0.04   0.12     0.03   0.00   0.02     0.02  -0.05  -0.15
  16   1    -0.13  -0.03  -0.05     0.20   0.19   0.21     0.08   0.17   0.19
  17   1     0.09   0.09  -0.06    -0.16  -0.34   0.09    -0.07  -0.30   0.03
  18   1    -0.01   0.05   0.00     0.04  -0.28  -0.01     0.06  -0.28  -0.03
  19   1    -0.01  -0.00  -0.00     0.02   0.02   0.11     0.02   0.06   0.13
  20   1    -0.02  -0.01  -0.03     0.03   0.17   0.20     0.03   0.17   0.18
                     16                     17                     18
                        a                      a                      a 
 Frequencies --   877.6698               913.7701               917.3517
 Red. masses --     8.3626                 8.7769                 6.1284
 Frc consts  --     0.0000                 0.0000                 0.0000
 IR Inten    --    19.8476                 4.2309                 0.9416
 Raman Activ --     0.0000                 0.0000                 0.0000
 Depolar     --     0.0000                 0.0000                 0.0000
 Atom AN      X      Y      Z        X      Y      Z        X      Y      Z
   1   6     0.05  -0.11   0.04    -0.01   0.32   0.01    -0.04  -0.07  -0.18
   2   6    -0.02   0.05   0.02     0.21  -0.09   0.13    -0.14  -0.04  -0.10
   3   6    -0.11   0.29  -0.06    -0.03  -0.42  -0.09    -0.04  -0.02   0.39
   4   6    -0.06  -0.16  -0.19    -0.12   0.17   0.01     0.14   0.01  -0.15
   5   8    -0.05   0.11  -0.17     0.02  -0.03  -0.02     0.03   0.08  -0.29
   6   8    -0.14  -0.05   0.46    -0.34   0.02   0.13     0.07  -0.08   0.20
   7   6     0.24   0.09  -0.08     0.22   0.10  -0.02    -0.01  -0.01   0.01
   8   6     0.11  -0.07  -0.15     0.17  -0.13  -0.12    -0.02   0.03  -0.04
   9   1     0.01  -0.14  -0.03    -0.03   0.08   0.00    -0.07   0.37   0.08
  10   1    -0.03   0.06  -0.04    -0.05   0.15  -0.00     0.05  -0.26   0.14
  11   1    -0.02  -0.05  -0.04    -0.02   0.03  -0.00     0.05  -0.13   0.14
  12   1    -0.04  -0.02  -0.06     0.07   0.01   0.05    -0.07  -0.18  -0.02
  13   1     0.01  -0.09  -0.03     0.08   0.05   0.06     0.00   0.30   0.07
  14   1     0.08  -0.19  -0.11    -0.01   0.14   0.06     0.02   0.25   0.19
  15   1     0.02   0.09   0.30    -0.17  -0.16  -0.30    -0.07  -0.02  -0.14
  16   1    -0.03   0.17   0.13    -0.02   0.07   0.03    -0.06   0.06   0.05
  17   1     0.12  -0.13  -0.04     0.02   0.04   0.01     0.09  -0.07  -0.05
  18   1    -0.02  -0.19   0.01    -0.06  -0.00   0.04     0.02  -0.11  -0.02
  19   1     0.01  -0.24  -0.02    -0.01  -0.29  -0.11     0.01   0.01   0.05
  20   1    -0.05   0.18   0.17    -0.07   0.07   0.05     0.01   0.07   0.07
                     19                     20                     21
                        a                      a                      a 
 Frequencies --   959.3041              1048.3209              1070.8058
 Red. masses --     7.7856                 7.4649                 7.5051
 Frc consts  --     0.0000                 0.0000                 0.0000
 IR Inten    --     1.8352                14.3344                73.9558
 Raman Activ --     0.0000                 0.0000                 0.0000
 Depolar     --     0.0000                 0.0000                 0.0000
 Atom AN      X      Y      Z        X      Y      Z        X      Y      Z
   1   6    -0.10  -0.31  -0.08    -0.12   0.01  -0.07    -0.16   0.21  -0.10
   2   6    -0.13   0.10  -0.12     0.12  -0.04   0.05     0.09  -0.28   0.05
   3   6     0.37   0.10   0.01     0.05   0.04  -0.14     0.03   0.20  -0.13
   4   6    -0.13   0.02   0.09    -0.27  -0.03  -0.04    -0.14  -0.13  -0.05
   5   8    -0.01  -0.06   0.21    -0.00  -0.01   0.08    -0.03   0.01   0.09
   6   8    -0.30   0.12  -0.08    -0.17  -0.04   0.10     0.36  -0.03  -0.01
   7   6     0.07   0.11  -0.01     0.38  -0.27  -0.19    -0.26   0.16   0.13
   8   6     0.16  -0.14  -0.07    -0.19   0.27   0.16     0.07  -0.14  -0.06
   9   1     0.08   0.08   0.03     0.04   0.11   0.02     0.01   0.18   0.02
  10   1     0.16  -0.38   0.05     0.08  -0.17   0.03     0.05  -0.10   0.03
  11   1     0.05   0.12   0.05     0.02   0.13   0.03     0.01   0.16   0.03
  12   1     0.02   0.17   0.02     0.07   0.11   0.05     0.02  -0.04  -0.01
  13   1    -0.02   0.08  -0.02     0.05   0.05   0.03     0.06  -0.04   0.02
  14   1     0.17   0.06   0.01     0.26   0.01  -0.06     0.38  -0.02  -0.09
  15   1     0.21   0.06  -0.01    -0.20  -0.06   0.02    -0.40  -0.08   0.12
  16   1     0.02   0.03   0.01     0.11  -0.12  -0.09    -0.04   0.07   0.06
  17   1    -0.11   0.09   0.07     0.18  -0.13  -0.10    -0.08   0.06   0.05
  18   1    -0.07   0.07   0.04     0.07   0.02  -0.03    -0.03  -0.01   0.01
  19   1    -0.01  -0.24  -0.13     0.01   0.31   0.14    -0.00  -0.12  -0.06
  20   1    -0.06   0.00  -0.01     0.08   0.00   0.01    -0.03  -0.03  -0.02
                     22                     23                     24
                        a                      a                      a 
 Frequencies --  1083.2771              1095.6717              1119.7027
 Red. masses --     4.5475                 7.6252                 8.6658
 Frc consts  --     0.0000                 0.0000                 0.0000
 IR Inten    --     2.7131                18.9936                40.2300
 Raman Activ --     0.0000                 0.0000                 0.0000
 Depolar     --     0.0000                 0.0000                 0.0000
 Atom AN      X      Y      Z        X      Y      Z        X      Y      Z
   1   6    -0.20  -0.14   0.06     0.03  -0.03  -0.01     0.17  -0.32  -0.03
   2   6     0.34   0.16  -0.07    -0.02   0.04   0.03    -0.01   0.46   0.25
   3   6    -0.19  -0.02   0.13    -0.00  -0.02  -0.04    -0.22  -0.17  -0.32
   4   6     0.03  -0.09  -0.07    -0.03   0.04   0.01    -0.13   0.08  -0.01
   5   8     0.05   0.05  -0.13    -0.00  -0.02   0.01    -0.01  -0.02   0.03
   6   8     0.07  -0.00   0.01    -0.08  -0.09  -0.01     0.23  -0.05   0.01
   7   6    -0.04   0.06   0.08     0.22   0.50   0.15    -0.12  -0.02   0.06
   8   6    -0.01  -0.05  -0.04    -0.27  -0.40  -0.11     0.04   0.01  -0.01
   9   1     0.14  -0.08  -0.01    -0.01   0.01   0.00    -0.02  -0.02   0.02
  10   1     0.15  -0.24  -0.04    -0.01   0.00   0.01    -0.01  -0.07   0.05
  11   1     0.01   0.30  -0.01     0.01  -0.04   0.01     0.04  -0.22   0.05
  12   1     0.25   0.30   0.27    -0.02   0.00  -0.02    -0.04   0.19  -0.06
  13   1    -0.16  -0.00  -0.02     0.03   0.04   0.02     0.20   0.34   0.13
  14   1    -0.41  -0.09   0.04     0.04   0.01  -0.01     0.11  -0.02  -0.09
  15   1    -0.22  -0.06  -0.01     0.03   0.01  -0.01    -0.12  -0.06  -0.04
  16   1    -0.05   0.03   0.02     0.09   0.10   0.02    -0.04   0.00   0.02
  17   1     0.03   0.02  -0.01     0.08   0.09   0.03     0.02  -0.00  -0.02
  18   1     0.01  -0.05  -0.02     0.16  -0.24  -0.17    -0.02   0.01   0.02
  19   1     0.00  -0.01   0.01     0.03   0.31   0.13    -0.00  -0.05  -0.02
  20   1     0.01  -0.00   0.01     0.18  -0.28  -0.14    -0.03   0.03   0.02
                     25                     26                     27
                        a                      a                      a 
 Frequencies --  1142.8252              1168.0127              1199.4264
 Red. masses --     7.4492                 7.7797                 6.1910
 Frc consts  --     0.0000                 0.0000                 0.0000
 IR Inten    --   188.7128               178.7713               115.9544
 Raman Activ --     0.0000                 0.0000                 0.0000
 Depolar     --     0.0000                 0.0000                 0.0000
 Atom AN      X      Y      Z        X      Y      Z        X      Y      Z
   1   6    -0.05   0.00  -0.09    -0.09   0.07  -0.17    -0.12   0.08  -0.15
   2   6     0.06  -0.01   0.20     0.10  -0.11   0.28     0.17  -0.14   0.20
   3   6    -0.14   0.06  -0.11    -0.13   0.07  -0.18    -0.11  -0.05  -0.07
   4   6     0.44  -0.13   0.07     0.30  -0.07   0.10    -0.36   0.21  -0.08
   5   8    -0.06   0.03  -0.05    -0.03  -0.03   0.10     0.04  -0.00  -0.08
   6   8    -0.20   0.00   0.13    -0.18   0.13  -0.26     0.21  -0.10   0.13
   7   6    -0.00   0.11  -0.37     0.09  -0.13   0.26    -0.10   0.06  -0.07
   8   6     0.04  -0.07   0.19    -0.05   0.08  -0.20     0.04  -0.04   0.11
   9   1    -0.01   0.13   0.02    -0.02   0.23   0.03     0.00   0.20   0.02
  10   1     0.02  -0.10   0.04     0.03  -0.14   0.07     0.03  -0.13   0.05
  11   1     0.02   0.00   0.04     0.03   0.02   0.07     0.03   0.07   0.06
  12   1    -0.04  -0.04  -0.06    -0.05  -0.08  -0.08     0.02  -0.04  -0.01
  13   1     0.12   0.07   0.07     0.15  -0.01   0.08     0.08  -0.13   0.02
  14   1    -0.11  -0.10  -0.06    -0.16  -0.15  -0.08    -0.19  -0.08  -0.03
  15   1    -0.11  -0.01   0.10     0.13   0.07   0.11     0.56   0.17   0.01
  16   1     0.27   0.03  -0.00    -0.22  -0.07  -0.05     0.05   0.06   0.06
  17   1    -0.33  -0.07   0.14     0.12   0.15  -0.03     0.07  -0.14  -0.06
  18   1    -0.02   0.23   0.04     0.02  -0.23  -0.04    -0.02   0.12   0.03
  19   1    -0.02   0.03  -0.10     0.02  -0.04   0.09    -0.01   0.00  -0.05
  20   1    -0.00  -0.18  -0.15     0.01   0.18   0.15    -0.02  -0.09  -0.07
                     28                     29                     30
                        a                      a                      a 
 Frequencies --  1245.3753              1253.1794              1306.2845
 Red. masses --     3.4474                 3.2487                 4.1199
 Frc consts  --     0.0000                 0.0000                 0.0000
 IR Inten    --     8.2462                35.8144                42.4114
 Raman Activ --     0.0000                 0.0000                 0.0000
 Depolar     --     0.0000                 0.0000                 0.0000
 Atom AN      X      Y      Z        X      Y      Z        X      Y      Z
   1   6    -0.21  -0.02   0.25    -0.02  -0.01   0.04     0.04  -0.01  -0.03
   2   6     0.20   0.02  -0.16    -0.00   0.01  -0.02     0.06  -0.05  -0.08
   3   6    -0.17  -0.04  -0.09     0.01   0.02  -0.02    -0.41  -0.09   0.05
   4   6     0.05   0.03   0.02     0.13  -0.06   0.05     0.15  -0.01   0.05
   5   8    -0.02  -0.01   0.01    -0.01  -0.02   0.08    -0.01   0.01  -0.02
   6   8     0.01  -0.01   0.01    -0.12   0.11  -0.23     0.04   0.04  -0.02
   7   6    -0.00  -0.01   0.01    -0.03   0.04  -0.03     0.13  -0.14  -0.10
   8   6    -0.00   0.01  -0.03     0.07  -0.09   0.22    -0.06  -0.05   0.01
   9   1     0.14  -0.23  -0.02     0.01  -0.04  -0.00    -0.02   0.05   0.01
  10   1     0.08  -0.02  -0.10     0.01   0.00  -0.01    -0.02   0.04  -0.01
  11   1    -0.05   0.30  -0.08    -0.01   0.03  -0.02     0.01  -0.01  -0.01
  12   1    -0.03  -0.51  -0.02    -0.02  -0.08  -0.02     0.13   0.30   0.13
  13   1     0.02   0.47   0.10     0.01   0.08   0.02    -0.08  -0.12  -0.05
  14   1     0.19   0.04  -0.03     0.01  -0.01  -0.01     0.43   0.19   0.04
  15   1     0.21   0.07   0.01    -0.08  -0.02   0.01     0.24   0.09   0.06
  16   1     0.03  -0.04  -0.03    -0.38   0.33   0.24    -0.30   0.22   0.17
  17   1    -0.06   0.05   0.04     0.43  -0.37  -0.27    -0.22   0.15   0.13
  18   1    -0.00  -0.03  -0.00    -0.01   0.20   0.05     0.01   0.05  -0.01
  19   1     0.00  -0.00   0.01    -0.02   0.00  -0.08     0.00   0.09   0.03
  20   1    -0.00   0.02   0.02    -0.02  -0.17  -0.13     0.02  -0.00   0.03
                     31                     32                     33
                        a                      a                      a 
 Frequencies --  1316.7106              1334.1961              1393.6550
 Red. masses --     4.1964                 4.5612                 3.1139
 Frc consts  --     0.0000                 0.0000                 0.0000
 IR Inten    --    40.4760                 8.9122                 5.3106
 Raman Activ --     0.0000                 0.0000                 0.0000
 Depolar     --     0.0000                 0.0000                 0.0000
 Atom AN      X      Y      Z        X      Y      Z        X      Y      Z
   1   6     0.02  -0.00  -0.01     0.11   0.01   0.08    -0.00   0.02   0.00
   2   6     0.04  -0.03  -0.06    -0.17  -0.49  -0.12     0.00  -0.00  -0.00
   3   6    -0.28  -0.05   0.03     0.05   0.13  -0.03    -0.01   0.00  -0.00
   4   6     0.21  -0.04   0.04    -0.04  -0.01   0.00     0.03  -0.01   0.00
   5   8    -0.02  -0.00   0.02     0.01   0.01  -0.02    -0.00  -0.00   0.01
   6   8    -0.13  -0.02  -0.04     0.01  -0.00   0.01    -0.04  -0.00  -0.00
   7   6    -0.21   0.21   0.14    -0.00   0.00   0.00    -0.08   0.01   0.02
   8   6     0.09   0.08  -0.01     0.00  -0.00  -0.00     0.10  -0.37  -0.17
   9   1    -0.01   0.03   0.01    -0.07   0.02   0.02     0.00  -0.02  -0.01
  10   1    -0.01   0.02  -0.01    -0.08   0.19  -0.03     0.02  -0.02   0.00
  11   1     0.00  -0.00  -0.01    -0.01   0.05  -0.07    -0.01  -0.02  -0.00
  12   1     0.09   0.19   0.09     0.12   0.42   0.13     0.00   0.00   0.00
  13   1    -0.06  -0.07  -0.03     0.20   0.54   0.17    -0.00  -0.00  -0.00
  14   1     0.30   0.14   0.03    -0.17  -0.08  -0.03     0.00   0.01   0.00
  15   1     0.12   0.05   0.06     0.08   0.05   0.07    -0.00  -0.00   0.01
  16   1     0.38  -0.31  -0.24     0.01  -0.00  -0.00     0.19   0.00   0.06
  17   1     0.31  -0.25  -0.19     0.01  -0.00  -0.00     0.13   0.07  -0.10
  18   1    -0.01  -0.08   0.02     0.00   0.00  -0.00    -0.21   0.42   0.09
  19   1    -0.01  -0.15  -0.06    -0.00   0.00  -0.00     0.11   0.47   0.14
  20   1    -0.03  -0.01  -0.05    -0.00   0.00   0.00    -0.20   0.33   0.33
                     34                     35                     36
                        a                      a                      a 
 Frequencies --  1411.5743              1429.9118              1432.1127
 Red. masses --     3.1677                 2.0129                 2.0915
 Frc consts  --     0.0000                 0.0000                 0.0000
 IR Inten    --     1.9319                 2.5246                 6.1527
 Raman Activ --     0.0000                 0.0000                 0.0000
 Depolar     --     0.0000                 0.0000                 0.0000
 Atom AN      X      Y      Z        X      Y      Z        X      Y      Z
   1   6     0.06  -0.42   0.01     0.01  -0.03  -0.00    -0.03   0.06   0.00
   2   6     0.04   0.08   0.03     0.00   0.00   0.01    -0.01  -0.00  -0.01
   3   6     0.05  -0.04  -0.03    -0.02   0.04   0.07     0.10  -0.15  -0.23
   4   6    -0.01  -0.00  -0.01    -0.02   0.00   0.03    -0.05  -0.00  -0.02
   5   8     0.00  -0.00   0.01     0.01   0.01  -0.04     0.00   0.00   0.00
   6   8    -0.00  -0.00   0.00     0.04   0.00   0.00     0.03  -0.00   0.00
   7   6    -0.01  -0.01   0.00     0.14   0.21   0.07     0.05   0.06   0.02
   8   6     0.00  -0.01  -0.00     0.04  -0.08  -0.05     0.01  -0.02  -0.01
   9   1    -0.06   0.48   0.17    -0.01   0.03   0.01     0.05  -0.05  -0.02
  10   1    -0.24   0.41  -0.14    -0.02   0.02  -0.00     0.04  -0.04  -0.01
  11   1     0.07   0.48  -0.08     0.01   0.04  -0.01    -0.01  -0.08   0.03
  12   1    -0.05  -0.06  -0.10    -0.01   0.00  -0.01     0.01  -0.04   0.04
  13   1    -0.10  -0.06  -0.02    -0.01   0.00   0.00     0.05  -0.01  -0.00
  14   1    -0.04   0.09   0.03     0.06  -0.18  -0.06    -0.22   0.58   0.19
  15   1    -0.04  -0.02   0.08     0.01   0.00  -0.19    -0.04  -0.02   0.62
  16   1     0.02   0.00   0.01    -0.43  -0.24  -0.41    -0.14  -0.07  -0.12
  17   1     0.01   0.02  -0.01    -0.23  -0.52   0.24    -0.08  -0.16   0.08
  18   1    -0.00   0.01  -0.00    -0.05   0.09   0.03    -0.01   0.02   0.01
  19   1     0.00   0.02  -0.01     0.03   0.10   0.03     0.01   0.03   0.01
  20   1    -0.01   0.02   0.01    -0.05   0.08   0.08    -0.01   0.02   0.02
                     37                     38                     39
                        a                      a                      a 
 Frequencies --  1471.7366              1476.9729              1486.4878
 Red. masses --     1.5173                 1.9325                 1.5711
 Frc consts  --     0.0000                 0.0000                 0.0000
 IR Inten    --     5.8948                 1.9467                 2.5183
 Raman Activ --     0.0000                 0.0000                 0.0000
 Depolar     --     0.0000                 0.0000                 0.0000
 Atom AN      X      Y      Z        X      Y      Z        X      Y      Z
   1   6     0.01   0.00   0.00    -0.01   0.05   0.01    -0.00  -0.00   0.02
   2   6    -0.02   0.02  -0.01     0.22  -0.13   0.12     0.00  -0.00   0.01
   3   6    -0.00   0.00   0.00     0.02  -0.01  -0.00     0.00   0.00  -0.00
   4   6    -0.00   0.00  -0.00    -0.01   0.01  -0.02    -0.00  -0.00  -0.00
   5   8    -0.00  -0.00   0.00    -0.00  -0.01   0.02     0.00  -0.00   0.00
   6   8     0.00   0.00  -0.00     0.00  -0.00   0.00    -0.00   0.00   0.00
   7   6     0.02  -0.02   0.04     0.00  -0.00   0.00     0.05  -0.01  -0.02
   8   6     0.08  -0.04   0.18     0.00  -0.01   0.02     0.19   0.09  -0.06
   9   1    -0.05  -0.01  -0.00     0.05  -0.06  -0.02    -0.00   0.04   0.01
  10   1     0.00  -0.02   0.02     0.03  -0.03   0.00     0.05  -0.00  -0.06
  11   1    -0.01   0.01  -0.03     0.00  -0.07   0.04    -0.03  -0.03  -0.05
  12   1     0.02  -0.03   0.06    -0.19   0.25  -0.58    -0.01   0.01  -0.02
  13   1     0.07  -0.02  -0.01    -0.64   0.20   0.08    -0.02   0.00   0.00
  14   1     0.00  -0.00  -0.00    -0.01   0.04   0.01    -0.00  -0.00  -0.00
  15   1     0.00   0.00  -0.00     0.01  -0.00   0.03    -0.00  -0.00  -0.00
  16   1    -0.01  -0.01  -0.00    -0.01  -0.00  -0.00    -0.02   0.03   0.02
  17   1    -0.01   0.04   0.02    -0.01   0.00   0.01    -0.02   0.02   0.01
  18   1     0.29  -0.27  -0.15     0.04  -0.02  -0.03    -0.46  -0.38   0.36
  19   1    -0.13   0.32  -0.59    -0.02   0.03  -0.07     0.11   0.19   0.26
  20   1    -0.52   0.14  -0.02    -0.05   0.02   0.01    -0.41  -0.17  -0.37
                     40                     41                     42
                        a                      a                      a 
 Frequencies --  1495.7675              1502.0157              1699.1670
 Red. masses --     1.5433                 1.5624                13.3093
 Frc consts  --     0.0000                 0.0000                 0.0000
 IR Inten    --     3.6594                 0.4095               620.9814
 Raman Activ --     0.0000                 0.0000                 0.0000
 Depolar     --     0.0000                 0.0000                 0.0000
 Atom AN      X      Y      Z        X      Y      Z        X      Y      Z
   1   6     0.19   0.02  -0.07    -0.08  -0.02  -0.20     0.00  -0.00   0.00
   2   6     0.06   0.02  -0.01    -0.03  -0.02  -0.05    -0.01  -0.01  -0.01
   3   6    -0.00  -0.02  -0.02    -0.00   0.01   0.01    -0.05  -0.00   0.06
   4   6    -0.01  -0.00   0.00     0.01  -0.00  -0.00     0.19   0.19  -0.75
   5   8     0.00   0.00  -0.00    -0.00  -0.00   0.01    -0.12  -0.14   0.56
   6   8     0.00  -0.00   0.00    -0.01   0.00  -0.00     0.01  -0.02   0.05
   7   6     0.00   0.00  -0.00     0.00  -0.00  -0.00     0.01   0.01  -0.02
   8   6     0.01   0.01  -0.01     0.02   0.00  -0.00    -0.00  -0.00   0.00
   9   1    -0.61  -0.26  -0.06     0.34  -0.23  -0.10    -0.01   0.00   0.00
  10   1    -0.20  -0.20   0.53    -0.36   0.19   0.29    -0.00   0.00  -0.00
  11   1     0.01   0.34  -0.16     0.32   0.14   0.62    -0.00   0.00  -0.01
  12   1    -0.00  -0.03  -0.03     0.01   0.00   0.03     0.01   0.01   0.03
  13   1    -0.04   0.01  -0.00     0.02   0.03  -0.00     0.02  -0.00  -0.00
  14   1    -0.01   0.05   0.01     0.01  -0.00   0.00    -0.06  -0.00   0.01
  15   1     0.00   0.00   0.04    -0.00  -0.00  -0.01     0.00   0.00  -0.02
  16   1    -0.00   0.00  -0.00     0.00   0.00   0.00    -0.02  -0.00  -0.02
  17   1    -0.00  -0.00   0.00     0.00   0.00  -0.00    -0.03  -0.02   0.02
  18   1    -0.04  -0.01   0.03    -0.04  -0.04   0.03    -0.00   0.01   0.00
  19   1     0.01  -0.01   0.05     0.01   0.03   0.00     0.00   0.01   0.00
  20   1     0.01  -0.02  -0.02    -0.06  -0.01  -0.03     0.00  -0.00   0.00
                     43                     44                     45
                        a                      a                      a 
 Frequencies --  2946.4384              2981.7856              2984.5788
 Red. masses --     1.7180                 1.9264                 1.7246
 Frc consts  --     0.0000                 0.0000                 0.0000
 IR Inten    --    30.5120                33.5271                10.1542
 Raman Activ --     0.0000                 0.0000                 0.0000
 Depolar     --     0.0000                 0.0000                 0.0000
 Atom AN      X      Y      Z        X      Y      Z        X      Y      Z
   1   6     0.00  -0.00   0.00     0.02   0.00  -0.03    -0.00  -0.00   0.00
   2   6     0.00  -0.00   0.00    -0.11  -0.05   0.26     0.06  -0.01  -0.01
   3   6     0.00  -0.00   0.00    -0.01   0.03  -0.03    -0.07   0.24  -0.00
   4   6    -0.00   0.00  -0.00     0.00   0.00  -0.00    -0.00   0.01   0.00
   5   8    -0.00  -0.00   0.00     0.00   0.00  -0.00     0.00  -0.00  -0.00
   6   8     0.01   0.00  -0.01     0.00  -0.00   0.00     0.00  -0.00   0.00
   7   6     0.04   0.19  -0.16    -0.00  -0.00  -0.00     0.00   0.00   0.00
   8   6    -0.00  -0.01   0.01    -0.00  -0.00   0.00    -0.00  -0.00  -0.00
   9   1    -0.00   0.00  -0.00     0.01  -0.03   0.08    -0.00   0.00  -0.01
  10   1    -0.00  -0.00  -0.00     0.01   0.00  -0.00     0.00   0.00   0.00
  11   1    -0.00   0.00   0.00    -0.08   0.02   0.03     0.01  -0.00  -0.00
  12   1    -0.00   0.00   0.00     0.39  -0.08  -0.14    -0.22   0.04   0.10
  13   1     0.00   0.00  -0.00    -0.01   0.25  -0.80     0.01   0.01  -0.05
  14   1    -0.00   0.00  -0.00     0.01  -0.04   0.13    -0.01   0.03  -0.01
  15   1    -0.00   0.00   0.00     0.02  -0.07  -0.00     0.28  -0.89   0.02
  16   1    -0.18  -0.70   0.64     0.00   0.00  -0.00     0.00  -0.00   0.00
  17   1    -0.00   0.02  -0.03     0.00   0.00   0.01    -0.01  -0.00  -0.02
  18   1    -0.01  -0.00  -0.01     0.00  -0.00   0.00     0.00   0.00   0.00
  19   1     0.01  -0.00  -0.00     0.00  -0.00  -0.00     0.00  -0.00  -0.00
  20   1     0.01   0.04  -0.04     0.00   0.00  -0.00     0.00   0.00  -0.00
                     46                     47                     48
                        a                      a                      a 
 Frequencies --  2991.5843              2996.2037              3013.3284
 Red. masses --     1.7415                 1.5388                 1.7619
 Frc consts  --     0.0000                 0.0000                 0.0000
 IR Inten    --    15.2019                46.4610                26.9635
 Raman Activ --     0.0000                 0.0000                 0.0000
 Depolar     --     0.0000                 0.0000                 0.0000
 Atom AN      X      Y      Z        X      Y      Z        X      Y      Z
   1   6    -0.00  -0.00   0.00    -0.04  -0.01  -0.00     0.01  -0.00   0.02
   2   6    -0.00   0.00  -0.00     0.19  -0.07   0.02     0.01   0.01  -0.04
   3   6    -0.00   0.00   0.00     0.02  -0.05  -0.01    -0.02   0.09  -0.24
   4   6     0.00  -0.00  -0.00    -0.00  -0.00   0.00    -0.00   0.00  -0.01
   5   8     0.00  -0.00   0.00     0.00   0.00  -0.00     0.00  -0.00   0.00
   6   8    -0.01   0.00  -0.00     0.00  -0.00   0.00     0.00  -0.00   0.00
   7   6    -0.14  -0.02  -0.21    -0.00  -0.00  -0.00    -0.00   0.00  -0.00
   8   6     0.02  -0.00   0.03     0.00   0.00   0.00    -0.00  -0.00  -0.00
   9   1    -0.00   0.00  -0.00    -0.01  -0.01   0.02    -0.00   0.02  -0.07
  10   1    -0.00  -0.00  -0.00     0.05   0.04   0.04    -0.03  -0.02  -0.01
  11   1     0.00  -0.00  -0.00     0.10  -0.02  -0.05    -0.00   0.00   0.00
  12   1     0.00  -0.00  -0.00    -0.74   0.12   0.34    -0.02   0.01   0.01
  13   1     0.00  -0.00   0.01     0.03   0.12  -0.43    -0.00  -0.04   0.12
  14   1    -0.00   0.00  -0.00     0.01  -0.02   0.04     0.08  -0.31   0.90
  15   1     0.01  -0.02   0.00    -0.07   0.22  -0.01    -0.00   0.00  -0.03
  16   1    -0.02  -0.01  -0.02     0.00   0.00  -0.00    -0.00  -0.00   0.00
  17   1     0.55   0.09   0.78     0.01   0.00   0.01     0.00   0.00   0.00
  18   1    -0.07  -0.01  -0.11    -0.00  -0.00  -0.00     0.00   0.00   0.01
  19   1    -0.02   0.00   0.01    -0.00   0.00   0.00     0.00  -0.00  -0.00
  20   1     0.01   0.02  -0.01    -0.00  -0.00   0.00     0.00   0.00  -0.00
                     49                     50                     51
                        a                      a                      a 
 Frequencies --  3025.4231              3036.0584              3037.0484
 Red. masses --     1.8895                 1.8090                 1.7925
 Frc consts  --     0.0000                 0.0000                 0.0000
 IR Inten    --    86.5119                91.1478                15.1411
 Raman Activ --     0.0000                 0.0000                 0.0000
 Depolar     --     0.0000                 0.0000                 0.0000
 Atom AN      X      Y      Z        X      Y      Z        X      Y      Z
   1   6    -0.23  -0.00   0.15     0.11  -0.03   0.23     0.02  -0.01   0.08
   2   6    -0.04   0.00   0.03     0.01  -0.01   0.03     0.00  -0.00   0.01
   3   6    -0.00   0.00   0.00     0.00  -0.01   0.01     0.00  -0.00   0.01
   4   6     0.00   0.00  -0.00    -0.00  -0.00   0.00     0.00  -0.00   0.00
   5   8    -0.00  -0.00  -0.00     0.00  -0.00  -0.00    -0.00   0.00   0.00
   6   8    -0.00  -0.00  -0.00    -0.00   0.00  -0.00    -0.00   0.00  -0.00
   7   6     0.00   0.00   0.00     0.01  -0.00   0.01    -0.02  -0.00  -0.04
   8   6     0.01   0.00   0.01     0.05  -0.00   0.07    -0.13   0.01  -0.21
   9   1    -0.04   0.08  -0.24    -0.01   0.24  -0.79    -0.01   0.08  -0.27
  10   1     0.07   0.08   0.09    -0.22  -0.18  -0.13    -0.05  -0.04  -0.03
  11   1     0.80  -0.15  -0.38    -0.17   0.03   0.12    -0.02   0.00   0.03
  12   1     0.13  -0.02  -0.06    -0.02   0.00   0.01    -0.00   0.00   0.00
  13   1    -0.00   0.01  -0.04     0.00   0.02  -0.09     0.00   0.01  -0.03
  14   1    -0.00   0.00  -0.00    -0.01   0.02  -0.06    -0.00   0.01  -0.03
  15   1     0.01  -0.02   0.00    -0.01   0.02   0.00    -0.00   0.01   0.00
  16   1    -0.00  -0.00   0.00     0.00   0.01  -0.00    -0.01  -0.02   0.01
  17   1    -0.00  -0.00  -0.01    -0.02  -0.00  -0.03     0.07   0.01   0.10
  18   1    -0.02  -0.00  -0.03    -0.17  -0.02  -0.24     0.52   0.06   0.73
  19   1     0.00   0.00   0.00    -0.01   0.00   0.01    -0.00   0.00  -0.03
  20   1    -0.00  -0.01   0.01     0.01   0.02  -0.01    -0.05  -0.08   0.04
                     52                     53                     54
                        a                      a                      a 
 Frequencies --  3045.6417              3048.4020              3062.7968
 Red. masses --     1.4563                 1.6370                 1.7413
 Frc consts  --     0.0000                 0.0000                 0.0000
 IR Inten    --    42.0062                23.2589                23.4290
 Raman Activ --     0.0000                 0.0000                 0.0000
 Depolar     --     0.0000                 0.0000                 0.0000
 Atom AN      X      Y      Z        X      Y      Z        X      Y      Z
   1   6    -0.11  -0.15  -0.07     0.01   0.02   0.01    -0.00   0.00  -0.00
   2   6    -0.01  -0.00  -0.00     0.00   0.00   0.00    -0.00   0.00  -0.00
   3   6     0.00   0.00  -0.00     0.00  -0.00   0.00     0.00   0.00  -0.00
   4   6     0.00  -0.00  -0.00    -0.00  -0.00   0.00    -0.00   0.00  -0.00
   5   8    -0.00  -0.00   0.00     0.00   0.00  -0.00    -0.00  -0.00   0.00
   6   8    -0.00   0.00   0.00     0.00   0.00   0.00    -0.00  -0.00   0.00
   7   6     0.00  -0.00   0.00    -0.00  -0.02   0.01     0.01   0.00  -0.00
   8   6    -0.00  -0.02   0.02    -0.07  -0.18   0.13     0.25  -0.01  -0.08
   9   1    -0.03   0.07  -0.29     0.00  -0.00   0.02    -0.00  -0.00   0.01
  10   1     0.63   0.46   0.44    -0.07  -0.05  -0.05     0.00   0.00   0.00
  11   1    -0.22   0.02   0.09     0.04  -0.01  -0.02     0.00  -0.00  -0.00
  12   1     0.03  -0.01  -0.01    -0.00   0.00   0.00     0.00  -0.00  -0.00
  13   1    -0.00  -0.01   0.02    -0.00   0.00  -0.00    -0.00   0.00   0.00
  14   1     0.00  -0.00   0.01    -0.00   0.00  -0.01     0.00  -0.00   0.00
  15   1     0.00  -0.00  -0.00    -0.00   0.00   0.00     0.00  -0.00  -0.00
  16   1     0.00   0.00  -0.00     0.01   0.04  -0.04    -0.00  -0.01   0.01
  17   1    -0.00  -0.00  -0.00    -0.01  -0.00  -0.01    -0.01  -0.00  -0.02
  18   1    -0.01  -0.00  -0.01     0.06  -0.01   0.12     0.04   0.00   0.00
  19   1    -0.01  -0.00   0.00    -0.06  -0.02   0.03    -0.93   0.09   0.25
  20   1     0.03   0.08  -0.07     0.23   0.69  -0.62     0.02  -0.04   0.03
