
                                 *****************
                                 * O   R   C   A *
                                 *****************

                                            #,                                       
                                            ###                                      
                                            ####                                     
                                            #####                                    
                                            ######                                   
                                           ########,                                 
                                     ,,################,,,,,                         
                               ,,#################################,,                 
                          ,,##########################################,,             
                       ,#########################################, ''#####,          
                    ,#############################################,,   '####,        
                  ,##################################################,,,,####,       
                ,###########''''           ''''###############################       
              ,#####''   ,,,,##########,,,,          '''####'''          '####       
            ,##' ,,,,###########################,,,                        '##       
           ' ,,###''''                  '''############,,,                           
         ,,##''                                '''############,,,,        ,,,,,,###''
      ,#''                                            '''#######################'''  
     '                                                          ''''####''''         
             ,#######,   #######,   ,#######,      ##                                
            ,#'     '#,  ##    ##  ,#'     '#,    #''#        ,####,   ,####,        
            ##       ##  ##   ,#'  ##            #'  '#       #'       #'  '#        
            ##       ##  #######   ##           ,######,      #####,   #    #        
            '#,     ,#'  ##    ##  '#,     ,#' ,#      #,     #,   #   #,  ,#        
             '#######'   ##     ##  '#######'  #'      '#     '####' # '####'        



                #########################################################
                #                        -***-                          #
                #          Department of theory and spectroscopy        #
                #                                                       #
                #                      Frank Neese                      #
                #                                                       #
                #     Directorship, Architecture, Infrastructure        #
                #                    SHARK, DRIVERS                     #
                #        Core code/Algorithms in most modules           #
                #                                                       #
                #        Max Planck Institute fuer Kohlenforschung      #
                #                Kaiser Wilhelm Platz 1                 #
                #                 D-45470 Muelheim/Ruhr                 #
                #                      Germany                          #
                #                                                       #
                #                  All rights reserved                  #
                #                        -***-                          #
                #########################################################


                         Program Version 6.0.0  -   RELEASE  -


 With contributions from (in alphabetic order):
   Daniel Aravena         : Magnetic Suceptibility
   Michael Atanasov       : Ab Initio Ligand Field Theory (pilot matlab implementation)
   Alexander A. Auer      : GIAO ZORA, VPT2 properties, NMR spectrum
   Ute Becker             : All parallelization in ORCA, NUMFREQ, NUMCALC
   Giovanni Bistoni       : ED, misc. LED, open-shell LED, HFLD
   Martin Brehm           : Molecular dynamics
   Dmytro Bykov           : pre 5.0 version of the SCF Hessian
   Marcos Casanova-Páez   : Triplet and SCS-CIS(D). UHF-(DLPNO)-IP/EA/STEOM-CCSD. UHF-CVS-IP/STEOM-CCSD
   Vijay G. Chilkuri      : MRCI spin determinant printing, contributions to CSF-ICE
   Pauline Colinet        : FMM embedding
   Dipayan Datta          : RHF DLPNO-CCSD density
   Achintya Kumar Dutta   : EOM-CC, STEOM-CC
   Nicolas Foglia         : Exact transition moments, OPA infrastructure, MCD improvements
   Dmitry Ganyushin       : Spin-Orbit,Spin-Spin,Magnetic field MRCI
   Miquel Garcia          : C-PCM and meta-GGA Hessian, CCSD/C-PCM, Gaussian charge scheme
   Tiago L. C. Gouveia    : GS-ROHF, GS-ROCIS
   Yang Guo               : DLPNO-NEVPT2, F12-NEVPT2, CIM, IAO-localization
   Andreas Hansen         : Spin unrestricted coupled pair/coupled cluster methods
   Ingolf Harden          : AUTO-CI MPn and infrastructure 
   Benjamin Helmich-Paris : MC-RPA, TRAH-(SCF,CASSCF), AVAS, COSX integrals, SCF dyn. polar.
   Lee Huntington         : MR-EOM, pCC
   Robert Izsak           : Overlap fitted RIJCOSX, COSX-SCS-MP3, EOM
   Riya Kayal             : Wick's Theorem for AUTO-CI, AUTO-CI UHF-CCSDT
   Emily Kempfer          : AUTO-CI, RHF CISDT and CCSDT
   Christian Kollmar      : KDIIS, OOCD, Brueckner-CCSD(T), CCSD density, CASPT2, CASPT2-K, improved NEVPT2
   Axel Koslowski         : Symmetry handling
   Simone Kossmann        : Meta GGA functionals, TD-DFT gradient, OOMP2, (MP2 Hessian; deprecated post 5.0)
   Lucas Lang             : DCDCAS
   Marvin Lechner         : AUTO-CI (C++ implementation), FIC-MRCC
   Spencer Leger          : CASSCF response
   Dagmar Lenk            : GEPOL surface, SMD, ORCA-2-JSON
   Dimitrios Liakos       : Extrapolation schemes; Compound Job, initial MDCI parallelization
   Dimitrios Manganas     : Further ROCIS development; embedding schemes. LFT, Crystal Embedding
   Dimitrios Pantazis     : SARC Basis sets
   Anastasios Papadopoulos: AUTO-CI, single reference methods and gradients
   Taras Petrenko         : pre 6.0 DFT Hessian and TD-DFT gradient, (ASA, deprecated), ECA, 1-Electron XAS/XES, NRVS
   Peter Pinski           : DLPNO-MP2, DLPNO-MP2 Gradient
   Christoph Reimann      : Effective Core Potentials
   Marius Retegan         : Local ZFS, SOC
   Christoph Riplinger    : Optimizer, TS searches, QM/MM, DLPNO-CCSD(T), (RO)-DLPNO pert. Triples
   Michael Roemelt        : Original ROCIS implementation
   Masaaki Saitow         : Open-shell DLPNO-CCSD energy and density
   Barbara Sandhoefer     : DKH picture change effects
   Kantharuban Sivalingam : CASSCF convergence/infrastructure, NEVPT2 and variants, FIC-MRCI
   Bernardo de Souza      : ESD, SOC TD-DFT
   Georgi Stoychev        : AutoAux, RI-MP2 NMR, DLPNO-MP2 response, X2C
   Van Anh Tran           : RI-MP2 g-tensors
   Willem Van den Heuvel  : Paramagnetic NMR
   Zikuan Wang            : NOTCH, Electric field optimization 
   Frank Wennmohs         : Technical directorship and infrastructure
   Hang Xu                : AUTO-CI-Response properties 


 We gratefully acknowledge several colleagues who have allowed us to
 interface, adapt or use parts of their codes:
   Stefan Grimme, W. Hujo, H. Kruse, P. Pracht,  : VdW corrections, initial TS optimization,
                  C. Bannwarth, S. Ehlert,         DFT functionals, gCP, sTDA/sTD-DF
                  L. Wittmann, M. Mueller
   Ed Valeev, F. Pavosevic, A. Kumar             : LibInt (2-el integral package), F12 methods
   Garnet Chan, S. Sharma, J. Yang, R. Olivares  : DMRG
   Ulf Ekstrom                                   : XCFun DFT Library
   Mihaly Kallay                                 : mrcc  (arbitrary order and MRCC methods)
   Frank Weinhold                                : gennbo (NPA and NBO analysis)
   Simon Mueller                                 : openCOSMO-RS
   Christopher J. Cramer and Donald G. Truhlar   : smd solvation model
   Lars Goerigk                                  : TD-DFT with DH, B97 family of functionals
   V. Asgeirsson, H. Jonsson                     : NEB implementation
   FAccTs GmbH                                   : IRC, NEB, NEB-TS, DLPNO-Multilevel, CI-OPT
                                                   MM, QMMM, 2- and 3-layer-ONIOM, Crystal-QMMM,
                                                   LR-CPCM, SF, NACMEs, symmetry and pop. for TD-DFT,
                                                   nearIR, NL-DFT gradient (VV10), updates on ESD,
                                                   ML-optimized integration grids, MBIS, APM,
                                                   GOAT, DOCKER, SOLVATOR, interface openCOSMO-RS
   S Lehtola, MJT Oliveira, MAL Marques          : LibXC Library
   Liviu Ungur et al                             : ANISO software


 Your calculation uses the libint2 library for the computation of 2-el integrals
 For citations please refer to: http://libint.valeyev.net

 Your ORCA version has been built with support for libXC version: 6.2.2
 For citations please refer to: https://libxc.gitlab.io

 This ORCA versions uses:
   CBLAS   interface :  Fast vector & matrix operations
   LAPACKE interface :  Fast linear algebra routines
   SCALAPACK package :  Parallel linear algebra routines
   Shared memory     :  Shared parallel matrices
   BLAS/LAPACK       :  OpenBLAS 0.3.27  USE64BITINT DYNAMIC_ARCH NO_AFFINITY SkylakeX SINGLE_THREADED
        Core in use  :  SkylakeX
   Copyright (c) 2011-2014, The OpenBLAS Project


Your calculation utilizes the geometrical counterpoise correction gCP
Please cite in your paper:
H.Kruse, S. Grimme J.Chem.Phys., 136, (2012), 154101 
   

Your calculation utilizes the atom-pairwise dispersion correction
based on EEQ partial charges (D4)


Your calculation utilizes the SMD solvation module
Please cite in your paper:
A.V. Marenich, C.J. Cramer, D.G. Truhlar J. Phys. Chem. B, 113, (2009), 6378 

================================================================================

----- Orbital basis set information -----
Your calculation utilizes the basis: def2-mTZVPP
   Stefan Grimme, Andreas Hansen, Sebastian Ehlert, and Jan-Michael Mewes 
   J. Chem. Phys. 154, 064103 (2021). DOI: 10.1063/5.0040021

----- AuxJ basis set information -----
Your calculation utilizes the auxiliary basis: def2/J
   F. Weigend, Phys. Chem. Chem. Phys. 8, 1057 (2006).

================================================================================
                                        WARNINGS
                       Please study these warnings very carefully!
================================================================================

Using LibXC functional ID 497 : Re-regularized SCAN exchange by Furness et al
[ 1]  J. W. Furness, A. D. Kaplan, J. Ning, J. P. Perdew, and J. Sun.,  J. Phys. Chem. Lett. 11, 8208-8215 (2020)
[ 2]  J. W. Furness, A. D. Kaplan, J. Ning, J. P. Perdew, and J. Sun.,  J. Phys. Chem. Lett. 11, 9248-9248 (2020)
Using LibXC functional ID 498 : Re-regularized SCAN correlation by Furness et al
[ 1]  J. W. Furness, A. D. Kaplan, J. Ning, J. P. Perdew, and J. Sun.,  J. Phys. Chem. Lett. 11, 8208-8215 (2020)
[ 2]  J. W. Furness, A. D. Kaplan, J. Ning, J. P. Perdew, and J. Sun.,  J. Phys. Chem. Lett. 11, 9248-9248 (2020)
Using LibXC functional ID 497 : Re-regularized SCAN exchange by Furness et al
[ 1]  J. W. Furness, A. D. Kaplan, J. Ning, J. P. Perdew, and J. Sun.,  J. Phys. Chem. Lett. 11, 8208-8215 (2020)
[ 2]  J. W. Furness, A. D. Kaplan, J. Ning, J. P. Perdew, and J. Sun.,  J. Phys. Chem. Lett. 11, 9248-9248 (2020)
Using LibXC functional ID 498 : Re-regularized SCAN correlation by Furness et al
[ 1]  J. W. Furness, A. D. Kaplan, J. Ning, J. P. Perdew, and J. Sun.,  J. Phys. Chem. Lett. 11, 8208-8215 (2020)
[ 2]  J. W. Furness, A. D. Kaplan, J. Ning, J. P. Perdew, and J. Sun.,  J. Phys. Chem. Lett. 11, 9248-9248 (2020)

================================================================================
                                       INPUT FILE
================================================================================
NAME = sp_solv.inp
|  1> ! r2scan-3c def2/J RI DEFGRID2 scfconv6 printgap
|  2> %output
|  3>     printlevel normal
|  4> end
|  5> %cpcm
|  6>     smd true
|  7>     smdsolvent "water"
|  8> end
|  9> * xyz 0 1
| 10> C -3.9307960811 0.0710689031 -0.2941808805
| 11> C -2.6986339022 -0.2431419853 0.5456161335
| 12> C -1.4095965099 0.0676454423 -0.210757171
| 13> C -0.1725765103 -0.242941208 0.62666918
| 14> C 1.1063319894 0.0362195104 -0.1179524059
| 15> O 1.1841203463 0.3801501666 -1.2778097504
| 16> O 2.1636865723 -0.1537711686 0.6669921637
| 17> C 3.4732979965 0.0546779993 0.1280094635
| 18> H -3.9273694455 -0.5166348092 -1.2091615328
| 19> H -4.8383409494 -0.1569792688 0.2587657682
| 20> H -3.9477800608 1.1239156173 -0.5658667504
| 21> H -2.7276353588 0.3440433846 1.4655302506
| 22> H -2.7088113646 -1.2990099095 0.8229542869
| 23> H -1.3930603951 1.1213622083 -0.4963081285
| 24> H -1.3708522372 -0.5152607991 -1.1331113183
| 25> H -0.1600268904 -1.2953168693 0.9183034141
| 26> H -0.1623255987 0.3469716166 1.5447826626
| 27> H 4.0872773154 -0.7792435036 0.4589938637
| 28> H 3.8636577309 0.9933383743 0.5193251637
| 29> H 3.4238979711 0.0956069959 -0.9606223874
| 30> *
| 31> 
| 32>                          ****END OF INPUT****
================================================================================

                       ****************************
                       * Single Point Calculation *
                       ****************************

---------------------------------
CARTESIAN COORDINATES (ANGSTROEM)
---------------------------------
  C     -3.930796    0.071069   -0.294181
  C     -2.698634   -0.243142    0.545616
  C     -1.409597    0.067645   -0.210757
  C     -0.172577   -0.242941    0.626669
  C      1.106332    0.036220   -0.117952
  O      1.184120    0.380150   -1.277810
  O      2.163687   -0.153771    0.666992
  C      3.473298    0.054678    0.128009
  H     -3.927369   -0.516635   -1.209162
  H     -4.838341   -0.156979    0.258766
  H     -3.947780    1.123916   -0.565867
  H     -2.727635    0.344043    1.465530
  H     -2.708811   -1.299010    0.822954
  H     -1.393060    1.121362   -0.496308
  H     -1.370852   -0.515261   -1.133111
  H     -0.160027   -1.295317    0.918303
  H     -0.162326    0.346972    1.544783
  H      4.087277   -0.779244    0.458994
  H      3.863658    0.993338    0.519325
  H      3.423898    0.095607   -0.960622

----------------------------
CARTESIAN COORDINATES (A.U.)
----------------------------
  NO LB      ZA    FRAG     MASS         X           Y           Z
   0 C     6.0000    0    12.011   -7.428128    0.134301   -0.555921
   1 C     6.0000    0    12.011   -5.099679   -0.459472    1.031065
   2 C     6.0000    0    12.011   -2.663751    0.127831   -0.398273
   3 C     6.0000    0    12.011   -0.326122   -0.459092    1.184233
   4 C     6.0000    0    12.011    2.090664    0.068445   -0.222898
   5 O     8.0000    0    15.999    2.237663    0.718380   -2.414710
   6 O     8.0000    0    15.999    4.088775   -0.290585    1.260433
   7 C     6.0000    0    12.011    6.563582    0.103326    0.241903
   8 H     1.0000    0     1.008   -7.421653   -0.976298   -2.284984
   9 H     1.0000    0     1.008   -9.143139   -0.296648    0.488996
  10 H     1.0000    0     1.008   -7.460223    2.123893   -1.069333
  11 H     1.0000    0     1.008   -5.154484    0.650148    2.769451
  12 H     1.0000    0     1.008   -5.118912   -2.454773    1.555158
  13 H     1.0000    0     1.008   -2.632503    2.119067   -0.937886
  14 H     1.0000    0     1.008   -2.590535   -0.973702   -2.141270
  15 H     1.0000    0     1.008   -0.302407   -2.447794    1.735342
  16 H     1.0000    0     1.008   -0.306751    0.655681    2.919216
  17 H     1.0000    0     1.008    7.723835   -1.472557    0.867373
  18 H     1.0000    0     1.008    7.301255    1.877137    0.981382
  19 H     1.0000    0     1.008    6.470229    0.180671   -1.815313

--------------------------------
INTERNAL COORDINATES (ANGSTROEM)
--------------------------------
 C      0   0   0     0.000000000000     0.00000000     0.00000000
 C      1   0   0     1.523880291304     0.00000000     0.00000000
 C      2   1   0     1.526534244510   111.57612201     0.00000000
 C      3   2   1     1.525767164447   111.79113903   179.90054906
 C      4   3   2     1.505987703632   112.29614036   178.96844437
 O      5   4   3     1.212274054962   125.46065386   355.18275335
 O      5   4   3     1.330501089602   110.89794030   175.62205915
 C      7   5   4     1.431445244887   118.95562599   179.55088804
 H      1   2   3     1.087472753390   110.46888174    59.80882493
 H      1   2   3     1.086919340610   110.57992289   179.93444177
 H      1   2   3     1.087468560958   110.48339298   300.06277555
 H      2   1   3     1.091727862587   109.38913970   121.05587043
 H      2   1   3     1.091731242306   109.38272733   238.93259727
 H      3   2   1     1.091847890217   109.80700012    58.62751981
 H      3   2   1     1.091795758359   109.86814896   301.10117862
 H      4   3   2     1.092109221624   110.61193420    58.85717685
 H      4   3   2     1.091345311415   111.05830323   299.92193063
 H      8   7   5     1.087173560298   106.87883453   224.48255628
 H      8   7   5     1.089308036810   108.54657347   105.35624973
 H      8   7   5     1.090520450091   109.87077025   344.99887677

---------------------------
INTERNAL COORDINATES (A.U.)
---------------------------
 C      0   0   0     0.000000000000     0.00000000     0.00000000
 C      1   0   0     2.879716411444     0.00000000     0.00000000
 C      2   1   0     2.884731656176   111.57612201     0.00000000
 C      3   2   1     2.883282084934   111.79113903   179.90054906
 C      4   3   2     2.845904320917   112.29614036   178.96844437
 O      5   4   3     2.290865963136   125.46065386   355.18275335
 O      5   4   3     2.514282680231   110.89794030   175.62205915
 C      7   5   4     2.705039488539   118.95562599   179.55088804
 H      1   2   3     2.055025682009   110.46888174    59.80882493
 H      1   2   3     2.053979883416   110.57992289   179.93444177
 H      1   2   3     2.055017759460   110.48339298   300.06277555
 H      2   1   3     2.063066673061   109.38913970   121.05587043
 H      2   1   3     2.063073059804   109.38272733   238.93259727
 H      3   2   1     2.063293492410   109.80700012    58.62751981
 H      3   2   1     2.063194977476   109.86814896   301.10117862
 H      4   3   2     2.063787337199   110.61193420    58.85717685
 H      4   3   2     2.062343756114   111.05830323   299.92193063
 H      8   7   5     2.054460289004   106.87883453   224.48255628
 H      8   7   5     2.058493865050   108.54657347   105.35624973
 H      8   7   5     2.060784994112   109.87077025   344.99887677

---------------------
BASIS SET INFORMATION
---------------------
There are 3 groups of distinct atoms

 Group   1 Type C   : 11s6p1d contracted to 5s3p1d pattern {62111/411/1}
 Group   2 Type O   : 11s6p2d contracted to 5s3p2d pattern {62111/411/11}
 Group   3 Type H   : 4s1p contracted to 2s1p pattern {31/1}

Atom   0C    basis set group =>   1
Atom   1C    basis set group =>   1
Atom   2C    basis set group =>   1
Atom   3C    basis set group =>   1
Atom   4C    basis set group =>   1
Atom   5O    basis set group =>   2
Atom   6O    basis set group =>   2
Atom   7C    basis set group =>   1
Atom   8H    basis set group =>   3
Atom   9H    basis set group =>   3
Atom  10H    basis set group =>   3
Atom  11H    basis set group =>   3
Atom  12H    basis set group =>   3
Atom  13H    basis set group =>   3
Atom  14H    basis set group =>   3
Atom  15H    basis set group =>   3
Atom  16H    basis set group =>   3
Atom  17H    basis set group =>   3
Atom  18H    basis set group =>   3
Atom  19H    basis set group =>   3
---------------------------------
AUXILIARY/J BASIS SET INFORMATION
---------------------------------
There are 3 groups of distinct atoms

 Group   1 Type C   : 12s5p4d2f1g contracted to 6s4p3d1f1g pattern {711111/2111/211/2/1}
 Group   2 Type O   : 12s5p4d2f1g contracted to 6s4p3d1f1g pattern {711111/2111/211/2/1}
 Group   3 Type H   : 5s2p1d contracted to 3s1p1d pattern {311/2/1}

Atom   0C    basis set group =>   1
Atom   1C    basis set group =>   1
Atom   2C    basis set group =>   1
Atom   3C    basis set group =>   1
Atom   4C    basis set group =>   1
Atom   5O    basis set group =>   2
Atom   6O    basis set group =>   2
Atom   7C    basis set group =>   1
Atom   8H    basis set group =>   3
Atom   9H    basis set group =>   3
Atom  10H    basis set group =>   3
Atom  11H    basis set group =>   3
Atom  12H    basis set group =>   3
Atom  13H    basis set group =>   3
Atom  14H    basis set group =>   3
Atom  15H    basis set group =>   3
Atom  16H    basis set group =>   3
Atom  17H    basis set group =>   3
Atom  18H    basis set group =>   3
Atom  19H    basis set group =>   3

Checking for AutoStart:
The File: sp_solv.gbw exists
Trying to determine its content:
     ... Fine, the file contains calculation information
     ... Fine, the calculation information was read
     ... Fine, the file contains a basis set
     ... Fine, the basis set was read
     ... Fine, the file contains a geometry
     ... Fine, the geometry was read
     ... Fine, the file contains a set of orbitals
     ... Fine, the orbitals can be read
     => possible old guess file was deleted
     => GBW file was renamed to GES file
     => GES file is set as startup file
     => Guess is set to MORead
     ... now leaving AutoStart

------------------------------------------------------------------------------
                             ORCA STARTUP CALCULATIONS
                           -- RI-GTO INTEGRALS CHOSEN --
------------------------------------------------------------------------------
------------------------------------------------------------------------------
                   ___                                                        
                  /   \      - P O W E R E D   B Y -                         
                 /     \                                                     
                 |  |  |   _    _      __       _____    __    __             
                 |  |  |  | |  | |    /  \     |  _  \  |  |  /  |          
                  \  \/   | |  | |   /    \    | | | |  |  | /  /          
                 / \  \   | |__| |  /  /\  \   | |_| |  |  |/  /          
                |  |  |   |  __  | /  /__\  \  |    /   |      \           
                |  |  |   | |  | | |   __   |  |    \   |  |\   \          
                \     /   | |  | | |  |  |  |  | |\  \  |  | \   \       
                 \___/    |_|  |_| |__|  |__|  |_| \__\ |__|  \__/        
                                                                              
                      - O R C A' S   B I G   F R I E N D -                    
                                      &                                       
                       - I N T E G R A L  F E E D E R -                       
                                                                              
 v1 FN, 2020, v2 2021, v3 2022-2024                                           
------------------------------------------------------------------------------


----------------------
SHARK INTEGRAL PACKAGE
----------------------

Number of atoms                             ...     20
Number of basis functions                   ...    222
Number of shells                            ...    110
Maximum angular momentum                    ...      2
Integral batch strategy                     ... SHARK/LIBINT Hybrid
RI-J (if used) integral strategy            ... SPLIT-RIJ (Revised 2003 algorithm where possible)
Printlevel                                  ...      1
Contraction scheme used                     ... SEGMENTED contraction
Prescreening option                         ... SCHWARTZ
   Thresh                                   ... 1.000e-10
   Tcut                                     ... 1.000e-11
   Tpresel                                  ... 1.000e-11 
Coulomb Range Separation                    ... NOT USED
Exchange Range Separation                   ... NOT USED
Multipole approximations                    ... NOT USED
Finite Nucleus Model                        ... NOT USED
CABS basis                                  ... NOT available
Auxiliary Coulomb fitting basis             ... AVAILABLE
   # of basis functions in Aux-J            ...    524
   # of shells in Aux-J                     ...    180
   Maximum angular momentum in Aux-J        ...      4
Auxiliary J/K fitting basis                 ... NOT available
Auxiliary Correlation fitting basis         ... NOT available
Auxiliary 'external' fitting basis          ... NOT available

Checking pre-screening integrals            ... done (  0.0 sec) Dimension = 110
Check shell pair data                       ... done (  0.0 sec)
Shell pair information
Shell pair cut-off parameter TPreSel        ...   1.0e-11
Total number of shell pairs                 ...      6105
Shell pairs after pre-screening             ...      5077
Total number of primitive shell pairs       ...     21533
Primitive shell pairs kept                  ...     12710
          la=0 lb=0:   1698 shell pairs
          la=1 lb=0:   1924 shell pairs
          la=1 lb=1:    566 shell pairs
          la=2 lb=0:    535 shell pairs
          la=2 lb=1:    307 shell pairs
          la=2 lb=2:     47 shell pairs

Calculating one electron integrals          ... done (  0.0 sec)
Calculating RI/J V-Matrix + Cholesky decomp.... done (  0.1 sec)
Calculating Nuclear repulsion               ... done (  0.0 sec) ENN=    380.154043842559 Eh

Diagonalization of the overlap matrix:
Smallest eigenvalue                        ... 8.939e-05
Time for diagonalization                   ...    0.005 sec
Threshold for overlap eigenvalues          ... 1.000e-07
Number of eigenvalues below threshold      ... 0
Time for construction of square roots      ...    0.017 sec
Total time needed                          ...    0.030 sec

-------------------
DFT GRID GENERATION
-------------------

General Integration Accuracy     IntAcc      ... 4.388
Radial Grid Type                 RadialGrid  ... OptM3 with GC (2021)
Angular Grid (max. ang.)         AngularGrid ... 4 (Lebedev-302)
Angular grid pruning method      GridPruning ... 4 (adaptive)
Weight generation scheme         WeightScheme... mBecke (2022)
Basis function cutoff            BFCut       ... 1.0000e-10
Integration weight cutoff        WCut        ... 1.0000e-14
Partially contracted basis set               ... off
Rotationally invariant grid construction     ... off
Angular grids for H and He will be reduced by one unit
Diffuse basis detected: some atoms will have their outermost
                        angular grid increased by 1.

Total number of grid points                  ...    87363
Total number of batches                      ...     1375
Average number of points per batch           ...       63
Average number of grid points per atom       ...     4368
Initializing property integral containers    ... done (  0.0 sec)

SHARK setup successfully completed in   1.2 seconds

Maximum memory used throughout the entire STARTUP-calculation: 39.0 MB
-------------------------------------------------------------------------------
                                 ORCA GUESS
                   Start orbitals & Density for SCF / CASSCF
-------------------------------------------------------------------------------

------------
SCF SETTINGS
------------
Hamiltonian:
 Density Functional     Method          .... DFT(GTOs)
  Functional kind                       .... Exchange
  Functional name                       .... Re-regularized SCAN exchange by Furness et al
  Functional family                     .... MGGA
  Functional refs                              
    [ 0] J. W. Furness, A. D. Kaplan, J. Ning, J. P. Perdew, and J. Sun.,  J. Phys. Chem. Lett. 11, 8208-8215 (2020), doi: 10.1021/acs.jpclett.0c02405
    [ 1] J. W. Furness, A. D. Kaplan, J. Ning, J. P. Perdew, and J. Sun.,  J. Phys. Chem. Lett. 11, 9248-9248 (2020), doi: 10.1021/acs.jpclett.0c03077
  Functional external parameters        .... 6
    Parameter  0 _c1        =  6.670000e-01 : c1 parameter        
    Parameter  1 _c2        =  8.000000e-01 : c2 parameter        
    Parameter  2 _d         =  1.240000e+00 : d parameter         
    Parameter  3 _k1        =  6.500000e-02 : k1 parameter        
    Parameter  4 _eta       =  1.000000e-03 : eta parameter       
    Parameter  5 _dp2       =  3.610000e-01 : dp2 parameter       
  Functional kind                       .... Correlation
  Functional name                       .... Re-regularized SCAN correlation by Furness et al
  Functional family                     .... MGGA
  Functional refs                              
    [ 0] J. W. Furness, A. D. Kaplan, J. Ning, J. P. Perdew, and J. Sun.,  J. Phys. Chem. Lett. 11, 8208-8215 (2020), doi: 10.1021/acs.jpclett.0c02405
    [ 1] J. W. Furness, A. D. Kaplan, J. Ning, J. P. Perdew, and J. Sun.,  J. Phys. Chem. Lett. 11, 9248-9248 (2020), doi: 10.1021/acs.jpclett.0c03077
  Functional external parameters        .... 1
    Parameter  0 _eta       =  1.000000e-03 : Regularization parameter
 Gradients option       PostSCFGGA      .... off
 RI-approximation to the Coulomb term is turned on
   Number of AuxJ basis functions       .... 524


General Settings:
 Integral files         IntName         .... sp_solv
 Hartree-Fock type      HFTyp           .... RHF
 Total Charge           Charge          ....    0
 Multiplicity           Mult            ....    1
 Number of Electrons    NEL             ....   64
 Basis Dimension        Dim             ....  222
 Nuclear Repulsion      ENuc            ....    380.1540438426 Eh

Convergence Acceleration:
 AO-DIIS                CNVDIIS         .... on
   Start iteration      DIISMaxIt       ....    12
   Startup error        DIISStart       ....  0.200000
   # of expansion vecs  DIISMaxEq       ....     5
   Bias factor          DIISBfac        ....   1.050
   Max. coefficient     DIISMaxC        ....  10.000
 MO-DIIS                CNVKDIIS        .... off
 Trust-Rad. Augm. Hess. CNVTRAH         .... auto
   Auto Start mean grad. ratio tolernc. ....  1.125000
   Auto Start start iteration           ....     1
   Auto Start num. interpolation iter.  ....    10
   Max. Number of Micro iterations      ....    24
   Max. Number of Macro iterations      .... Maxiter - #DIIS iter
   Number of Davidson start vectors     ....     2
   Converg. threshold    (grad. norm)   ....   3.330e-04
   Grad. Scal. Fac. for Micro threshold ....   0.100
   Minimum threshold for Micro iter.    ....   1.000e-02
   NR start threshold (gradient norm)   ....   1.000e-04
   Initial trust radius                 ....   0.400
   Minimum AH scaling param. (alpha)    ....   1.000
   Maximum AH scaling param. (alpha)    .... 1000.000
   Quad. conv. algorithm                .... NR
   White noise on init. David. guess    .... on
   Maximum white noise                  ....   0.010
   Pseudo random numbers                .... off
   Inactive MOs                         .... canonical
   Orbital update algorithm             .... Taylor
   Preconditioner                       .... Diag
   Full preconditioner red. dimension   ....   250
   COSX micro iterations for RIJONX calc.... off
 SOSCF                  CNVSOSCF        .... on
   Start iteration      SOSCFMaxIt      ....   150
   Startup grad/error   SOSCFStart      ....  0.003300
   Hessian update       SOSCFHessUp     .... L-BFGS
 Level Shifting         CNVShift        .... on
   Level shift para.    LevelShift      ....    0.2500
   Turn off err/grad.   ShiftErr        ....    0.0010
 Zerner damping         CNVZerner       .... off
 Static damping         CNVDamp         .... on
   Fraction old density DampFac         ....    0.7000
   Max. Damping (<1)    DampMax         ....    0.9800
   Min. Damping (>=0)   DampMin         ....    0.0000
   Turn off err/grad.   DampErr         ....    0.1000

SCF Procedure:
 Maximum # iterations   MaxIter         ....   125
 SCF integral mode      SCFMode         .... Direct
   Integral package                     .... SHARK and LIBINT hybrid scheme
 Reset frequency        DirectResetFreq ....    20
 Integral Threshold     Thresh          ....  1.000e-10 Eh
 Primitive CutOff       TCut            ....  1.000e-11 Eh

Convergence Tolerance:
 Convergence Check Mode ConvCheckMode   .... Total+1el-Energy
 Convergence forced     ConvForced      .... 0
 Energy Change          TolE            ....  1.000e-06 Eh
 1-El. energy change                    ....  1.000e-03 Eh
 Orbital Gradient       TolG            ....  3.330e-04
 Orbital Rotation angle TolX            ....  3.330e-04
 DIIS Error             TolErr          ....  1.000e-06

---------------------
INITIAL GUESS: MOREAD
---------------------
Guess MOs are being read from file: sp_solv.ges
Input Geometry matches current geometry (good)
Atom 0: N(Shells)= 9 and 6 - projection required
Input basis set needs projection
NBasis(read)= 136
NBasis(calc)= 222
Basis set overlap was calculated
Using GuessMode=FMatrix for the initial guess
C*T matrix was formed
Effective Fockian was calculated
Effective Fockian was diagonalized
Initial density was built
                      ------------------
                      INITIAL GUESS DONE (   0.0 sec)
                      ------------------
             **** ENERGY FILE WAS UPDATED (sp_solv.en.tmp) ****
Finished Guess after   0.3 sec
Maximum memory used throughout the entire GUESS-calculation: 14.7 MB

-------------------------------------------------------------------------------------------
                                      ORCA LEAN-SCF
                              memory conserving SCF solver
-------------------------------------------------------------------------------------------

--------------------
CPCM SOLVATION MODEL
--------------------
CPCM parameters:
  Epsilon                                         ...      78.3550
  Refrac                                          ...       1.3328
  Rsolv                                           ...       1.3000
  Surface type                                    ... GAUSSIAN VDW
  Discretization scheme                           ... Constant charge density
    Threshold for H atoms                         ...       5.0000 (charges/Ang^2)
    Threshold for non-H atoms                     ...       5.0000 (charges/Ang^2)
  Epsilon function type                           ...         CPCM
Solvent:                                          ... WATER
SMD-CDS solvent descriptors:
  Soln                                            ...       1.3328
  Soln25                                          ...       1.3323
  Sola                                            ...       0.0000
  Solb                                            ...       0.0000
  Solg                                            ...       0.0000
  Solc                                            ...       0.0000
  Solh                                            ...       0.0000
Radii:
  Scheme                                          ... Element-dependent radii
  Radius for C  used is    3.4960 Bohr (=   1.8500 Ang.)
  Radius for O  used is    2.8724 Bohr (=   1.5200 Ang.)
  Radius for H  used is    2.2677 Bohr (=   1.2000 Ang.)
Calculating surface                               ...        done! (  0.0s)
Cavity surface points                             ...         1490
Cavity Volume                                     ...     875.8135
Cavity Surface-area                               ...     583.5553
Calculating surface distance matrix               ...        done! (  0.0s)
Performing Cholesky decomposition & store         ...        done! (  0.1s)
Overall time for CPCM initialization              ...                 0.1s

----------------------------------------D-I-I-S--------------------------------------------
Iteration    Energy (Eh)           Delta-E    RMSDP     MaxDP     DIISErr   Damp  Time(sec)
-------------------------------------------------------------------------------------------
               ***  Starting incremental Fock matrix formation  ***
    1    -386.0530192413554005     0.00e+00  3.74e-03  1.46e-01  6.26e-01  0.700   3.2
    2    -386.1116082585716640    -5.86e-02  3.01e-03  9.14e-02  4.41e-01  0.700   3.0
    3    -386.1530561491276785    -4.14e-02  2.20e-03  6.58e-02  3.10e-01  0.700   2.9
    4    -386.1821862562787828    -2.91e-02  1.58e-03  4.73e-02  2.17e-01  0.700   2.9
                               ***Turning on AO-DIIS***
    5    -386.2026397184529287    -2.05e-02  1.14e-03  3.43e-02  1.52e-01  0.700   2.9
    6    -386.2169794347520337    -1.43e-02  8.12e-04  2.43e-02  1.06e-01  0.700   2.8
    7    -386.2270454739501702    -1.01e-02  5.73e-04  1.71e-02  7.41e-02  0.700   2.8
    8    -386.2341002956476359    -7.05e-03  1.34e-03  4.00e-02  5.21e-02  0.000   2.8
                              *** Initializing SOSCF ***
---------------------------------------S-O-S-C-F--------------------------------------
Iteration    Energy (Eh)           Delta-E    RMSDP     MaxDP     MaxGrad    Time(sec)
--------------------------------------------------------------------------------------
    9    -386.2505940997391463    -1.65e-02  1.27e-05  4.68e-04  1.85e-04     2.9
               *** Restarting incremental Fock matrix formation ***
   10    -386.2505942218546124    -1.22e-07  7.56e-06  2.11e-04  6.25e-05     3.2
                  *** Gradient check signals convergence ***

               *****************************************************
               *                     SUCCESS                       *
               *           SCF CONVERGED AFTER  10 CYCLES          *
               *****************************************************


SMD CDS free energy correction energy :                 5.51014     Kcal/mol
Total Energy after SMD CDS correction =              -386.241813252 Eh
             **** ENERGY FILE WAS UPDATED (sp_solv.en.tmp) ****

----------------
TOTAL SCF ENERGY
----------------

Total Energy       :       -386.24181325246462 Eh          -10510.17407 eV

Components:
Nuclear Repulsion  :        380.15404384255908 Eh           10344.51744 eV
Electronic Energy  :       -766.38888030896101 Eh          -20854.50166 eV
One Electron Energy:      -1277.69464153407807 Eh          -34767.83876 eV
Two Electron Energy:        511.30576122511707 Eh           13913.33710 eV
CPCM Dielectric    :         -0.01575775545270 Eh              -0.42879 eV
SMD CDS (Gcds)     :          0.00878096938998 Eh               0.23894 eV

Virial components:
Potential Energy   :       -770.88200292841179 Eh          -20976.76574 eV
Kinetic Energy     :        384.64018967594711 Eh           10466.59167 eV
Virial Ratio       :          2.00416395275249

DFT components:
N(Alpha)           :       32.000101863957 electrons
N(Beta)            :       32.000101863957 electrons
N(Total)           :       64.000203727914 electrons
E(X)               :      -52.085051128351 Eh       
E(C)               :       -2.037816110302 Eh       
E(XC)              :      -54.122867238653 Eh       

CPCM Solvation Model Properties:
Surface-charge          :         -0.04803207620281
Corrected charge        :         -0.00000000000000
Outlying charge corr.   :          0.00017073692805 Eh               0.00465 eV
Free-energy (cav+disp)  :          0.00878096938998 Eh               0.23894 eV

---------------
SCF CONVERGENCE
---------------

  Last Energy change         ...    1.2212e-07  Tolerance :   1.0000e-06
  Last MAX-Density change    ...    2.1067e-04  Tolerance :   1.0000e-05
  Last RMS-Density change    ...    7.5612e-06  Tolerance :   1.0000e-06
  Last DIIS Error            ...    1.8490e-04  Tolerance :   1.0000e-06
  Last Orbital Gradient      ...    6.2499e-05  Tolerance :   3.3300e-04
  Last Orbital Rotation      ...    1.4118e-04  Tolerance :   3.3300e-04


----------------
ORBITAL ENERGIES
----------------

  NO   OCC          E(Eh)            E(eV) 
   0   2.0000     -19.002369      -517.0807 
   1   2.0000     -18.944499      -515.5060 
   2   2.0000     -10.162869      -276.5457 
   3   2.0000     -10.074735      -274.1475 
   4   2.0000     -10.035842      -273.0892 
   5   2.0000     -10.021330      -272.6943 
   6   2.0000     -10.018049      -272.6050 
   7   2.0000     -10.008064      -272.3333 
   8   2.0000      -1.077742       -29.3268 
   9   2.0000      -0.989557       -26.9272 
  10   2.0000      -0.769775       -20.9466 
  11   2.0000      -0.723748       -19.6942 
  12   2.0000      -0.679915       -18.5014 
  13   2.0000      -0.607804       -16.5392 
  14   2.0000      -0.545628       -14.8473 
  15   2.0000      -0.524833       -14.2814 
  16   2.0000      -0.468753       -12.7554 
  17   2.0000      -0.462309       -12.5801 
  18   2.0000      -0.451449       -12.2846 
  19   2.0000      -0.432030       -11.7561 
  20   2.0000      -0.394819       -10.7436 
  21   2.0000      -0.393785       -10.7154 
  22   2.0000      -0.381703       -10.3867 
  23   2.0000      -0.355659        -9.6780 
  24   2.0000      -0.346204        -9.4207 
  25   2.0000      -0.321784        -8.7562 
  26   2.0000      -0.317408        -8.6371 
  27   2.0000      -0.300883        -8.1874 
  28   2.0000      -0.293861        -7.9964 
  29   2.0000      -0.290196        -7.8966 
  30   2.0000      -0.276578        -7.5261 
  31   2.0000      -0.254253        -6.9186 
  32   0.0000      -0.019574        -0.5326 
  33   0.0000       0.075351         2.0504 
  34   0.0000       0.094946         2.5836 
  35   0.0000       0.111985         3.0473 
  36   0.0000       0.129774         3.5313 
  37   0.0000       0.136068         3.7026 
  38   0.0000       0.142373         3.8742 
  39   0.0000       0.149540         4.0692 
  40   0.0000       0.162160         4.4126 
  41   0.0000       0.177351         4.8260 
  42   0.0000       0.180863         4.9215 
*Only the first 10 virtual orbitals were printed.

                    ********************************
                    * MULLIKEN POPULATION ANALYSIS *
                    ********************************

-----------------------
MULLIKEN ATOMIC CHARGES
-----------------------
   0 C :   -0.510784
   1 C :   -0.241411
   2 C :   -0.311325
   3 C :   -0.288855
   4 C :    0.411887
   5 O :   -0.513684
   6 O :   -0.208899
   7 C :   -0.322903
   8 H :    0.153633
   9 H :    0.157701
  10 H :    0.153551
  11 H :    0.147533
  12 H :    0.148018
  13 H :    0.156636
  14 H :    0.156247
  15 H :    0.191267
  16 H :    0.187199
  17 H :    0.174062
  18 H :    0.176128
  19 H :    0.184000
Sum of atomic charges:   -0.0000000

--------------------------------
MULLIKEN REDUCED ORBITAL CHARGES
--------------------------------
  0 C s       :     3.345981  s :     3.345981
      pz      :     1.047447  p :     3.137714
      px      :     1.005948
      py      :     1.084318
      dz2     :     0.004479  d :     0.027089
      dxz     :     0.006663
      dyz     :     0.005359
      dx2y2   :     0.008138
      dxy     :     0.002450

  1 C s       :     3.226175  s :     3.226175
      pz      :     0.999197  p :     2.978159
      px      :     0.902084
      py      :     1.076878
      dz2     :     0.006367  d :     0.037077
      dxz     :     0.008943
      dyz     :     0.006698
      dx2y2   :     0.010508
      dxy     :     0.004561

  2 C s       :     3.264860  s :     3.264860
      pz      :     1.001219  p :     3.010001
      px      :     0.927956
      py      :     1.080825
      dz2     :     0.006104  d :     0.036464
      dxz     :     0.008988
      dyz     :     0.006682
      dx2y2   :     0.010211
      dxy     :     0.004478

  3 C s       :     3.187441  s :     3.187441
      pz      :     1.025801  p :     3.066208
      px      :     0.935570
      py      :     1.104837
      dz2     :     0.005491  d :     0.035206
      dxz     :     0.009505
      dyz     :     0.005861
      dx2y2   :     0.010089
      dxy     :     0.004260

  4 C s       :     3.135618  s :     3.135618
      pz      :     0.761393  p :     2.327844
      px      :     0.842900
      py      :     0.723552
      dz2     :     0.027682  d :     0.124651
      dxz     :     0.049542
      dyz     :     0.022758
      dx2y2   :     0.010907
      dxy     :     0.013763

  5 O s       :     3.837633  s :     3.837633
      pz      :     1.340346  p :     4.652854
      px      :     1.823191
      py      :     1.489318
      dz2     :     0.009364  d :     0.023197
      dxz     :     0.002621
      dyz     :     0.007063
      dx2y2   :     0.002304
      dxy     :     0.001845

  6 O s       :     3.702464  s :     3.702464
      pz      :     1.633741  p :     4.475211
      px      :     1.105332
      py      :     1.736139
      dz2     :     0.009836  d :     0.031224
      dxz     :     0.004359
      dyz     :     0.004653
      dx2y2   :    -0.000687
      dxy     :     0.013062

  7 C s       :     3.342107  s :     3.342107
      pz      :     1.075850  p :     2.938551
      px      :     0.746040
      py      :     1.116662
      dz2     :     0.009244  d :     0.042245
      dxz     :     0.008598
      dyz     :     0.002825
      dx2y2   :     0.009694
      dxy     :     0.011884

  8 H s       :     0.828069  s :     0.828069
      pz      :     0.008950  p :     0.018298
      px      :     0.003574
      py      :     0.005774

  9 H s       :     0.823934  s :     0.823934
      pz      :     0.005468  p :     0.018365
      px      :     0.008854
      py      :     0.004042

 10 H s       :     0.828144  s :     0.828144
      pz      :     0.004186  p :     0.018304
      px      :     0.003582
      py      :     0.010536

 11 H s       :     0.834537  s :     0.834537
      pz      :     0.008920  p :     0.017929
      px      :     0.003391
      py      :     0.005619

 12 H s       :     0.834050  s :     0.834050
      pz      :     0.004024  p :     0.017931
      px      :     0.003383
      py      :     0.010524

 13 H s       :     0.825382  s :     0.825382
      pz      :     0.004093  p :     0.017982
      px      :     0.003311
      py      :     0.010578

 14 H s       :     0.825753  s :     0.825753
      pz      :     0.009103  p :     0.018001
      px      :     0.003328
      py      :     0.005570

 15 H s       :     0.790479  s :     0.790479
      pz      :     0.004193  p :     0.018254
      px      :     0.003284
      py      :     0.010778

 16 H s       :     0.794590  s :     0.794590
      pz      :     0.009227  p :     0.018211
      px      :     0.003218
      py      :     0.005766

 17 H s       :     0.808044  s :     0.808044
      pz      :     0.004112  p :     0.017894
      px      :     0.005448
      py      :     0.008335

 18 H s       :     0.806069  s :     0.806069
      pz      :     0.004372  p :     0.017803
      px      :     0.003651
      py      :     0.009780

 19 H s       :     0.797431  s :     0.797431
      pz      :     0.012360  p :     0.018570
      px      :     0.002633
      py      :     0.003576


------------------------
MULLIKEN OVERLAP CHARGES
------------------------
B(  0-C ,  1-C ) :   0.4560 B(  0-C ,  2-C ) :  -0.1819 B(  0-C ,  8-H ) :   0.8528 
B(  0-C ,  9-H ) :   0.8118 B(  0-C , 10-H ) :   0.8517 B(  0-C , 11-H ) :  -0.0592 
B(  0-C , 12-H ) :  -0.0596 B(  1-C ,  2-C ) :   0.4477 B(  1-C ,  3-C ) :  -0.1178 
B(  1-C ,  8-H ) :  -0.0914 B(  1-C ,  9-H ) :  -0.0864 B(  1-C , 10-H ) :  -0.0877 
B(  1-C , 11-H ) :   0.8520 B(  1-C , 12-H ) :   0.8633 B(  1-C , 13-H ) :  -0.0648 
B(  1-C , 14-H ) :  -0.0705 B(  2-C ,  3-C ) :   0.3873 B(  2-C ,  4-C ) :  -0.0951 
B(  2-C ,  5-O ) :   0.0995 B(  2-C , 11-H ) :  -0.0788 B(  2-C , 12-H ) :  -0.0895 
B(  2-C , 13-H ) :   0.8548 B(  2-C , 14-H ) :   0.8555 B(  2-C , 15-H ) :  -0.0640 
B(  2-C , 16-H ) :  -0.0649 B(  3-C ,  4-C ) :   0.6294 B(  3-C ,  5-O ) :  -0.2731 
B(  3-C ,  6-O ) :  -0.1742 B(  3-C , 13-H ) :  -0.0647 B(  3-C , 14-H ) :  -0.0576 
B(  3-C , 15-H ) :   0.7899 B(  3-C , 16-H ) :   0.8071 B(  4-C ,  5-O ) :   1.0230 
B(  4-C ,  6-O ) :   0.5261 B(  4-C ,  7-C ) :  -0.1971 B(  4-C , 19-H ) :  -0.0536 
B(  5-O ,  6-O ) :  -0.2092 B(  6-O ,  7-C ) :   0.3374 B(  6-O , 17-H ) :  -0.0752 
B(  6-O , 18-H ) :  -0.0695 B(  6-O , 19-H ) :  -0.0561 B(  7-C , 17-H ) :   0.7943 
B(  7-C , 18-H ) :   0.7979 B(  7-C , 19-H ) :   0.8457 B(  8-H , 10-H ) :  -0.0528 
B( 11-H , 12-H ) :  -0.0552 B( 13-H , 14-H ) :  -0.0567 


                     *******************************
                     * LOEWDIN POPULATION ANALYSIS *
                     *******************************

----------------------
LOEWDIN ATOMIC CHARGES
----------------------
   0 C :   -0.432001
   1 C :   -0.313750
   2 C :   -0.294196
   3 C :   -0.226856
   4 C :    0.374028
   5 O :   -0.498632
   6 O :   -0.607287
   7 C :   -0.042297
   8 H :    0.152644
   9 H :    0.152768
  10 H :    0.152600
  11 H :    0.155233
  12 H :    0.155213
  13 H :    0.163149
  14 H :    0.163847
  15 H :    0.194183
  16 H :    0.192744
  17 H :    0.185368
  18 H :    0.182548
  19 H :    0.190693

-------------------------------
LOEWDIN REDUCED ORBITAL CHARGES
-------------------------------
  0 C s       :     2.974551  s :     2.974551
      pz      :     1.135649  p :     3.394346
      px      :     1.102118
      py      :     1.156578
      dz2     :     0.009942  d :     0.063104
      dxz     :     0.015840
      dyz     :     0.012945
      dx2y2   :     0.019586
      dxy     :     0.004791

  1 C s       :     2.937106  s :     2.937106
      pz      :     1.109655  p :     3.296479
      px      :     1.046268
      py      :     1.140556
      dz2     :     0.013154  d :     0.080165
      dxz     :     0.019706
      dyz     :     0.015194
      dx2y2   :     0.023830
      dxy     :     0.008281

  2 C s       :     2.932225  s :     2.932225
      pz      :     1.106775  p :     3.282593
      px      :     1.033058
      py      :     1.142760
      dz2     :     0.012741  d :     0.079378
      dxz     :     0.020105
      dyz     :     0.015160
      dx2y2   :     0.023140
      dxy     :     0.008232

  3 C s       :     2.918041  s :     2.918041
      pz      :     1.094109  p :     3.234924
      px      :     1.004545
      py      :     1.136270
      dz2     :     0.011156  d :     0.073892
      dxz     :     0.020291
      dyz     :     0.012960
      dx2y2   :     0.022200
      dxy     :     0.007285

  4 C s       :     2.738180  s :     2.738180
      pz      :     0.966270  p :     2.616648
      px      :     0.935414
      py      :     0.714964
      dz2     :     0.064792  d :     0.271144
      dxz     :     0.111801
      dyz     :     0.045623
      dx2y2   :     0.023011
      dxy     :     0.025917

  5 O s       :     3.543508  s :     3.543508
      pz      :     1.490375  p :     4.728155
      px      :     1.759331
      py      :     1.478449
      dz2     :     0.075187  d :     0.226970
      dxz     :     0.070159
      dyz     :     0.046615
      dx2y2   :     0.022361
      dxy     :     0.012648

  6 O s       :     3.467305  s :     3.467305
      pz      :     1.643942  p :     4.673862
      px      :     1.320792
      py      :     1.709128
      dz2     :     0.091454  d :     0.466119
      dxz     :     0.124158
      dyz     :     0.031170
      dx2y2   :     0.107875
      dxy     :     0.111462

  7 C s       :     2.908052  s :     2.908052
      pz      :     1.082635  p :     3.032709
      px      :     0.838013
      py      :     1.112061
      dz2     :     0.024681  d :     0.101537
      dxz     :     0.020084
      dyz     :     0.005712
      dx2y2   :     0.021959
      dxy     :     0.029101

  8 H s       :     0.803642  s :     0.803642
      pz      :     0.021930  p :     0.043714
      px      :     0.008014
      py      :     0.013770

  9 H s       :     0.803369  s :     0.803369
      pz      :     0.013127  p :     0.043863
      px      :     0.021691
      py      :     0.009044

 10 H s       :     0.803682  s :     0.803682
      pz      :     0.009406  p :     0.043718
      px      :     0.008025
      py      :     0.026287

 11 H s       :     0.801470  s :     0.801470
      pz      :     0.021739  p :     0.043297
      px      :     0.007936
      py      :     0.013622

 12 H s       :     0.801494  s :     0.801494
      pz      :     0.009336  p :     0.043292
      px      :     0.007909
      py      :     0.026047

 13 H s       :     0.793351  s :     0.793351
      pz      :     0.009508  p :     0.043500
      px      :     0.007661
      py      :     0.026331

 14 H s       :     0.792560  s :     0.792560
      pz      :     0.022358  p :     0.043593
      px      :     0.007693
      py      :     0.013541

 15 H s       :     0.760896  s :     0.760896
      pz      :     0.010028  p :     0.044921
      px      :     0.007620
      py      :     0.027274

 16 H s       :     0.762456  s :     0.762456
      pz      :     0.023097  p :     0.044800
      px      :     0.007430
      py      :     0.014273

 17 H s       :     0.773492  s :     0.773492
      pz      :     0.009830  p :     0.041140
      px      :     0.010977
      py      :     0.020333

 18 H s       :     0.776141  s :     0.776141
      pz      :     0.010566  p :     0.041311
      px      :     0.007369
      py      :     0.023375

 19 H s       :     0.764486  s :     0.764486
      pz      :     0.030340  p :     0.044821
      px      :     0.006535
      py      :     0.007945


---------------------------------
LOEWDIN BOND ORDERS (THRESH 0.050000)
---------------------------------
B(  0-C ,  1-C ) :   1.1436 B(  0-C ,  2-C ) :   0.0762 B(  0-C ,  8-H ) :   0.9293 
B(  0-C ,  9-H ) :   0.9298 B(  0-C , 10-H ) :   0.9294 B(  1-C ,  2-C ) :   1.1006 
B(  1-C ,  3-C ) :   0.0800 B(  1-C , 11-H ) :   0.8936 B(  1-C , 12-H ) :   0.8938 
B(  2-C ,  3-C ) :   1.0818 B(  2-C ,  4-C ) :   0.0739 B(  2-C ,  5-O ) :   0.0537 
B(  2-C , 13-H ) :   0.8846 B(  2-C , 14-H ) :   0.8831 B(  3-C ,  4-C ) :   0.9287 
B(  3-C ,  5-O ) :   0.1777 B(  3-C ,  6-O ) :   0.1901 B(  3-C , 15-H ) :   0.8523 
B(  3-C , 16-H ) :   0.8540 B(  4-C ,  5-O ) :   2.1410 B(  4-C ,  6-O ) :   1.4655 
B(  4-C ,  7-C ) :   0.0875 B(  5-O ,  6-O ) :   0.4535 B(  5-O ,  7-C ) :   0.0741 
B(  6-O ,  7-C ) :   1.3499 B(  6-O , 17-H ) :   0.1001 B(  6-O , 18-H ) :   0.0996 
B(  6-O , 19-H ) :   0.0950 B(  7-C , 17-H ) :   0.8615 B(  7-C , 18-H ) :   0.8617 
B(  7-C , 19-H ) :   0.8412 

------------------------------------------
LOEWDIN REDUCED ORBITAL POPULATIONS PER MO
-------------------------------------------
THRESHOLD FOR PRINTING IS 0.1%%
                      0         1         2         3         4         5   
                 -19.00237 -18.94450 -10.16287 -10.07474 -10.03584 -10.02133
                   2.00000   2.00000   2.00000   2.00000   2.00000   2.00000
                  --------  --------  --------  --------  --------  --------
 2 C  s               0.0       0.0       0.0       0.0       0.0      99.6
 3 C  s               0.0       0.0       0.0       0.0      99.7       0.0
 4 C  s               0.0       0.0      98.9       0.0       0.0       0.0
 5 O  s               0.0      99.9       0.0       0.0       0.0       0.0
 5 O  pz              0.0       0.0       0.2       0.0       0.0       0.0
 5 O  dz2             0.0       0.0       0.3       0.0       0.0       0.0
 6 O  s              99.9       0.0       0.0       0.0       0.0       0.0
 6 O  dxz             0.0       0.0       0.2       0.1       0.0       0.0
 6 O  dx2y2           0.0       0.0       0.1       0.1       0.0       0.0
 7 C  s               0.0       0.0       0.0      99.4       0.0       0.0

                      6         7         8         9        10        11   
                 -10.01805 -10.00806  -1.07774  -0.98956  -0.76977  -0.72375
                   2.00000   2.00000   2.00000   2.00000   2.00000   2.00000
                  --------  --------  --------  --------  --------  --------
 0 C  s               0.0      99.7       0.0       0.0       5.1      11.8
 0 C  pz              0.0       0.0       0.0       0.0       0.3       0.4
 0 C  px              0.1       0.0       0.0       0.0       1.4       0.9
 1 C  s              99.6       0.0       0.0       0.0      13.9      12.8
 1 C  pz              0.0       0.0       0.0       0.0       0.8       0.6
 1 C  px              0.0       0.1       0.0       0.0       1.0       0.9
 1 C  py              0.0       0.0       0.0       0.0       0.1       0.1
 2 C  s               0.1       0.0       0.1       0.1      20.7       1.2
 2 C  pz              0.0       0.0       0.0       0.0       1.4       0.0
 2 C  px              0.1       0.0       0.3       0.2       0.0       5.4
 2 C  py              0.0       0.0       0.0       0.0       0.2       0.0
 3 C  s               0.0       0.0       1.0       0.1      18.8       6.0
 3 C  pz              0.0       0.0       0.3       0.4       0.6       0.0
 3 C  px              0.0       0.0       1.7       0.0       0.9       2.9
 4 C  s               0.0       0.0      17.2       2.9       2.1       3.8
 4 C  pz              0.0       0.0       0.1      19.8       2.8       4.7
 4 C  px              0.0       0.0       4.6       2.4       4.3       1.5
 4 C  py              0.0       0.0       0.0       1.6       0.3       0.5
 4 C  dz2             0.0       0.0       0.3       1.1       0.0       0.0
 4 C  dxz             0.0       0.0       0.3       0.4       0.0       0.0
 4 C  dyz             0.0       0.0       0.2       0.2       0.0       0.0
 4 C  dx2y2           0.0       0.0       0.2       0.2       0.0       0.1
 5 O  s               0.0       0.0      15.3      39.9       1.0       1.2
 5 O  pz              0.0       0.0       3.1       2.8       0.3       0.5
 5 O  px              0.0       0.0       0.0       0.1       0.2       0.1
 5 O  py              0.0       0.0       0.3       0.3       0.0       0.1
 5 O  dz2             0.0       0.0       0.9       0.1       0.1       0.4
 5 O  dxz             0.0       0.0       0.2       0.2       0.3       0.1
 5 O  dyz             0.0       0.0       0.3       0.0       0.1       0.1
 6 O  s               0.0       0.0      39.0      19.9       0.1       0.0
 6 O  pz              0.0       0.0       2.3       0.4       0.0       0.0
 6 O  px              0.0       0.0       0.3       0.6       2.8      13.9
 6 O  py              0.0       0.0       0.2       0.0       0.0       0.0
 6 O  dz2             0.0       0.0       0.1       0.4       0.1       0.0
 6 O  dxz             0.0       0.0       0.3       0.7       0.1       0.6
 6 O  dx2y2           0.0       0.0       0.4       0.0       0.1       0.0
 7 C  s               0.0       0.0       4.0       2.1       1.2       9.5
 7 C  pz              0.0       0.0       0.3       0.6       0.0       0.1
 7 C  px              0.0       0.0       4.8       1.5       0.1       0.2
 7 C  dxz             0.0       0.0       0.1       0.1       0.0       0.0
 7 C  dx2y2           0.0       0.0       0.2       0.1       0.0       0.0
 8 H  s               0.0       0.0       0.0       0.0       0.6       1.8
 8 H  pz              0.0       0.0       0.0       0.0       0.0       0.1
 9 H  s               0.0       0.0       0.0       0.0       0.6       1.8
 9 H  px              0.0       0.0       0.0       0.0       0.0       0.1
10 H  s               0.0       0.0       0.0       0.0       0.6       1.8
10 H  py              0.0       0.0       0.0       0.0       0.1       0.2
11 H  s               0.0       0.0       0.0       0.0       1.7       1.9
11 H  pz              0.0       0.0       0.0       0.0       0.1       0.1
12 H  s               0.0       0.0       0.0       0.0       1.7       1.9
12 H  py              0.0       0.0       0.0       0.0       0.2       0.2
13 H  s               0.0       0.0       0.0       0.0       2.6       0.2
13 H  py              0.0       0.0       0.0       0.0       0.2       0.0
14 H  s               0.0       0.0       0.0       0.0       2.6       0.2
14 H  pz              0.0       0.0       0.0       0.0       0.2       0.0
15 H  s               0.0       0.0       0.0       0.0       2.6       1.1
15 H  py              0.0       0.0       0.0       0.0       0.2       0.1
16 H  s               0.0       0.0       0.1       0.0       2.6       1.2
16 H  pz              0.0       0.0       0.0       0.0       0.2       0.1
17 H  s               0.0       0.0       0.2       0.2       0.2       1.9
17 H  py              0.0       0.0       0.0       0.0       0.0       0.1
18 H  s               0.0       0.0       0.2       0.2       0.2       1.8
18 H  py              0.0       0.0       0.0       0.0       0.0       0.1
19 H  s               0.0       0.0       0.4       0.1       0.2       1.6
19 H  pz              0.0       0.0       0.0       0.0       0.0       0.2

                     12        13        14        15        16        17   
                  -0.67992  -0.60780  -0.54563  -0.52483  -0.46875  -0.46231
                   2.00000   2.00000   2.00000   2.00000   2.00000   2.00000
                  --------  --------  --------  --------  --------  --------
 0 C  s              11.6      14.2       4.8       0.0       0.3       0.0
 0 C  pz              0.1       0.3       3.9       0.5       0.7       0.1
 0 C  px              0.0       2.2       2.5       0.0       0.8       0.0
 0 C  py              0.0       0.0       0.6       0.1       0.1       0.6
 0 C  dxz             0.0       0.0       0.1       0.0       0.0       0.0
 1 C  s               2.7       2.3      12.3       0.8       0.9       0.0
 1 C  pz              0.1       0.1       7.1       2.2       0.1       0.4
 1 C  px              4.9       7.8       0.0       0.2       0.9       0.0
 1 C  py              0.0       0.0       1.1       0.4       0.0       2.3
 1 C  dxz             0.1       0.2       0.0       0.0       0.0       0.0
 2 C  s               4.3       9.6       5.6       3.0       0.1       0.0
 2 C  pz              0.1       0.2       5.5       3.7       2.3       1.0
 2 C  px              3.6       2.2       2.3       0.3       0.0       0.0
 2 C  py              0.0       0.0       0.9       0.6       0.3       6.0
 3 C  s               6.8       5.9       0.0       3.1       2.0       0.0
 3 C  pz              0.2       0.7       2.0       3.3      10.5       2.1
 3 C  px              1.5       4.9       1.5       0.2       6.7       0.0
 3 C  py              0.0       0.1       0.3       0.6       1.5      12.9
 3 C  dxz             0.0       0.1       0.1       0.0       0.2       0.0
 3 C  dx2y2           0.0       0.0       0.0       0.1       0.1       0.0
 4 C  s               0.8       1.4       1.0       3.1       3.1       0.0
 4 C  pz              0.7       0.8       0.4       0.8       0.5       1.7
 4 C  px              3.5       4.3       0.3       2.5      11.9       0.0
 4 C  py              0.0       0.2       0.1       0.0       0.0      16.2
 4 C  dxz             0.2       0.2       0.0       0.0       0.0       0.0
 5 O  s               0.0       0.3       0.2       3.2       3.8       0.1
 5 O  pz              0.1       0.3       0.4       3.8       9.9       0.1
 5 O  px              0.2       0.2       0.4       0.8      10.7       0.0
 5 O  py              0.0       0.0       0.0       0.3       0.8       8.2
 5 O  dz2             0.1       0.1       0.1       0.1       0.2       0.2
 5 O  dxz             0.1       0.2       0.0       0.1       1.0       0.0
 5 O  dyz             0.0       0.0       0.0       0.1       0.0       0.8
 5 O  dx2y2           0.1       0.0       0.0       0.1       0.0       0.1
 6 O  s               0.6       1.5       1.6       4.1       0.4       0.0
 6 O  pz              0.1       0.1       1.2       8.9       5.9       2.3
 6 O  px             13.6       0.1       2.7      13.0       1.4       0.1
 6 O  py              0.0       0.0       0.1       0.6       0.2      19.5
 6 O  dz2             0.3       0.5       0.0       0.0       0.6       0.1
 6 O  dxz             0.8       0.1       0.0       0.1       0.8       0.0
 6 O  dyz             0.0       0.0       0.0       0.0       0.0       0.3
 6 O  dx2y2           0.9       1.3       0.3       0.1       0.3       0.0
 6 O  dxy             0.1       0.0       0.0       0.0       0.1       0.0
 7 C  s              16.4       5.3       2.0       3.8       0.0       0.0
 7 C  pz              0.1       0.1       1.5       7.2       6.2       0.8
 7 C  px              0.3       1.4       2.2       5.6       0.4       0.0
 7 C  py              0.0       0.0       0.2       0.9       0.3       9.5
 7 C  dxz             0.0       0.0       0.1       0.3       0.0       0.0
 7 C  dx2y2           0.0       0.0       0.1       0.1       0.0       0.0
 8 H  s               2.2       3.9       2.9       0.1       0.3       0.1
 8 H  pz              0.1       0.2       0.1       0.0       0.0       0.0
 9 H  s               2.3       4.6       1.7       0.0       0.2       0.0
 9 H  pz              0.1       0.1       0.1       0.0       0.0       0.0
 9 H  px              0.1       0.2       0.0       0.0       0.0       0.0
10 H  s               2.2       3.9       2.9       0.1       0.3       0.1
10 H  py              0.2       0.3       0.2       0.0       0.0       0.0
11 H  s               0.5       0.6       6.4       0.8       0.4       0.5
11 H  pz              0.0       0.0       0.3       0.0       0.0       0.0
11 H  py              0.0       0.0       0.2       0.0       0.0       0.0
12 H  s               0.5       0.6       6.4       0.8       0.4       0.5
12 H  py              0.0       0.1       0.5       0.1       0.0       0.0
13 H  s               0.8       2.5       3.5       2.2       0.1       1.2
13 H  py              0.1       0.2       0.2       0.2       0.0       0.0
14 H  s               0.8       2.5       3.5       2.1       0.1       1.3
14 H  pz              0.1       0.2       0.1       0.1       0.0       0.1
14 H  py              0.0       0.1       0.1       0.1       0.0       0.0
15 H  s               1.2       2.0       0.3       2.3       3.8       2.7
15 H  py              0.1       0.2       0.0       0.1       0.2       0.1
16 H  s               1.2       1.9       0.2       2.2       3.8       3.1
16 H  pz              0.1       0.1       0.0       0.1       0.1       0.1
16 H  py              0.0       0.1       0.0       0.1       0.1       0.0
17 H  s               4.0       1.9       0.8       1.2       0.8       1.2
17 H  px              0.1       0.0       0.0       0.0       0.0       0.1
17 H  py              0.2       0.1       0.0       0.1       0.0       0.0
18 H  s               3.8       1.9       1.0       2.2       0.2       2.7
18 H  py              0.3       0.1       0.0       0.1       0.0       0.1
19 H  s               3.2       1.6       1.8       5.6       2.4       0.2
19 H  pz              0.3       0.1       0.1       0.3       0.1       0.0

                     18        19        20        21        22        23   
                  -0.45145  -0.43203  -0.39482  -0.39379  -0.38170  -0.35566
                   2.00000   2.00000   2.00000   2.00000   2.00000   2.00000
                  --------  --------  --------  --------  --------  --------
 0 C  s               0.0       0.0       0.0       0.0       0.1       0.0
 0 C  pz              0.0       1.0       9.0       1.6       1.7       1.0
 0 C  px              0.5       0.0       5.9       0.1      17.2       0.1
 0 C  py              0.0       6.6       1.3      13.1       0.0      11.2
 0 C  dxz             0.0       0.0       0.0       0.0       0.2       0.0
 1 C  s               0.0       0.0       0.0       0.0       0.5       0.0
 1 C  pz              0.5       2.3       7.1       1.0       6.8       0.0
 1 C  px              0.0       0.0       3.8       0.0       1.1       0.0
 1 C  py              0.0      15.2       1.0      10.5       0.5       0.5
 1 C  dxy             0.0       0.0       0.0       0.0       0.0       0.1
 2 C  s               0.1       0.0       0.0       0.0       0.7       0.0
 2 C  pz              1.8       2.1       0.9       0.0       2.5       0.9
 2 C  px              0.9       0.0       9.0       0.1       4.1       0.0
 2 C  py              0.2      14.6       0.2       0.0       0.6       7.6
 2 C  dxy             0.0       0.0       0.0       0.1       0.0       0.0
 3 C  s               0.5       0.0       0.0       0.0       0.1       0.0
 3 C  pz              0.0       0.6       8.8       1.5       0.3       0.9
 3 C  px              2.6       0.0       0.0       0.1      10.1       0.0
 3 C  py              0.0       4.6       1.3      11.8       0.1       4.1
 3 C  dxz             0.0       0.0       0.0       0.0       0.2       0.0
 4 C  s               0.9       0.0       0.2       0.0       0.2       0.0
 4 C  pz              6.0       0.2       2.7       0.3       0.8       1.0
 4 C  px              0.5       0.0       1.4       0.0       4.0       0.0
 4 C  py              1.0       1.2       0.3       4.1       0.1       9.0
 4 C  dz2             0.2       0.0       0.2       0.0       0.1       0.1
 4 C  dxz             0.1       0.0       0.0       0.0       0.2       0.0
 4 C  dyz             0.0       0.0       0.0       0.0       0.0       0.3
 4 C  dx2y2           0.0       0.0       0.1       0.0       0.0       0.0
 4 C  dxy             0.0       0.1       0.0       0.1       0.0       0.1
 5 O  s              10.5       0.0       0.8       0.0       0.2       0.0
 5 O  pz             29.0       0.0       8.5       0.7       2.2       1.4
 5 O  px              0.5       0.0       0.5       0.0       0.4       0.0
 5 O  py              1.9       0.9       0.7       4.0       0.2      23.3
 5 O  dz2             0.2       0.0       0.1       0.0       0.0       0.1
 5 O  dyz             0.1       0.1       0.0       0.1       0.0       0.3
 5 O  dx2y2           0.0       0.0       0.3       0.0       0.1       0.1
 5 O  dxy             0.0       0.1       0.0       0.1       0.0       0.0
 6 O  s               1.1       0.0       0.0       0.0       0.3       0.0
 6 O  pz             12.3       0.8       2.4       0.1       2.2       0.0
 6 O  px              8.2       0.0       0.3       0.0       4.7       0.0
 6 O  py              2.4      10.7       0.1       1.5       0.2       1.4
 6 O  dz2             0.4       0.1       0.1       0.0       0.0       0.0
 6 O  dxz             0.1       0.0       0.3       0.1       0.5       0.1
 6 O  dyz             0.1       0.1       0.0       0.0       0.0       0.2
 6 O  dx2y2           0.2       0.1       0.1       0.0       0.0       0.0
 6 O  dxy             0.0       0.4       0.0       2.4       0.0       1.5
 7 C  s               0.8       0.0       0.0       0.0       0.1       0.0
 7 C  pz              0.5       0.7       6.7       0.7       6.5       0.7
 7 C  px              9.4       0.0       3.8       0.1       9.8       0.0
 7 C  py              0.2      11.4       0.3      14.6       0.2       9.1
 7 C  dx2y2           0.2       0.0       0.0       0.0       0.1       0.0
 7 C  dxy             0.0       0.0       0.0       0.1       0.0       0.2
 8 H  s               0.0       1.6       1.3       3.5       0.2       3.3
 8 H  pz              0.0       0.1       0.0       0.1       0.0       0.1
 8 H  px              0.0       0.0       0.0       0.0       0.1       0.0
 9 H  s               0.2       0.0       5.6       0.0       8.1       0.1
 9 H  px              0.0       0.0       0.1       0.0       0.1       0.0
10 H  s               0.0       1.6       1.2       3.7       0.0       4.1
10 H  px              0.0       0.0       0.0       0.0       0.1       0.0
11 H  s               0.0       3.5       1.2       2.5       0.5       0.1
11 H  pz              0.0       0.1       0.0       0.1       0.0       0.0
12 H  s               0.0       3.5       1.1       2.9       0.2       0.2
13 H  s               0.3       3.3       0.3       0.0       0.0       2.6
14 H  s               0.4       3.2       0.3       0.0       0.0       1.9
14 H  pz              0.0       0.1       0.0       0.0       0.0       0.1
15 H  s               0.1       1.2       1.4       3.6       0.0       1.5
16 H  s               0.1       1.1       1.4       3.4       0.4       1.7
16 H  pz              0.0       0.0       0.0       0.1       0.0       0.0
17 H  s               3.1       2.0       2.6       3.9       4.3       2.7
17 H  py              0.1       0.0       0.1       0.0       0.1       0.0
18 H  s               1.1       3.6       0.7       5.4       1.6       4.9
19 H  s               0.0       0.2       2.9       0.2       2.9       0.2

                     24        25        26        27        28        29   
                  -0.34620  -0.32178  -0.31741  -0.30088  -0.29386  -0.29020
                   2.00000   2.00000   2.00000   2.00000   2.00000   2.00000
                  --------  --------  --------  --------  --------  --------
 0 C  s               0.1       0.0       0.0       0.9       0.0       0.0
 0 C  pz             20.2       0.9       1.5       9.6       2.6       1.1
 0 C  px              0.2       1.6       0.1       8.4      12.8       0.0
 0 C  py              2.5       0.5      12.5       1.6       0.4       6.3
 0 C  dz2             0.0       0.0       0.1       0.0       0.1       0.2
 0 C  dxz             0.0       0.0       0.0       0.1       0.3       0.0
 0 C  dyz             0.0       0.0       0.2       0.0       0.0       0.3
 0 C  dx2y2           0.3       0.0       0.0       0.2       0.3       0.0
 1 C  s               0.0       0.0       0.0       0.6       0.2       0.0
 1 C  pz              1.7       0.1       0.5      15.9       5.1       2.9
 1 C  px             10.5       0.6       0.0       3.5      16.5       0.0
 1 C  py              0.2       0.1       3.4       2.7       0.9      16.7
 1 C  dz2             0.0       0.0       0.0       0.1       0.0       0.4
 1 C  dxz             0.0       0.0       0.0       0.1       0.4       0.0
 1 C  dyz             0.0       0.0       0.0       0.0       0.0       0.5
 1 C  dx2y2           0.0       0.0       0.0       0.6       0.2       0.1
 1 C  dxy             0.0       0.0       0.1       0.0       0.1       0.0
 2 C  s               0.1       0.1       0.0       0.5       0.5       0.0
 2 C  pz             13.9       0.3       1.2      11.8       3.5       1.7
 2 C  px              0.5       1.0       0.1       1.9      19.6       0.0
 2 C  py              1.7       0.6       9.1       1.8       0.7       9.4
 2 C  dz2             0.0       0.0       0.1       0.1       0.0       0.2
 2 C  dxz             0.0       0.0       0.0       0.2       0.3       0.0
 2 C  dyz             0.0       0.0       0.1       0.0       0.0       0.4
 2 C  dx2y2           0.2       0.0       0.0       0.5       0.1       0.1
 3 C  s               0.2       0.3       0.0       0.8       0.2       0.0
 3 C  pz              8.5       3.0       1.1       5.4       0.2       0.2
 3 C  px              1.3       0.1       0.0       6.8       4.3       0.0
 3 C  py              1.5       0.1      14.4       0.7       0.0       0.8
 3 C  dz2             0.0       0.0       0.2       0.0       0.1       0.1
 3 C  dxz             0.0       0.0       0.0       0.1       0.2       0.0
 3 C  dyz             0.0       0.0       0.3       0.0       0.0       0.1
 3 C  dx2y2           0.3       0.0       0.1       0.1       0.1       0.0
 4 C  s               0.1       0.2       0.0       0.1       0.6       0.0
 4 C  pz              0.5       2.9       0.1       0.0       0.8       0.0
 4 C  px              1.6       0.6       0.1       0.0       1.6       0.0
 4 C  py              0.1       0.2       0.7       0.0       0.1       0.0
 4 C  dz2             0.0       0.7       0.0       0.0       0.0       0.1
 4 C  dxz             0.1       0.0       0.0       0.0       0.0       0.0
 4 C  dyz             0.0       0.0       0.3       0.0       0.0       0.2
 4 C  dx2y2           0.0       0.2       0.1       0.0       0.0       0.0
 5 O  s               0.1       0.6       0.0       0.0       0.1       0.0
 5 O  pz              1.2       5.4       1.8       0.0       0.7       0.3
 5 O  px              2.2       0.5       0.1       0.2       1.5       0.0
 5 O  py              0.0       1.3       8.4       0.0       0.1       3.7
 5 O  dz2             0.0       0.4       0.0       0.0       0.2       0.0
 5 O  dxz             0.1       0.0       0.0       0.1       0.0       0.0
 5 O  dx2y2           0.0       0.1       0.0       0.0       0.1       0.0
 6 O  s               0.2       3.0       0.2       0.3       0.5       0.0
 6 O  pz              0.2      28.9       1.8       0.8       2.3       0.3
 6 O  px              0.1       0.6       0.0       0.5       0.9       0.0
 6 O  py              0.1       2.4       0.0       0.0       0.3       4.1
 6 O  dz2             0.0       1.1       0.0       0.1       0.3       0.0
 6 O  dxz             0.0       0.8       0.0       0.0       0.0       0.0
 6 O  dyz             0.0       0.0       0.2       0.0       0.0       0.0
 6 O  dx2y2           0.0       0.4       0.1       0.1       0.3       0.0
 6 O  dxy             0.0       0.0       0.0       0.0       0.0       0.2
 7 C  s               0.0       0.2       0.0       0.0       0.1       0.0
 7 C  pz              1.9      16.8       1.2       0.2       0.2       0.0
 7 C  px              0.1       0.2       0.0       0.3       0.8       0.0
 7 C  py              0.2       1.1       0.0       0.0       0.1       0.8
 7 C  dz2             0.0       0.8       0.0       0.0       0.0       0.0
 7 C  dxz             0.0       0.1       0.0       0.0       0.0       0.0
 8 H  s               4.6       0.9       5.2       1.6       1.2       4.7
 8 H  pz              0.0       0.0       0.1       0.0       0.0       0.0
 8 H  px              0.0       0.0       0.0       0.1       0.1       0.0
 8 H  py              0.2       0.0       0.0       0.1       0.0       0.0
 9 H  s               2.8       1.1       0.1       0.0      10.8       0.0
 9 H  px              0.1       0.0       0.0       0.1       0.0       0.0
 9 H  py              0.0       0.0       0.1       0.0       0.0       0.1
10 H  s               3.9       0.1       6.0       1.9       1.1       4.4
10 H  px              0.0       0.0       0.0       0.1       0.1       0.0
10 H  py              0.1       0.0       0.1       0.0       0.0       0.0
11 H  s               0.4       0.2       1.3       4.0       1.4      11.2
11 H  pz              0.0       0.0       0.0       0.0       0.0       0.1
11 H  px              0.1       0.0       0.0       0.0       0.2       0.0
11 H  py              0.0       0.0       0.0       0.2       0.1       0.0
12 H  s               0.4       0.0       1.4       4.6       1.4      10.6
12 H  pz              0.0       0.0       0.0       0.1       0.0       0.1
12 H  px              0.1       0.0       0.0       0.0       0.2       0.0
[...]
 4 C  px              0.4       0.6       5.0       0.0       0.0       0.0
 4 C  py              0.0       0.1       0.1       0.6       0.0       0.0
 4 C  dz2             0.3       0.0       0.0       5.1       0.0       0.0
 4 C  dxz             1.8       1.5      10.0       0.1       0.0       0.0
 4 C  dyz             0.0       0.0       0.1       1.5       0.0       0.0
 4 C  dx2y2           0.2       0.2       1.9       0.0       0.0       0.0
 4 C  dxy             0.2       0.1       0.7       0.0       0.0       0.0
 5 O  s               0.2       1.0       0.4      18.6       0.0       0.0
 5 O  pz              0.3       0.8       0.3      19.8       0.0       0.0
 5 O  px              2.6       0.2       0.4       0.2       0.0       0.0
 5 O  py              0.1       0.1       0.0       1.8       0.0       0.0
 5 O  dz2             0.2       1.6       0.0      25.7       0.0       0.0
 5 O  dxz             5.2       0.1       1.5       0.3       0.0       0.0
 5 O  dyz             0.1       0.4       0.1       7.4       0.0       0.0
 5 O  dx2y2           0.1       0.1       0.5       0.2       0.0       0.0
 5 O  dxy             0.4       0.0       0.2       0.0       0.0       0.0
 6 O  s               2.4      23.5       6.6       0.8       0.0       0.0
 6 O  pz              1.5       5.7       3.1       0.2       0.0       0.0
 6 O  px              0.1       7.7      27.2       0.6       0.0       0.0
 6 O  py              0.1       0.7       0.1       0.0       0.0       0.0
 6 O  dz2             1.0       2.1       0.1       0.1       0.0       0.0
 6 O  dxz             0.0       1.4      25.4       0.6       0.0       0.0
 6 O  dyz             0.3       0.6       0.3       0.0       0.0       0.0
 6 O  dx2y2           0.1      22.6       2.7       1.3       0.0       0.0
 6 O  dxy             0.0       0.6       1.7       0.1       0.0       0.0
 7 C  s               0.1       1.7       0.5       0.2       0.1       6.0
 7 C  pz              0.0       0.6       0.5       0.1       0.0       0.0
 7 C  px              0.0       7.2       1.4       0.3       0.0       0.0
 7 C  py              0.0       0.2       0.0       0.0       0.0       0.0
 7 C  dz2             0.2       0.5       0.7       0.1       0.0       0.0
 7 C  dxz             0.2       5.2       0.8       0.3       0.0       0.0
 7 C  dyz             0.0       0.2       0.0       0.0       0.0       0.0
 7 C  dx2y2           0.0       7.5       1.1       0.2       0.0       0.0
 7 C  dxy             0.0       0.6       0.2       0.1       0.0       0.0
 8 H  px              0.1       0.0       0.0       0.0       0.0       0.0
 9 H  pz              0.1       0.0       0.0       0.0       0.0       0.0
10 H  px              0.1       0.0       0.0       0.0       0.0       0.0
10 H  py              0.1       0.0       0.0       0.0       0.0       0.0
11 H  s               0.8       0.0       0.0       0.0       0.0       0.0
11 H  pz              1.4       0.0       0.0       0.0       0.0       0.0
11 H  py              1.2       0.0       0.0       0.0       0.0       0.0
12 H  s               0.8       0.0       0.0       0.0       0.0       0.0
12 H  py              2.5       0.0       0.0       0.0       0.0       0.0
13 H  s               1.8       0.0       0.0       0.0       0.0       0.0
13 H  py              5.7       0.0       0.0       0.0       0.0       0.0
14 H  s               1.9       0.0       0.0       0.0       0.0       0.0
14 H  pz              2.6       0.0       0.0       0.0       0.0       0.0
14 H  py              3.1       0.0       0.0       0.0       0.0       0.0
15 H  s               0.3       0.0       0.0       0.0       0.0       0.0
15 H  px              0.3       0.0       0.0       0.0       0.0       0.0
15 H  py              1.1       0.0       0.0       0.0       0.0       0.0
16 H  s               0.6       0.0       0.0       0.0       0.0       0.0
16 H  pz              0.9       0.0       0.0       0.0       0.0       0.0
16 H  px              0.3       0.0       0.0       0.0       0.0       0.0
16 H  py              0.7       0.0       0.0       0.0       0.0       0.0
17 H  s               0.0       0.4       0.0       0.0       0.0       0.0
17 H  pz              0.0       0.3       0.0       0.0       0.0       0.0
17 H  py              0.0       0.8       0.1       0.0       0.0       0.0
18 H  s               0.0       0.5       0.0       0.0       0.0       0.0
18 H  pz              0.0       0.4       0.0       0.0       0.0       0.0
18 H  py              0.0       0.8       0.0       0.0       0.0       0.0
19 H  s               0.0       0.1       0.2       0.0       0.0       0.0
19 H  pz              0.0       0.2       0.2       0.0       0.0       0.0
19 H  px              0.2       0.2       0.1       0.0       0.0       0.0

                    216       217       218       219       220       221   
                  21.98966  22.01072  22.03758  22.24041  43.63640  43.71385
                   0.00000   0.00000   0.00000   0.00000   0.00000   0.00000
                  --------  --------  --------  --------  --------  --------
 0 C  s               3.7       0.4       9.7       0.0       0.0       0.0
 1 C  s               1.6      59.3       0.2       0.1       0.0       0.0
 2 C  s               2.3      24.5      41.7       1.1       0.0       0.0
 3 C  s               0.2      15.4      43.0       2.6       0.0       0.0
 4 C  s               0.8       0.1       3.7      94.1       0.0       0.0
 5 O  s               0.0       0.0       0.0       0.2      73.6      26.3
 5 O  pz              0.0       0.0       0.0       0.1       0.0       0.0
 6 O  s               0.1       0.0       0.0       0.1      26.3      73.6
 6 O  px              0.0       0.0       0.0       0.1       0.0       0.0
 7 C  s              90.9       0.0       1.4       1.2       0.0       0.0



                      *****************************
                      * MAYER POPULATION ANALYSIS *
                      *****************************

  NA   - Mulliken gross atomic population
  ZA   - Total nuclear charge
  QA   - Mulliken gross atomic charge
  VA   - Mayer's total valence
  BVA  - Mayer's bonded valence
  FA   - Mayer's free valence

  ATOM       NA         ZA         QA         VA         BVA        FA
  0 C      6.5108     6.0000    -0.5108     3.7723     3.7723    -0.0000
  1 C      6.2414     6.0000    -0.2414     3.6349     3.6349    -0.0000
  2 C      6.3113     6.0000    -0.3113     3.7562     3.7562     0.0000
  3 C      6.2889     6.0000    -0.2889     3.7369     3.7369     0.0000
  4 C      5.5881     6.0000     0.4119     3.8805     3.8805    -0.0000
  5 O      8.5137     8.0000    -0.5137     1.9030     1.9030     0.0000
  6 O      8.2089     8.0000    -0.2089     1.9638     1.9638    -0.0000
  7 C      6.3229     6.0000    -0.3229     3.7217     3.7217    -0.0000
  8 H      0.8464     1.0000     0.1536     0.9610     0.9610    -0.0000
  9 H      0.8423     1.0000     0.1577     0.9586     0.9586    -0.0000
 10 H      0.8464     1.0000     0.1536     0.9611     0.9611     0.0000
 11 H      0.8525     1.0000     0.1475     0.9591     0.9591     0.0000
 12 H      0.8520     1.0000     0.1480     0.9594     0.9594     0.0000
 13 H      0.8434     1.0000     0.1566     0.9574     0.9574     0.0000
 14 H      0.8438     1.0000     0.1562     0.9571     0.9571    -0.0000
 15 H      0.8087     1.0000     0.1913     0.9508     0.9508     0.0000
 16 H      0.8128     1.0000     0.1872     0.9529     0.9529     0.0000
 17 H      0.8259     1.0000     0.1741     0.9516     0.9516    -0.0000
 18 H      0.8239     1.0000     0.1761     0.9499     0.9499    -0.0000
 19 H      0.8160     1.0000     0.1840     0.9558     0.9558    -0.0000

  Mayer bond orders larger than 0.100000
B(  0-C ,  1-C ) :   0.8857 B(  0-C ,  8-H ) :   0.9811 B(  0-C ,  9-H ) :   0.9729 
B(  0-C , 10-H ) :   0.9809 B(  1-C ,  2-C ) :   0.9109 B(  1-C , 11-H ) :   0.9710 
B(  1-C , 12-H ) :   0.9741 B(  2-C ,  3-C ) :   0.9356 B(  2-C , 13-H ) :   0.9713 
B(  2-C , 14-H ) :   0.9707 B(  3-C ,  4-C ) :   1.0177 B(  3-C , 15-H ) :   0.9286 
B(  3-C , 16-H ) :   0.9369 B(  4-C ,  5-O ) :   1.7844 B(  4-C ,  6-O ) :   1.1005 
B(  6-O ,  7-C ) :   0.8237 B(  7-C , 17-H ) :   0.9583 B(  7-C , 18-H ) :   0.9536 
B(  7-C , 19-H ) :   0.9657 

-------
TIMINGS
-------

Total SCF time: 0 days 0 hours 0 min 30 sec 

Total time                  ....      30.093 sec
Sum of individual times     ....      29.551 sec  ( 98.2%)

SCF preparation             ....       0.346 sec  (  1.1%)
Fock matrix formation       ....      28.161 sec  ( 93.6%)
  Startup                   ....       0.060 sec  (  0.2% of F)
  Split-RI-J                ....       4.484 sec  ( 15.9% of F)
  XC integration            ....      18.132 sec  ( 64.4% of F)
    Basis function eval.    ....       3.297 sec  ( 18.2% of XC)
    Density eval.           ....       5.442 sec  ( 30.0% of XC)
    XC-Functional eval.     ....       2.460 sec  ( 13.6% of XC)
    XC-Potential eval.      ....       5.836 sec  ( 32.2% of XC)
  CPCM terms                ....       4.917 sec  ( 17.5% of F)
Diagonalization             ....       0.000 sec  (  0.0%)
Density matrix formation    ....       0.290 sec  (  1.0%)
Total Energy calculation    ....       0.046 sec  (  0.2%)
Population analysis         ....       0.130 sec  (  0.4%)
Orbital Transformation      ....       0.065 sec  (  0.2%)
Orbital Orthonormalization  ....       0.000 sec  (  0.0%)
DIIS solution               ....       0.454 sec  (  1.5%)
  MO trafo                  ....       0.000 sec  (  0.0 % of DIIS)
  Orb grad                  ....       0.000 sec  (  0.0 % of DIIS)
  Energy W gradient         ....       0.000 sec  (  0.0 % of DIIS)
  DIIS error                ....       0.016 sec  (  3.6 % of DIIS)
  DIIS work                 ....       0.377 sec  ( 83.1 % of DIIS)
  Form Q                    ....       0.000 sec  (  0.0 % of DIIS)
  Form QpQm                 ....       0.000 sec  (  0.0 % of DIIS)
  Exp/Cayley                ....       0.000 sec  (  0.0 % of DIIS)
  Orb update                ....       0.000 sec  (  0.0 % of DIIS)
  Wake-sleep                ....       0.029 sec  (  6.3 % of DIIS)
SOSCF solution              ....       0.059 sec  (  0.2%)
  MO trafo                  ....       0.045 sec  ( 75.9 % of SOSCF)
  Orb grad                  ....       0.001 sec  (  1.0 % of SOSCF)
  Rot update                ....       0.000 sec  (  0.1 % of SOSCF)
  Step                      ....       0.014 sec  ( 22.9 % of SOSCF)
Finished LeanSCF after  30.2 sec

Maximum memory used throughout the entire LEANSCF-calculation: 29.8 MB


-------------------------------------------------------------------------------
                          DFT DISPERSION CORRECTION                            
                                                                               
                                DFTD4 V3.4.0                                   
-------------------------------------------------------------------------------
The R2SCAN3C composite method is recognized
Using three-body term ABC
Active option DFTDOPT                   ...         5   

-------------------------   ----------------
Dispersion correction           -0.004849351
-------------------------   ----------------

------------------   -----------------
gCP correction             0.012031396
------------------   -----------------

-------------------------   --------------------
FINAL SINGLE POINT ENERGY      -386.234631207367
-------------------------   --------------------


------------------------------------------------------------------------------
                              ORCA PROPERTY CALCULATIONS
------------------------------------------------------------------------------

GBWName                                 ... sp_solv.gbw
Number of atoms                         ...     20
Number of basis functions               ...    222
Max core memory                         ...   1024 MB

Electric properties:
Dipole moment                           ... YES
Quadrupole moment                       ...  NO
Static polarizability (Dipole/Dipole)   ...  NO
Static polarizability (Dipole/Quad.)    ...  NO
Static polarizability (Quad./Quad.)     ...  NO
Static polarizability (Velocity)        ...  NO

Atomic electric properties:
Dipole moment                           ...  NO
Quadrupole moment                       ...  NO
Static polarizability                   ...  NO

Choice of electric origin               ... Center of mass
Position of electric origin             ...    -0.000038    -0.000002     0.000007

General magnetic properties:
Magnetizability                         ...  NO

EPR properties:
g-Tensor (aka g-matrix)                 ...  NO
Zero-Field splitting spin-orbit         ...  NO
Zero-field splitting spin-spin          ...  NO
Hyperfine couplings                     ...  NO (   0 nuclei)
Quadrupole couplings                    ...  NO (   0 nuclei)
Contact density                         ...  NO (   0 nuclei)

NMR properties:
Chemical shifts                         ...  NO (   0 nuclei)
Spin-rotation constants                 ...  NO (   0 nuclei)
Spin-spin couplings                     ...  NO (   0 nuclei,    0 pairs)

Choice of magnetic origin               ... GIAO
Position of magnetic origin             ...     0.000000     0.000000     0.000000

Properties with geometric perturbations:
SCF Hessian                             ...  NO
IR spectrum                             ...  NO
VCD spectrum                            ...  NO
X-ray spectroscopy properties:
SCF XES/XAS/RIXS spectra                ...  NO


-------------
DIPOLE MOMENT
-------------

Method             : SCF
Type of density    : Electron Density
Multiplicity       :   1
Irrep              :   0
Energy             :  -386.2418132524646239 Eh
Relativity type    : 
Basis              : AO
                                X                 Y                 Z
Electronic contribution:      9.454469092       0.190243087      -0.475840870
Nuclear contribution   :     -9.201966426      -0.500632897       1.514136349
                        -----------------------------------------
Total Dipole Moment    :      0.252502666      -0.310389810       1.038295479
                        -----------------------------------------
Magnitude (a.u.)       :      1.112725003
Magnitude (Debye)      :      2.828322187



--------------------
Rotational spectrum 
--------------------
 
Rotational constants in cm-1:             0.252116             0.024801             0.023073 
Rotational constants in MHz :          7558.259777           743.526976           691.724541 

Dipole components along the rotational axes: 
x,y,z [a.u.] :     0.252754    -1.083604     0.008608 
x,y,z [Debye]:     0.642449    -2.754303     0.021881 

 

Dipole moment calculation done in   0.0 sec 

Maximum memory used throughout the entire PROP-calculation: 13.4 MB

--------------------------------
SUGGESTED CITATIONS FOR THIS RUN
--------------------------------

Below you find a list of papers that are relevant to this ORCA run
We neither can nor want to force you to cite these papers, but we appreciate if you do
You receive ORCA, which is the product of decades of hard work by many enthusiastic individuals, for free
The only thing we kindly ask in return is that you cite our papers,
We deeply appreciate it, if you show your appreciation for ORCA by not just citing the generic ORCA reference.

Please note that relegating all ORCA citations to the supporting information does *not* help us.
SI sections are not indexed - citations you put there will not count into any citation statistics
But we need these citations in order to attract the funding resources that allow us to do what we are doing

Therefore, if you are a happy ORCA user, please consider citing a few of the papers listed below in the main body of your paper

In addition to the list printed below, the program has created the file sp_solv.bibtex that contains the list in bibtex format
You can import this file easily into all common literature databanks and citation aid programs


List of essential papers. We consider these as the minimum necessary citations

  1. Neese,F.
     Software update: the ORCA program system, version 5.0
     WIRES Comput. Molec. Sci., 2022 12(1)e1606
     doi.org/10.1002/wcms.1606
  2. Grimme,S.; Hansen,A.; Ehlert,S.; Mewes,J.
     r2SCAN-3c: A 'Swiss army knife' composite electronic-structure method
     J. Chem. Phys., 2021 154 064103
     doi.org/10.1063/5.0040021

List of papers to cite with high priority. The work reported in these papers was absolutely
necessary for this run to complete.
Our perspective: the developers of density functionals and basis sets usually get cited in chemistry papers
Good! But without the algorithms to do something with them, the functionals or basis sets would not do anything.
Hence, in our opinion, the algorithm design and method developments papers are equally worthy of getting cited

  1. Neese,F.
     An improvement of the resolution of the identity approximation for the formation of the Coulomb matrix
     J. Comp. Chem., 2003 24(14)1740-1747
     doi.org/10.1002/jcc.10318
  2. Garcia-Rates,M.; Neese,F.
     Effect of the Solute Cavity on the Solvation Energy and its Derivatives within the Framework of the Gaussian Charge Scheme
     J. Comput. Chem., 2020 41 922-939
     doi.org/10.1002/jcc.26139
  3. Neese,F.
     The SHARK Integral Generation and Digestion System
     J. Comp. Chem., 2022  1-16
     doi.org/10.1002/jcc.26942
  4. Lehtola,S.; Steigemann,C.; Oliveira,M.; Marques,M.
     Recent developments in Libxc - A comprehensive library of functionals for density functional theory
     Software X, 2018 7 
     doi.org/10.1016/j.softx.2017.11.002
  5. Caldeweyher,E.; Bannwarth,C.; Grimme,S.
     Extension of the D3 dispersion coefficient model
     J. Chem. Phys., 2017 147 034112-XXXX
     doi.org/10.1063/1.4993215
  6. Caldeweyher,E.; Ehlert,S.; Hansen,A.; Neugebauer,H.; Spicher,S.; Bannwarth,C.; Grimme,S.
     A generally applicable atomic-charge dependent London dispersion correction
     J. Chem. Phys., 2019 150 154122-XXXX
     doi.org/10.1063/1.5090222
  7. Caldeweyher,E.; Mewes,J.; Ehlert,S.; Grimme,S.
     Extension and evaluation of the D4 London-dispersion model for periodic systems
     Phys. Chem. Chem. Phys., 2020 22(16)8499-8512
     doi.org/10.1039/D0CP00502A

List of suggested additional citations. These are papers that are important in the 'surrounding' of 
of this run, or papers that preceded the highly important papers. If you like your results we are grateful for a citation.

  1. Neese,F.
     The ORCA program system
     WIRES Comput. Molec. Sci., 2012 2(1)73-78
     doi.org/10.1002/wcms.81
  2. Neese,F.
     Software update: the ORCA program system, version 4.0
     WIRES Comput. Molec. Sci., 2018 8(1)1-6
     doi.org/10.1002/wcms.1327
  3. Neese,F.; Wennmohs,F.; Becker,U.; Riplinger,C.
     The ORCA quantum chemistry program package
     J. Chem. Phys., 2020 152 Art. No. L224108
     doi.org/10.1063/5.0004608

List of optional additional citations

  1. Neese,F.
     Approximate second-order SCF convergence for spin unrestricted wavefunctions
     Chem. Phys. Lett., 2000 325(1-3)93-98
     doi.org/10.1016/s0009-2614(00)00662-x

Timings for individual modules:

Sum of individual times          ...       31.903 sec (=   0.532 min)
Startup calculation              ...        1.231 sec (=   0.021 min)   3.9 %
SCF iterations                   ...       30.562 sec (=   0.509 min)  95.8 %
Property calculations            ...        0.109 sec (=   0.002 min)   0.3 %
                             ****ORCA TERMINATED NORMALLY****
TOTAL RUN TIME: 0 days 0 hours 0 minutes 32 seconds 652 msec
