20
 energy: -386.240839329137 gnorm: 0.036578219346 xtb: 6.7.1 (edcfbbe)
C           -3.39031427990234       -1.01017564844764        0.06101878332704
C           -1.96988169267291       -0.62697456327783        0.45512753640168
C           -1.30992677618046        0.24452109400835       -0.62345852557627
C            0.07019767623111        0.63720210588236       -0.16995502367531
O            0.30710769863609        1.48056257655608        0.67040593869707
O            1.00697401214622       -0.07209029833195       -0.78589838614825
C            2.38113829455515        0.13528065015995       -0.41718979308487
C            2.77386292432917       -0.75932065803648        0.74848493463167
H           -3.84000378650161       -1.62586413602046        0.83511440347006
H           -4.00168792177325       -0.12143271265381       -0.07196802433189
H           -3.38839287450149       -1.57113389679621       -0.86988539848547
H           -1.37247196320818       -1.52910352677759        0.60079012716623
H           -1.97975281577728       -0.07344662733255        1.39631309831874
H           -1.90017936504202        1.14995636340958       -0.76569159523930
H           -1.23448612704703       -0.30617466943567       -1.55979314769119
H            2.94831090010647       -0.11025336204886       -1.31546138788292
H            2.51637386291507        1.18954801372712       -0.15729569726970
H            2.59263731074887       -1.80109893389811        0.49869894842099
H            3.82723848829595       -0.62109465317522        0.96896002542937
H            2.19163790667117       -0.49907339832115        1.62970233882216
20
 energy: -386.242000393788 gnorm: 0.014250293673 xtb: 6.7.1 (edcfbbe)
C           -3.39397907174841       -1.01378913517167        0.06369939968623
C           -1.97183081666275       -0.62883981086713        0.45679365381409
C           -1.31071731711265        0.24564089593407       -0.62133484907198
C            0.06970128754606        0.64412894839677       -0.18172868079557
O            0.30611852116943        1.48160925962572        0.67546365921838
O            1.01464147669614       -0.07396074536539       -0.79950906102263
C            2.39544479323671        0.14006319750345       -0.41647806442332
C            2.76818104557035       -0.75674248003656        0.74916789297012
H           -3.85391657948754       -1.63429714667221        0.83636854783220
H           -4.01273401627701       -0.12266140975125       -0.07188978380635
H           -3.39852154496601       -1.57680813420690       -0.87340675186734
H           -1.36836102682298       -1.53051046842632        0.60642654499406
H           -1.97947902686285       -0.07887845260833        1.40338290293711
H           -1.89910185218357        1.15637764828491       -0.76164595935352
H           -1.25444551056079       -0.29944323894346       -1.56584631742696
H            2.96766808935646       -0.10997867591962       -1.31103319096926
H            2.54167323441109        1.19587745981246       -0.17367064742166
H            2.59313381648142       -1.80587390694133        0.50036466346736
H            3.82800534545489       -0.62248175948750        0.97498469538142
H            2.18690067324453       -0.49959890514900        1.63791017825814
20
 energy: -386.242255446451 gnorm: 0.005885564422 xtb: 6.7.1 (edcfbbe)
C           -3.39618265404066       -1.01488224542020        0.06415486895400
C           -1.97475607075164       -0.62904229883796        0.45888674055763
C           -1.31286500558285        0.24727658646323       -0.61926422708024
C            0.06877317189844        0.63385517851467       -0.18083110010439
O            0.30925848845698        1.47570148350748        0.67386703873579
O            1.01928184890600       -0.07761550538464       -0.81475501815014
C            2.40602184976944        0.14143443331172       -0.41712584760032
C            2.76721443340172       -0.75133553566002        0.74964570914321
H           -3.86098609715518       -1.63826304475552        0.83553230698056
H           -4.02015933517953       -0.12385374419069       -0.07219793479062
H           -3.40508118590973       -1.57891753809209       -0.87582655500305
H           -1.36813977861173       -1.53055272549709        0.61013216773396
H           -1.98197246984407       -0.08244035190481        1.40908815091351
H           -1.89568975748649        1.16454808741410       -0.75582546620206
H           -1.27191501544793       -0.29173319644026       -1.57009761166519
H            2.98390588706118       -0.11084888128587       -1.30839939971709
H            2.55149264347047        1.19907532959401       -0.18438146724557
H            2.59771217775732       -1.80382973825690        0.50042981224179
H            3.82915426058098       -0.62086788856746        0.98480739547698
H            2.18331446037314       -0.49787451447199        1.64018004444868
20
 energy: -386.242308199169 gnorm: 0.003503226525 xtb: 6.7.1 (edcfbbe)
C           -3.39667819241460       -1.01603786488639        0.06448117162250
C           -1.97582909898717       -0.63021836170715        0.45908813197176
C           -1.31269241402968        0.24846088179440       -0.61686353183680
C            0.07076666213000        0.63480056520256       -0.18672333779950
O            0.31449413391790        1.46681366140549        0.67534659926575
O            1.02140131991529       -0.07609088065914       -0.82599539328941
C            2.41010917662308        0.14023661856673       -0.41832066555962
C            2.76510326186737       -0.74836955699034        0.75109253177378
H           -3.86172703023106       -1.63989130135638        0.83512163820338
H           -4.02122358793171       -0.12548045779844       -0.07133086752416
H           -3.40585060640643       -1.57936754951302       -0.87571805678394
H           -1.36858095437962       -1.53134687779013        0.60957332845227
H           -1.98354041951498       -0.08488280116845        1.40993964983966
H           -1.89369411236125        1.16788375156198       -0.74705344229024
H           -1.27868847026440       -0.28607497159246       -1.57043372213981
H            2.99039306775294       -0.11594307512753       -1.30716370698139
H            2.55277417293674        1.19925463691097       -0.19040190143312
H            2.59783747207002       -1.80121804414283        0.50286474875299
H            3.82602329990620       -0.61851307576197        0.99164043507780
H            2.17798418877972       -0.49418176867766        1.63887591222495
20
 energy: -386.242335981570 gnorm: 0.001636926884 xtb: 6.7.1 (edcfbbe)
C           -3.39597276904881       -1.01625580002725        0.06366938455972
C           -1.97570619492406       -0.63115782514511        0.45935431514229
C           -1.31224195633305        0.24930651880999       -0.61502956000397
C            0.07270686438187        0.63050570952807       -0.18524818326487
O            0.31966975961334        1.45677638920451        0.67978949886166
O            1.02230474664268       -0.07577800541894       -0.83286669697104
C            2.41233541238425        0.13953434060310       -0.42156820030425
C            2.76143137860731       -0.74518399704624        0.75181102172974
H           -3.86007209973291       -1.64015485112509        0.83397252738005
H           -4.02013086077600       -0.12609646566933       -0.07126938984509
H           -3.40444222792810       -1.57883769312388       -0.87618190508925
H           -1.36895975213782       -1.53236745097812        0.60859820195622
H           -1.98422320814846       -0.08671931821277        1.41034586637055
H           -1.89068636161765        1.17084966853285       -0.73964761566398
H           -1.28166144947952       -0.28155519495216       -1.57020817529976
H            2.99325178388247       -0.12163628940342       -1.30837116059104
H            2.55314508020371        1.19957351658593       -0.19752459994653
H            2.59578771630061       -1.79835154090544        0.50632740093813
H            3.82071744488675       -0.61415672567868        0.99604164167858
H            2.17112864250277       -0.48846169363511        1.63602533556592
20
 energy: -386.242358844784 gnorm: 0.002561708642 xtb: 6.7.1 (edcfbbe)
C           -3.39389775822529       -1.01708164376084        0.06193902375412
C           -1.97404115644313       -0.63301749480190        0.45961625563094
C           -1.31118555767361        0.25161198802520       -0.61168757516693
C            0.07625512669946        0.62389341267688       -0.18127842801293
O            0.32872373867777        1.43702964810336        0.69347877028716
O            1.02239232805391       -0.07307297854787       -0.84411218613420
C            2.41397347616112        0.13713900127962       -0.42943079937525
C            2.75390528297752       -0.73866968872159        0.75337557042491
H           -3.85702926672324       -1.64169793020368        0.83126601642665
H           -4.01703986364540       -0.12694185946418       -0.07133061166126
H           -3.40086185347730       -1.57785637445073       -0.87803478726899
H           -1.36795622294310       -1.53458368726321        0.60569244538874
H           -1.98350441111663       -0.09109305828264        1.41156413369458
H           -1.88590226096680        1.17629903337749       -0.72632099483160
H           -1.28464451425721       -0.27242442610021       -1.56995814984813
H            2.99510627023595       -0.13573105006593       -1.31213856172301
H            2.55751320480831        1.19846855691965       -0.21373566547141
H            2.58932784002263       -1.79286350208024        0.51463839179820
H            3.81048980373053       -0.60542531242179        1.00453262666914
H            2.15675794975713       -0.47415012702067        1.62994474393007
20
 energy: -386.242367922807 gnorm: 0.001873427387 xtb: 6.7.1 (edcfbbe)
C           -3.39326320750152       -1.01768176230650        0.06143587987434
C           -1.97327703871644       -0.63364822320636        0.45958580161648
C           -1.31068553875965        0.25277439163783       -0.61029663861849
C            0.07728816476949        0.62324056968169       -0.17969427646720
O            0.33057005628504        1.43253313477477        0.69873438750195
O            1.02225867269467       -0.07108166301996       -0.84606386064822
C            2.41373379390954        0.13625343110203       -0.43212913370330
C            2.75145637811338       -0.73672112986507        0.75387402886091
H           -3.85687817705398       -1.64317705402821        0.83004270329139
H           -4.01645247287101       -0.12725259704745       -0.07137579449562
H           -3.39994292752851       -1.57764629101339       -0.87927631304682
H           -1.36673500106075       -1.53531930825855        0.60424552555081
H           -1.98259670780221       -0.09325048344724        1.41249737512288
H           -1.88515235156834        1.17783505564861       -0.72325668341378
H           -1.28456299744973       -0.26954243705727       -1.56965166685753
H            2.99419485399309       -0.14134842167240       -1.31379489674717
H            2.56137797728844        1.19781348715006       -0.22012290397524
H            2.58628597499843       -1.79166613320995        0.51812300081900
H            3.80778526080401       -0.60323010061077        1.00646614961571
H            2.15297755136955       -0.46905233182316        1.62867781389198
20
 energy: -386.242374501061 gnorm: 0.001163159783 xtb: 6.7.1 (edcfbbe)
C           -3.39149287972960       -1.01919571891080        0.05989860484205
C           -1.97140788431613       -0.63561362103954        0.45966887375637
C           -1.30966721349261        0.25580767931258       -0.60629693936087
C            0.07935780764728        0.62290180199730       -0.17600011913741
O            0.33410677878085        1.42496798924105        0.70971768220731
O            1.02160680472824       -0.06521865940003       -0.84964949037966
C            2.41229110368117        0.13358479202204       -0.43823893422493
C            2.74582020829734       -0.73189063566622        0.75540650383374
H           -3.85637357159743       -1.64763695618378        0.82609281216010
H           -4.01522837324276       -0.12812299477154       -0.07109629444672
H           -3.39774981382618       -1.57641430175541       -0.88320075352568
H           -1.36355565375673       -1.53762656449739        0.59997678237126
H           -1.98021565696818       -0.10024974353545        1.41575239243249
H           -1.88396064586327        1.18159754195164       -0.71621019887287
H           -1.28427849719751       -0.26242187667147       -1.56834342014082
H            2.99074764933716       -0.15656330080055       -1.31738007588304
H            2.57238726315482        1.19558552455583       -0.23619086976328
H            2.57790879940486       -1.78855635318944        0.52728010881959
H            3.80220019963919       -0.59896709360771        1.00980734194289
H            2.14588616883215       -0.45613639267545        1.62702737093435
20
 energy: -386.242376570179 gnorm: 0.000192155391 xtb: 6.7.1 (edcfbbe)
C           -3.39174837062449       -1.01905431406367        0.06008478219841
C           -1.97182675479401       -0.63556335607676        0.45959846145449
C           -1.31002371065286        0.25545865074910       -0.60674072761819
C            0.07879518142185        0.62357718401214       -0.17709105314537
O            0.33348696227762        1.42783739681347        0.70621645550616
O            1.02186655180079       -0.06619359602468       -0.84910753680483
C            2.41291294861189        0.13388424099126       -0.43675771702835
C            2.74679670596154       -0.73265752488851        0.75547070613480
H           -3.85628027590372       -1.64743350538562        0.82634870425597
H           -4.01561123131129       -0.12820269965540       -0.07064393317645
H           -3.39822559980946       -1.57622052450526       -0.88286735574963
H           -1.36419123616143       -1.53754392951536        0.60020865305809
H           -1.98073653886979       -0.09989148680017        1.41541829760117
H           -1.88446176306390        1.18115665148469       -0.71684944391735
H           -1.28512272402764       -0.26324394472551       -1.56849421090830
H            2.99152056813913       -0.15447590269764       -1.31630191584401
H            2.57064439281079        1.19584478653604       -0.23362500478000
H            2.57870742085182       -1.78894961231455        0.52631011369471
H            3.80354558470380       -0.60050103562497        1.00850716425890
H            2.14833445531845       -0.45799627207287        1.62833686143040
20
 energy: -386.242376570179 gnorm: 0.000192155391 xtb: 6.7.1 (edcfbbe)
C           -3.39174837062449       -1.01905431406367        0.06008478219841
C           -1.97182675479401       -0.63556335607676        0.45959846145449
C           -1.31002371065286        0.25545865074910       -0.60674072761819
C            0.07879518142185        0.62357718401214       -0.17709105314537
O            0.33348696227762        1.42783739681347        0.70621645550616
O            1.02186655180079       -0.06619359602468       -0.84910753680483
C            2.41291294861189        0.13388424099126       -0.43675771702835
C            2.74679670596154       -0.73265752488851        0.75547070613480
H           -3.85628027590372       -1.64743350538562        0.82634870425597
H           -4.01561123131129       -0.12820269965540       -0.07064393317645
H           -3.39822559980946       -1.57622052450526       -0.88286735574963
H           -1.36419123616143       -1.53754392951536        0.60020865305809
H           -1.98073653886979       -0.09989148680017        1.41541829760117
H           -1.88446176306390        1.18115665148469       -0.71684944391735
H           -1.28512272402764       -0.26324394472551       -1.56849421090830
H            2.99152056813913       -0.15447590269764       -1.31630191584401
H            2.57064439281079        1.19584478653604       -0.23362500478000
H            2.57870742085182       -1.78894961231455        0.52631011369471
H            3.80354558470380       -0.60050103562497        1.00850716425890
H            2.14833445531845       -0.45799627207287        1.62833686143040
