17
 energy: -657.266269480317 gnorm: 0.028182719457 xtb: 6.7.1 (edcfbbe)
C            2.99528340692729       -0.75127536463291       -0.14686332276508
C            1.54575876518497       -0.41193310408254        0.18097847058020
C            1.19408927542913        1.00795297744665       -0.25814863591439
C           -0.20074929708896        1.46976258855129        0.16789078717440
C           -1.34607885189648        0.75075466243268       -0.52851955233420
Cl          -1.74797051757457       -0.82431713896528        0.24879921811025
H            3.22911680493091       -1.76671083558288        0.16347558077244
H            3.67229702672729       -0.07083934813139        0.36489488616169
H            3.17228512100572       -0.66999331929689       -1.21701725533929
H            0.89049686579460       -1.12855521830009       -0.31556043013983
H            1.38469625671360       -0.50789949152506        1.25732258615715
H            1.28013129226726        1.07968918027844       -1.34452720859580
H            1.92386295465251        1.69473331755098        0.17644814497819
H           -0.29804465613207        2.52954338202091       -0.07714225613418
H           -0.31000459113737        1.36686439160569        1.24870617015333
H           -2.26425917410335        1.33253425349048       -0.47470559191035
H           -1.10692194319051        0.52465643983249       -1.56609976129398
17
 energy: -657.267540500878 gnorm: 0.013856272631 xtb: 6.7.1 (edcfbbe)
C            3.01442273861236       -0.75580163748618       -0.14699393896844
C            1.56295252858788       -0.41672293923965        0.17877213008854
C            1.19155909230108        1.00218123307202       -0.25019026473679
C           -0.20621111476768        1.46736417106896        0.16564022980878
C           -1.36174604111592        0.75341298425851       -0.52068124805472
Cl          -1.81662035273404       -0.83217047018838        0.25574541978703
H            3.25944019293054       -1.77584036569684        0.16013719725871
H            3.69731403042943       -0.07216644488687        0.36544383613821
H            3.19668023135284       -0.67279524304590       -1.22238559245914
H            0.90661239649795       -1.13727650601624       -0.31594508198103
H            1.38967510025463       -0.52001877820996        1.25641169533728
H            1.28276066629795        1.08295123560127       -1.34030496819143
H            1.92312458779713        1.69705366051325        0.17904266710565
H           -0.31015914144614        2.52867221332684       -0.08859093112565
H           -0.32164860714438        1.38929535213807        1.25187592631329
H           -2.27076333838711        1.35502646809130       -0.48467709556378
H           -1.12340526000840        0.53180077406036       -1.56336729714422
17
 energy: -657.267840872530 gnorm: 0.006002690724 xtb: 6.7.1 (edcfbbe)
C            3.02327635319862       -0.75324518117146       -0.14743329156753
C            1.56872981501752       -0.42396850711877        0.17953846515411
C            1.19159107326387        0.99516970565490       -0.24629502403101
C           -0.20718297022445        1.45926041907169        0.16656950681258
C           -1.37020361638427        0.76446995580505       -0.52384429880165
Cl          -1.84870529674804       -0.82716898016066        0.26424562297082
H            3.27883268996211       -1.77466222921570        0.15644300448982
H            3.71021222297412       -0.06867429620103        0.36495822850291
H            3.21154740627243       -0.66909714382679       -1.22487203954954
H            0.91209464937064       -1.14790966018496       -0.31514387280484
H            1.39325987627708       -0.53521417465588        1.25836077306593
H            1.28737121560892        1.08493574856823       -1.33818564675316
H            1.92100358374888        1.69597961597111        0.18296970313639
H           -0.31195900214770        2.52040557681682       -0.09810077575169
H           -0.33004822140304        1.40307309726206        1.25615003967672
H           -2.27611900493773        1.37235330414732       -0.48838205978937
H           -1.13971385844344        0.52925730211011       -1.56704543393682
17
 energy: -657.267897649485 gnorm: 0.003209664374 xtb: 6.7.1 (edcfbbe)
C            3.02517285581923       -0.75214876337451       -0.14762968286602
C            1.56976781016930       -0.42742609992641        0.17938178215001
C            1.19006934799035        0.99147681458840       -0.24466833733191
C           -0.20782476132774        1.46005474751845        0.16434512944659
C           -1.37138904723619        0.76993546105496       -0.52492225846467
Cl          -1.85482696751483       -0.82690727381318        0.26637664881776
H            3.28548128788360       -1.77260445208327        0.15473707864719
H            3.70954175651836       -0.06603922817437        0.36577474353068
H            3.21455760211008       -0.66566554654480       -1.22449127753243
H            0.91473941575654       -1.15254333948089       -0.31652211765959
H            1.39605895449202       -0.54155940478841        1.25805506847394
H            1.28891155167872        1.08282945303334       -1.33593049079220
H            1.91811350084653        1.69180457546595        0.18734517414966
H           -0.30750523020597        2.52114872187974       -0.10378240770222
H           -0.33406975875482        1.40842945370698        1.25311058676420
H           -2.27727123268365        1.37645778712673       -0.48427177516548
H           -1.14554040205032        0.52772110584139       -1.56697507700573
17
 energy: -657.267922994955 gnorm: 0.000643541759 xtb: 6.7.1 (edcfbbe)
C            3.02495514812465       -0.75034343899856       -0.14767297764972
C            1.56851179666232       -0.43078864300067        0.17946617590811
C            1.18990559798756        0.98845348042640       -0.24376807804797
C           -0.20769522713133        1.46073924661956        0.16131134199550
C           -1.37182926986871        0.77449998453966       -0.52588222812384
Cl          -1.85183668429577       -0.82847218264301        0.26854741332619
H            3.28855674366734       -1.76962722203556        0.15337758060069
H            3.70523750254388       -0.06240489056564        0.36755447215531
H            3.21447122409317       -0.66088182468310       -1.22364452435852
H            0.91569004097179       -1.15638973674442       -0.31827805913919
H            1.39637810126355       -0.54675159347932        1.25767027263950
H            1.29178864538377        1.07960285803640       -1.33408541158855
H            1.91725423540231        1.68666095604543        0.19159602984821
H           -0.30123396407795        2.52146265967230       -0.11013051623506
H           -0.33645966581784        1.41246566358478        1.24902344160044
H           -2.27890498615406        1.37771568790230       -0.47791376544825
H           -1.15080266155280        0.52902251156446       -1.56723871045304
17
 energy: -657.267927359355 gnorm: 0.000631378687 xtb: 6.7.1 (edcfbbe)
C            3.02440790397694       -0.75013743326734       -0.14690687950168
C            1.56724303963462       -0.43224535281284        0.17914407867045
C            1.18980707406930        0.98727807548653       -0.24407902626076
C           -0.20735678545945        1.46217517246124        0.15997314446263
C           -1.37136470282265        0.77562298704650       -0.52561784617030
Cl          -1.84510379892487       -0.83108583426173        0.26806380363678
H            3.28905034212608       -1.76914499968936        0.15311320926947
H            3.70216968708510       -0.06122039177538        0.36980966836622
H            3.21358989329140       -0.65843019280636       -1.22246805041351
H            0.91563083310280       -1.15742184448409       -0.32001962092812
H            1.39424187042285       -0.54865750535372        1.25693029491921
H            1.29322597209444        1.07784130514055       -1.33403152876731
H            1.91742228230004        1.68396794482119        0.19265706737988
H           -0.29905621036520        2.52226228330027       -0.11405216117066
H           -0.33593759674857        1.41621446411572        1.24768474287687
H           -2.28017194211132        1.37570625813208       -0.47235510022411
H           -1.15381123275537        0.53223824779369       -1.56791364517259
17
 energy: -657.267927359355 gnorm: 0.000631378687 xtb: 6.7.1 (edcfbbe)
C            3.02440790397694       -0.75013743326734       -0.14690687950168
C            1.56724303963462       -0.43224535281284        0.17914407867045
C            1.18980707406930        0.98727807548653       -0.24407902626076
C           -0.20735678545945        1.46217517246124        0.15997314446263
C           -1.37136470282265        0.77562298704650       -0.52561784617030
Cl          -1.84510379892487       -0.83108583426173        0.26806380363678
H            3.28905034212608       -1.76914499968936        0.15311320926947
H            3.70216968708510       -0.06122039177538        0.36980966836622
H            3.21358989329140       -0.65843019280636       -1.22246805041351
H            0.91563083310280       -1.15742184448409       -0.32001962092812
H            1.39424187042285       -0.54865750535372        1.25693029491921
H            1.29322597209444        1.07784130514055       -1.33403152876731
H            1.91742228230004        1.68396794482119        0.19265706737988
H           -0.29905621036520        2.52226228330027       -0.11405216117066
H           -0.33593759674857        1.41621446411572        1.24768474287687
H           -2.28017194211132        1.37570625813208       -0.47235510022411
H           -1.15381123275537        0.53223824779369       -1.56791364517259
