      -----------------------------------------------------------      
     |                   =====================                   |     
     |                           x T B                           |     
     |                   =====================                   |     
     |                         S. Grimme                         |     
     |          Mulliken Center for Theoretical Chemistry        |     
     |                    University of Bonn                     |     
      -----------------------------------------------------------      

   * xtb version 6.7.1 (edcfbbe) compiled by 'albert@albert-system' on 2024-07-22

   xtb is free software: you can redistribute it and/or modify it under
   the terms of the GNU Lesser General Public License as published by
   the Free Software Foundation, either version 3 of the License, or
   (at your option) any later version.
   
   xtb is distributed in the hope that it will be useful,
   but WITHOUT ANY WARRANTY; without even the implied warranty of
   MERCHANTABILITY or FITNESS FOR A PARTICULAR PURPOSE.  See the
   GNU Lesser General Public License for more details.
   
   Cite this work as:
   * C. Bannwarth, E. Caldeweyher, S. Ehlert, A. Hansen, P. Pracht,
     J. Seibert, S. Spicher, S. Grimme, WIREs Comput. Mol. Sci., 2020, 11,
     e01493. DOI: 10.1002/wcms.1493
   
   for GFN2-xTB:
   * C. Bannwarth, S. Ehlert and S. Grimme., J. Chem. Theory Comput., 2019,
     15, 1652-1671. DOI: 10.1021/acs.jctc.8b01176
   for GFN1-xTB:
   * S. Grimme, C. Bannwarth, P. Shushkov, J. Chem. Theory Comput., 2017,
     13, 1989-2009. DOI: 10.1021/acs.jctc.7b00118
   for GFN0-xTB:
   * P. Pracht, E. Caldeweyher, S. Ehlert, S. Grimme, ChemRxiv, 2019, preprint.
     DOI: 10.26434/chemrxiv.8326202.v1
   for GFN-FF:
   * S. Spicher and S. Grimme, Angew. Chem. Int. Ed., 2020, 59, 15665-15673.
     DOI: 10.1002/anie.202004239
   
   for ALPB and GBSA implicit solvation:
   * S. Ehlert, M. Stahn, S. Spicher, S. Grimme, J. Chem. Theory Comput.,
     2021, 17, 4250-4261. DOI: 10.1021/acs.jctc.1c00471
   
   for ddCOSMO and CPCM-X implicit solvation:
   * M. Stahn, S. Ehlert, S. Grimme, J. Phys. Chem. A,
     2023, XX, XXXX-XXXX. DOI: 10.1021/acs.jpca.3c04382
   
   for DFT-D4:
   * E. Caldeweyher, C. Bannwarth and S. Grimme, J. Chem. Phys., 2017,
     147, 034112. DOI: 10.1063/1.4993215
   * E. Caldeweyher, S. Ehlert, A. Hansen, H. Neugebauer, S. Spicher,
     C. Bannwarth and S. Grimme, J. Chem. Phys., 2019, 150, 154122.
     DOI: 10.1063/1.5090222
   * E. Caldeweyher, J.-M. Mewes, S. Ehlert and S. Grimme, Phys. Chem. Chem. Phys.
     2020, 22, 8499-8512. DOI: 10.1039/D0CP00502A
   
   for sTDA-xTB:
   * S. Grimme and C. Bannwarth, J. Chem. Phys., 2016, 145, 054103.
     DOI: 10.1063/1.4959605
   
   in the mass-spec context:
   * V. Asgeirsson, C. Bauer and S. Grimme, Chem. Sci., 2017, 8, 4879.
     DOI: 10.1039/c7sc00601b
   * J. Koopman and S. Grimme, ACS Omega 2019, 4, 12, 15120-15133.
     DOI: 10.1021/acsomega.9b02011
   
   for metadynamics refer to:
   * S. Grimme, J. Chem. Theory Comput., 2019, 155, 2847-2862
     DOI: 10.1021/acs.jctc.9b00143
   
   for SPH calculations refer to:
   * S. Spicher and S. Grimme, J. Chem. Theory Comput., 2021, 17, 1701-1714
     DOI: 10.1021/acs.jctc.0c01306
   
   for ONIOM refer to:
   * C. Plett, A. Katbashev, S. Ehlert, S. Grimme, M. Bursch,
     Phys. Chem. Chem. Phys., 2023, 25, 17860-17868. DOI: 10.1039/D3CP02178E
   
   for DIPRO refer to:
   * J. Kohn, N. Gildemeister, S. Grimme, D. Fazzi, A. Hansen,
     J. Chem. Phys., 2023, just accepted.
   
   for PTB refer to:
   * S. Grimme, M. Mueller, A. Hansen, J. Chem. Phys., 2023, 158, 124111.
     DOI: 10.1063/5.0137838
   
   with help from (in alphabetical order)
   P. Atkinson, C. Bannwarth, F. Bohle, G. Brandenburg, E. Caldeweyher
   M. Checinski, S. Dohm, S. Ehlert, S. Ehrlich, I. Gerasimov, C. Hölzer
   A. Katbashev, J. Kohn, J. Koopman, C. Lavigne, S. Lehtola, F. März, M. Müller,
   F. Musil, H. Neugebauer, J. Pisarek, C. Plett, P. Pracht, F. Pultar,
   J. Seibert, P. Shushkov, S. Spicher, M. Stahn, M. Steiner, T. Strunk,
   J. Stückrath, T. Rose, and J. Unsleber
   
 * started run on 2025/04/11 at 15:53:54.449     
   ID    Z sym.   atoms
    1    6 C      1-4, 7, 8
    2    8 O      5, 6
    3    1 H      9-20

           -------------------------------------------------
          |                Calculation Setup                |
           -------------------------------------------------

          program call               : /srv/scratch/z5358697/.xtb/bin/xtb solv.coord --gfn2 --sp --chrg 0 --norestart --parallel 1 --alpb water reference -I xtb_sp-xcontrol-inp
          hostname                   : k061
          coordinate file            : solv.coord
          omp threads                :                     1


           -------------------------------------------------
          |                 G F N 2 - x T B                 |
           -------------------------------------------------

        Reference                      10.1021/acs.jctc.8b01176
      * Hamiltonian:
        H0-scaling (s, p, d)           1.850000    2.230000    2.230000
        zeta-weighting                 0.500000
      * Dispersion:
        s8                             2.700000
        a1                             0.520000
        a2                             5.000000
        s9                             5.000000
      * Repulsion:
        kExp                           1.500000    1.000000
        rExp                           1.000000
      * Coulomb:
        alpha                          2.000000
        third order                    shell-resolved
        anisotropic                    true
        a3                             3.000000
        a5                             4.000000
        cn-shift                       1.200000
        cn-exp                         4.000000
        max-rad                        5.000000

      * Solvation model:               ALPB
        Solvent                        water
        Parameter file                 internal GFN2-xTB/ALPB
        Dielectric constant                8.0200E+01
        Reference state                gsolv=reference [X=1]
        Free energy shift                  2.8945E-03 Eh       1.8164E+00 kcal/mol
        Temperature                        2.9815E+02 K
        Density                            1.0000E+00 kg/L
        Solvent mass                       1.8000E+01 g/mol
        Interaction kernel             P16
        Born radius scaling (c1)           1.4744E+00
        Born radii integrator          GBOBC
        Born offset                        0.0000E+00 a0       0.0000E+00 AA
        H-bond correction              true
        Ion screening                  false
        Surface tension                    1.0000E-05 Eh       1.5569E+01 dyn/cm
        Grid points                               974 per atom

          ...................................................
          :                      SETUP                      :
          :.................................................:
          :  # basis functions                  44          :
          :  # atomic orbitals                  44          :
          :  # shells                           28          :
          :  # electrons                        48          :
          :  max. iterations                   250          :
          :  Hamiltonian                  GFN2-xTB          :
          :  restarted?                      false          :
          :  GBSA solvation                   true          :
          :  PC potential                    false          :
          :  electronic temp.          300.0000000     K    :
          :  accuracy                    1.0000000          :
          :  -> integral cutoff          0.2500000E+02      :
          :  -> integral neglect         0.1000000E-07      :
          :  -> SCF convergence          0.1000000E-05 Eh   :
          :  -> wf. convergence          0.1000000E-03 e    :
          :  Broyden damping             0.4000000          :
          :  net charge                          0          :
          :  unpaired electrons                  0          :
          ...................................................

 iter      E             dE          RMSdq      gap      omega  full diag
   1    -27.3731390 -0.273731E+02  0.395E+00    5.77       0.0  T
   2    -27.4340252 -0.608862E-01  0.199E+00    4.83       1.0  T
   3    -27.4357617 -0.173651E-02  0.100E+00    5.14       1.0  T
   4    -27.4371309 -0.136919E-02  0.160E-01    4.91       1.0  T
   5    -27.4373316 -0.200720E-03  0.675E-02    4.97       1.0  T
   6    -27.4373334 -0.179979E-05  0.220E-02    4.96       1.0  T
   7    -27.4373345 -0.105476E-05  0.392E-03    4.97       5.7  T
   8    -27.4373345 -0.242482E-07  0.215E-03    4.97      10.4  T
   9    -27.4373345 -0.776576E-08  0.371E-04    4.97      60.3  T
  10    -27.4373345 -0.351935E-09  0.200E-04    4.97     111.8  T

   *** convergence criteria satisfied after 10 iterations ***

         #    Occupation            Energy/Eh            Energy/eV
      -------------------------------------------------------------
         1        2.0000           -0.7502961             -20.4166
       ...           ...                  ...                  ...
        18        2.0000           -0.4678317             -12.7303
        19        2.0000           -0.4622676             -12.5789
        20        2.0000           -0.4506412             -12.2626
        21        2.0000           -0.4464055             -12.1473
        22        2.0000           -0.4437512             -12.0751
        23        2.0000           -0.4316073             -11.7446
        24        2.0000           -0.4213440             -11.4654 (HOMO)
        25                         -0.2388799              -6.5003 (LUMO)
        26                         -0.0053918              -0.1467
        27                          0.1021175               2.7788
        28                          0.1103621               3.0031
        29                          0.1144035               3.1131
       ...                                ...                  ...
        44                          0.6168063              16.7842
      -------------------------------------------------------------
                  HL-Gap            0.1824641 Eh            4.9651 eV
             Fermi-level           -0.3301119 Eh           -8.9828 eV

 SCC (total)                   0 d,  0 h,  0 min,  0.025 sec
 SCC setup                      ...        0 min,  0.001 sec (  5.586%)
 Dispersion                     ...        0 min,  0.000 sec (  0.509%)
 classical contributions        ...        0 min,  0.000 sec (  0.108%)
 integral evaluation            ...        0 min,  0.002 sec (  6.992%)
 iterations                     ...        0 min,  0.016 sec ( 65.843%)
 molecular gradient             ...        0 min,  0.005 sec ( 20.270%)
 printout                       ...        0 min,  0.000 sec (  0.629%)

         :::::::::::::::::::::::::::::::::::::::::::::::::::::
         ::                     SUMMARY                     ::
         :::::::::::::::::::::::::::::::::::::::::::::::::::::
         :: total energy             -27.120804686722 Eh    ::
         :: total w/o Gsasa/hb       -27.122698071427 Eh    ::
         :: gradient norm              0.000166179176 Eh/a0 ::
         :: HOMO-LUMO gap              4.965100942332 eV    ::
         ::.................................................::
         :: SCC energy               -27.437364677349 Eh    ::
         :: -> isotropic ES            0.058533646815 Eh    ::
         :: -> anisotropic ES          0.000828156962 Eh    ::
         :: -> anisotropic XC          0.008269094272 Eh    ::
         :: -> dispersion             -0.011312509372 Eh    ::
         :: -> Gsolv                  -0.006893422684 Eh    ::
         ::    -> Gelec               -0.008786807389 Eh    ::
         ::    -> Gsasa                0.001193592288 Eh    ::
         ::    -> Ghb                 -0.002194756743 Eh    ::
         ::    -> Gshift               0.002894549160 Eh    ::
         :: repulsion energy           0.316559990628 Eh    ::
         :: add. restraining           0.000000000000 Eh    ::
         :: total charge              -0.000000000000 e     ::
         :::::::::::::::::::::::::::::::::::::::::::::::::::::

           -------------------------------------------------
          |                Property Printout                |
           -------------------------------------------------

    * Orbital Energies and Occupations

         #    Occupation            Energy/Eh            Energy/eV
      -------------------------------------------------------------
         1        2.0000           -0.7502961             -20.4166
       ...           ...                  ...                  ...
        12        2.0000           -0.5185906             -14.1116
        13        2.0000           -0.5168630             -14.0646
        14        2.0000           -0.5093293             -13.8596
        15        2.0000           -0.4960056             -13.4970
        16        2.0000           -0.4849960             -13.1974
        17        2.0000           -0.4709122             -12.8142
        18        2.0000           -0.4678317             -12.7303
        19        2.0000           -0.4622676             -12.5789
        20        2.0000           -0.4506412             -12.2626
        21        2.0000           -0.4464055             -12.1473
        22        2.0000           -0.4437512             -12.0751
        23        2.0000           -0.4316073             -11.7446
        24        2.0000           -0.4213440             -11.4654 (HOMO)
        25                         -0.2388799              -6.5003 (LUMO)
        26                         -0.0053918              -0.1467
        27                          0.1021175               2.7788
        28                          0.1103621               3.0031
        29                          0.1144035               3.1131
        30                          0.1330153               3.6195
        31                          0.1432302               3.8975
        32                          0.1541895               4.1957
        33                          0.1589429               4.3251
        34                          0.1650120               4.4902
        35                          0.1797140               4.8903
       ...                                ...                  ...
        44                          0.6168063              16.7842
      -------------------------------------------------------------
                  HL-Gap            0.1824641 Eh            4.9651 eV
             Fermi-level           -0.3301119 Eh           -8.9828 eV

     #   Z          covCN         q      C6AA      α(0)
     1   6 C        3.753    -0.119    22.834     6.814
     2   6 C        3.803    -0.050    21.462     6.596
     3   6 C        3.804    -0.101    22.423     6.741
     4   6 C        2.713     0.365    20.804     7.466
     5   8 O        0.856    -0.488    23.511     6.501
     6   8 O        1.703    -0.272    18.519     5.810
     7   6 C        3.693     0.067    19.621     6.338
     8   6 C        3.750    -0.127    23.006     6.840
     9   1 H        0.925     0.050     2.317     2.380
    10   1 H        0.925     0.050     2.318     2.381
    11   1 H        0.925     0.048     2.349     2.397
    12   1 H        0.924     0.044     2.400     2.422
    13   1 H        0.924     0.040     2.444     2.445
    14   1 H        0.925     0.077     2.011     2.218
    15   1 H        0.924     0.084     1.941     2.179
    16   1 H        0.924     0.082     1.958     2.188
    17   1 H        0.924     0.059     2.216     2.328
    18   1 H        0.925     0.053     2.286     2.365
    19   1 H        0.925     0.066     2.126     2.280
    20   1 H        0.925     0.071     2.070     2.250

 Mol. C6AA /au·bohr⁶  :       2997.067104
 Mol. C8AA /au·bohr⁸  :      63828.668508
 Mol. α(0) /au        :         80.939753


Wiberg/Mayer (AO) data.
largest (>0.10) Wiberg bond orders for each atom

 ---------------------------------------------------------------------------
     #   Z sym  total        # sym  WBO       # sym  WBO       # sym  WBO
 ---------------------------------------------------------------------------
     1   6 C    3.993 --     2 C    1.018    11 H    0.987    10 H    0.987
                             9 H    0.985
     2   6 C    3.992 --     1 C    1.018     3 C    0.980    13 H    0.979
                            12 H    0.978
     3   6 C    3.988 --     2 C    0.980     4 C    0.979    14 H    0.973
                            15 H    0.954
     4   6 C    3.904 --     5 O    1.693     6 O    1.168     3 C    0.979
     5   8 O    1.973 --     4 C    1.693     6 O    0.171
     6   8 O    2.319 --     4 C    1.168     7 C    0.919     5 O    0.171
     7   6 C    3.911 --     8 C    1.014    17 H    0.970    16 H    0.969
                             6 O    0.919
     8   6 C    3.989 --     7 C    1.014    18 H    0.986    19 H    0.984
                            20 H    0.980
     9   1 H    0.997 --     1 C    0.985
    10   1 H    0.997 --     1 C    0.987
    11   1 H    0.998 --     1 C    0.987
    12   1 H    0.998 --     2 C    0.978
    13   1 H    0.998 --     2 C    0.979
    14   1 H    0.994 --     3 C    0.973
    15   1 H    0.993 --     3 C    0.954
    16   1 H    0.993 --     7 C    0.969
    17   1 H    0.997 --     7 C    0.970
    18   1 H    0.997 --     8 C    0.986
    19   1 H    0.996 --     8 C    0.984
    20   1 H    0.994 --     8 C    0.980
 ---------------------------------------------------------------------------

Topologies differ in total number of bonds
Writing topology from bond orders to xtbtopo.mol

molecular dipole:
                 x           y           z       tot (Debye)
 q only:        0.128      -0.636       0.870
   full:        0.136      -0.655       0.857       2.764
molecular quadrupole (traceless):
                xx          xy          yy          xz          yz          zz
 q only:       10.847      -0.942      -4.822      -0.551       3.486      -6.025
  q+dip:        7.988      -1.692      -3.054      -0.217       3.848      -4.934
   full:        8.712      -1.211      -3.352      -0.263       4.565      -5.360


           -------------------------------------------------
          | TOTAL ENERGY              -27.120804686722 Eh   |
          | GRADIENT NORM               0.000166179176 Eh/α |
          | HOMO-LUMO GAP               4.965100942332 eV   |
           -------------------------------------------------

------------------------------------------------------------------------
 * finished run on 2025/04/11 at 15:53:54.523     
------------------------------------------------------------------------
 total:
 * wall-time:     0 d,  0 h,  0 min,  0.073 sec
 *  cpu-time:     0 d,  0 h,  0 min,  0.026 sec
 * ratio c/w:     0.360 speedup
 SCF:
 * wall-time:     0 d,  0 h,  0 min,  0.025 sec
 *  cpu-time:     0 d,  0 h,  0 min,  0.015 sec
 * ratio c/w:     0.600 speedup

