20
 energy: -386.241833761661 gnorm: 0.035035673030 xtb: 6.7.1 (edcfbbe)
C           -3.64247812611408       -0.62529243947708        0.24231176530737
C           -2.33688108993553       -0.20214844638958       -0.41820917758532
C           -1.18517220052518       -0.18459961238180        0.58301291435835
C            0.10899778284830        0.26609104761791       -0.04133272791832
O            0.23129462930249        0.69925490110986       -1.16716421611720
O            1.12082148939667        0.14457010436406        0.81377754016061
C            2.43566544267931        0.52692968723350        0.37533659976632
C            3.12705042538568       -0.61597545607296       -0.35223941515609
H           -3.90824788193185        0.06530777362894        1.03869189456027
H           -4.44740636957076       -0.63541548728157       -0.48722167301590
H           -3.54930717337279       -1.62191793001871        0.66638757109529
H           -2.44246961988232        0.79259662465122       -0.85484867127881
H           -2.09147574342679       -0.88678967569296       -1.23218023344601
H           -1.02493536875418       -1.17373452982011        1.01507950374981
H           -1.40550317342282        0.49704768402025        1.40761311952375
H            2.34549211123935        1.40011548362043       -0.27796948372318
H            2.96337710651315        0.79141573845070        1.29202691177253
H            4.13879267353401       -0.31936422564152       -0.60867387806972
H            3.16058607180054       -1.49755132376360        0.28214472752503
H            2.58730785974650       -0.85606593177935       -1.26561810096083
20
 energy: -386.242897281276 gnorm: 0.013755288235 xtb: 6.7.1 (edcfbbe)
C           -3.64902626750340       -0.62720658002558        0.24220881764999
C           -2.34347721787668       -0.20185853935099       -0.42105334293466
C           -1.18730490101597       -0.18214794111833        0.57271594112920
C            0.11139116014340        0.26456202777437       -0.04199972415743
O            0.23993046385039        0.69594164117696       -1.17545820193077
O            1.12676336852697        0.14258213673701        0.82387261155786
C            2.44798881691973        0.53259467603971        0.37539295777629
C            3.12456640186579       -0.61504628225645       -0.35111595814988
H           -3.91937323679623        0.06321521694931        1.04586478096588
H           -4.46598792492928       -0.64070174674054       -0.48292140089765
H           -3.55964177202873       -1.62871100976778        0.67184639175293
H           -2.45394574745415        0.79414570263475       -0.86078668983293
H           -2.09921860693904       -0.88617270007193       -1.24005422385467
H           -1.02839123707387       -1.17138218499817        1.01479436167563
H           -1.40375037145093        0.49788979117173        1.40524010604164
H            2.36496872857576        1.41675794182629       -0.26255269476458
H            2.98009421359880        0.79456126847114        1.29095830446710
H            4.14330996364237       -0.31993384339573       -0.61033663793073
H            3.16760102776763       -1.50207480659951        0.28498191280908
H            2.58901295731155       -0.86254030981461       -1.27067240423266
20
 energy: -386.243122143956 gnorm: 0.005295391510 xtb: 6.7.1 (edcfbbe)
C           -3.65125577781507       -0.62851433876271        0.24355487261392
C           -2.34873982530950       -0.20028897463302       -0.42516881352994
C           -1.19074769907939       -0.17929764686985        0.56486580142687
C            0.11092717934795        0.26285605249888       -0.04291521094318
O            0.24743796302958        0.68873496146444       -1.17960341589833
O            1.12637611719276        0.14525540427761        0.83400149826484
C            2.45612427257867        0.53222414846503        0.37585423495153
C            3.12691537527768       -0.61229071480910       -0.35146200491743
H           -3.92452538224466        0.06040400826627        1.05133369464065
H           -4.47546360168187       -0.64437401721813       -0.47723166601684
H           -3.56350825532036       -1.63223546982802        0.67546576970520
H           -2.46557128746957        0.79576543970983       -0.86667483707530
H           -2.10779198544941       -0.88388896688022       -1.24781785824288
H           -1.03385065673966       -1.16750896346802        1.01506797885318
H           -1.40379215076904        0.49988950881631        1.40183483984840
H            2.37411324355269        1.42347172753209       -0.25158414781599
H            2.99056984971451        0.79084279420589        1.29204139123971
H            4.14903996582725       -0.32072036759892       -0.61535120824125
H            3.17681882228081       -1.50016200993983        0.28673965593919
H            2.59243455600539       -0.86568738388076       -1.27202546455391
20
 energy: -386.243153281956 gnorm: 0.002595767427 xtb: 6.7.1 (edcfbbe)
C           -3.65137280358882       -0.62890141480089        0.24445967131967
C           -2.35044962610543       -0.19912918035603       -0.42611935455759
C           -1.19125487876871       -0.17815363233253        0.56206898149808
C            0.11150735375787        0.25989915100874       -0.04509521209154
O            0.25176271298583        0.68087091391727       -1.18230724791560
O            1.12577891605082        0.14722719573591        0.83698081520618
C            2.45909999414378        0.53263939497996        0.37677940749627
C            3.12647153344236       -0.61126145797816       -0.35155094504009
H           -3.92395618894320        0.05908370115220        1.05305548420896
H           -4.47692164290294       -0.64527384978192       -0.47451500986406
H           -3.56190010260199       -1.63264013184363        0.67559445292821
H           -2.46969485728159        0.79678910886737       -0.86725650977641
H           -2.11121845261369       -0.88208307292819       -1.24972114382847
H           -1.03685796501489       -1.16579840458547        1.01442500460787
H           -1.40313785871565        0.50177057492188        1.39877785394017
H            2.37535109657684        1.42598026414108       -0.24715335199351
H            2.99266997243401        0.78768010565647        1.29467550797624
H            4.14795536813383       -0.31924997862340       -0.61733573637289
H            3.17984601834876       -1.49890444248044        0.28642036224672
H            2.59183239601100       -0.86606918948048       -1.27125780152198
20
 energy: -386.243169087632 gnorm: 0.001244727017 xtb: 6.7.1 (edcfbbe)
C           -3.65057794864545       -0.62925640489801        0.24550970970220
C           -2.35147648554903       -0.19763413250514       -0.42731824653548
C           -1.19175359926257       -0.17715994030432        0.56018045675810
C            0.11180918654059        0.25723406720858       -0.04719633429972
O            0.25659399727968        0.66846476022609       -1.18644277909275
O            1.12393868271259        0.15033158346177        0.83986376848254
C            2.46052088655152        0.53275581684352        0.37851318713131
C            3.12550540152026       -0.61007825180020       -0.35181750237190
H           -3.92168615311600        0.05746276684759        1.05496321048680
H           -4.47691620229836       -0.64568562895945       -0.47170971162981
H           -3.55837157401242       -1.63290362548030        0.67495230912580
H           -2.47251614414516        0.79851781241033       -0.86699252916286
H           -2.11348016422820       -0.87956874049568       -1.25176049076590
H           -1.04004652312698       -1.16430021621774        1.01391402862371
H           -1.40240195039409        0.50448344965400        1.39535388892101
H            2.37622273534310        1.42769806812308       -0.24278136795491
H            2.99325038242495        0.78347479133967        1.29799508446465
H            4.14557206962388       -0.31691282027837       -0.62020712558193
H            3.18211697526848       -1.49724387876160        0.28572041288450
H            2.58920753751921       -0.86520329259633       -1.26981468579570
20
 energy: -386.243176100682 gnorm: 0.001608541777 xtb: 6.7.1 (edcfbbe)
C           -3.64989330821482       -0.62929273148589        0.24610647343812
C           -2.35198459762128       -0.19569202404470       -0.42796037689117
C           -1.19175035685773       -0.17656483938004        0.55917937713668
C            0.11315651637084        0.25173485721481       -0.04971366889915
O            0.26123708564699        0.65433844754974       -1.19111569163252
O            1.12241855719009        0.15315118872933        0.84157806709482
C            2.46034632278543        0.53356602660241        0.38068716269262
C            3.12402433269942       -0.60887528556770       -0.35178252228580
H           -3.91932435775411        0.05592213140980        1.05695025310641
H           -4.47713467263786       -0.64534997716373       -0.46958717048482
H           -3.55501736352265       -1.63323629991747        0.67350006800319
H           -2.47352987379368        0.80110628658052       -0.86568675537400
H           -2.11445901392157       -0.87640897940557       -1.25327257778716
H           -1.04269564619685       -1.16370955320313        1.01312539317028
H           -1.40044252885064        0.50692086226713        1.39292059391184
H            2.37687773332844        1.42946634884129       -0.23923634668726
H            2.99256767927670        0.78118511546850        1.30104309542597
H            4.14253950990474       -0.31401427565986       -0.62314328657139
H            3.18339981205418       -1.49583415682988        0.28534752873489
H            2.58517533123510       -0.86393639068735       -1.26801427209996
20
 energy: -386.243180535026 gnorm: 0.001262520501 xtb: 6.7.1 (edcfbbe)
C           -3.64919682315747       -0.62939928402762        0.24623910374401
C           -2.35219793563189       -0.19360061055829       -0.42848932425710
C           -1.19148938534226       -0.17633463462256        0.55834222976954
C            0.11454780318897        0.24823239488989       -0.05094329089663
O            0.26633648276200        0.63602980396128       -1.19724329303774
O            1.12107871987216        0.15824241038957        0.84363968796908
C            2.45957157401266        0.53475026493279        0.38293404311019
C            3.12196359021471       -0.60776011014869       -0.35162955072436
H           -3.91729547661088        0.05341138259127        1.05961728956833
H           -4.47786541347798       -0.64415285753687       -0.46784734950060
H           -3.55242022554373       -1.63440882696034        0.67079799428362
H           -2.47422336464187        0.80439690482395       -0.86345860476685
H           -2.11482069010208       -0.87222700382091       -1.25552017511301
H           -1.04474409958857       -1.16376040309909        1.01255095084668
H           -1.39792714114859        0.50854899874042        1.39124980252958
H            2.37860162983948        1.43194233061331       -0.23560692868418
H            2.99234102396331        0.77967037764741        1.30356729029818
H            4.13904036837104       -0.31141416624182       -0.62679496230976
H            3.18426669526032       -1.49457495029049        0.28542546270879
H            2.57994383963149       -0.86311480181075       -1.26590539833791
20
 energy: -386.243183372835 gnorm: 0.000490766016 xtb: 6.7.1 (edcfbbe)
C           -3.64916356685538       -0.62903285550841        0.24590862823476
C           -2.35194378724922       -0.19273817891193       -0.42799393460988
C           -1.19114018157254       -0.17721265033031        0.55866328595134
C            0.11523537398174        0.24568942059648       -0.05130975077019
O            0.26603102613200        0.63260481355645       -1.19813701736705
O            1.12141210774417        0.15976896332048        0.84321618575688
C            2.45865554614761        0.53582585350047        0.38258606498137
C            3.12150292402511       -0.60750527326795       -0.35094469054877
H           -3.91756727537740        0.05258218683198        1.06052619828292
H           -4.47796691969602       -0.64232470298547       -0.46839892086659
H           -3.55351429924595       -1.63499820836974        0.66912208469330
H           -2.47355156884346        0.80587084485003       -0.86197823573331
H           -2.11468214774335       -0.87044872525826       -1.25598979289529
H           -1.04469071185115       -1.16538568962898        1.01184460695229
H           -1.39637789286153        0.50657513356271        1.39299838115979
H            2.37898469548684        1.43257525568101       -0.23690324463521
H            2.99234958087720        0.78203288004527        1.30244577333280
H            4.13861900553652       -0.31137082677534       -0.62676465044116
H            3.18397623921843       -1.49388682249946        0.28700283424673
H            2.57934311672514       -0.86414424921321       -1.26496924605900
20
 energy: -386.243183372835 gnorm: 0.000490766016 xtb: 6.7.1 (edcfbbe)
C           -3.64916356685538       -0.62903285550841        0.24590862823476
C           -2.35194378724922       -0.19273817891193       -0.42799393460988
C           -1.19114018157254       -0.17721265033031        0.55866328595134
C            0.11523537398174        0.24568942059648       -0.05130975077019
O            0.26603102613200        0.63260481355645       -1.19813701736705
O            1.12141210774417        0.15976896332048        0.84321618575688
C            2.45865554614761        0.53582585350047        0.38258606498137
C            3.12150292402511       -0.60750527326795       -0.35094469054877
H           -3.91756727537740        0.05258218683198        1.06052619828292
H           -4.47796691969602       -0.64232470298547       -0.46839892086659
H           -3.55351429924595       -1.63499820836974        0.66912208469330
H           -2.47355156884346        0.80587084485003       -0.86197823573331
H           -2.11468214774335       -0.87044872525826       -1.25598979289529
H           -1.04469071185115       -1.16538568962898        1.01184460695229
H           -1.39637789286153        0.50657513356271        1.39299838115979
H            2.37898469548684        1.43257525568101       -0.23690324463521
H            2.99234958087720        0.78203288004527        1.30244577333280
H            4.13861900553652       -0.31137082677534       -0.62676465044116
H            3.18397623921843       -1.49388682249946        0.28700283424673
H            2.57934311672514       -0.86414424921321       -1.26496924605900
