
                                 *****************
                                 * O   R   C   A *
                                 *****************

                                            #,                                       
                                            ###                                      
                                            ####                                     
                                            #####                                    
                                            ######                                   
                                           ########,                                 
                                     ,,################,,,,,                         
                               ,,#################################,,                 
                          ,,##########################################,,             
                       ,#########################################, ''#####,          
                    ,#############################################,,   '####,        
                  ,##################################################,,,,####,       
                ,###########''''           ''''###############################       
              ,#####''   ,,,,##########,,,,          '''####'''          '####       
            ,##' ,,,,###########################,,,                        '##       
           ' ,,###''''                  '''############,,,                           
         ,,##''                                '''############,,,,        ,,,,,,###''
      ,#''                                            '''#######################'''  
     '                                                          ''''####''''         
             ,#######,   #######,   ,#######,      ##                                
            ,#'     '#,  ##    ##  ,#'     '#,    #''#        ,####,   ,####,        
            ##       ##  ##   ,#'  ##            #'  '#       #'       #'  '#        
            ##       ##  #######   ##           ,######,      #####,   #    #        
            '#,     ,#'  ##    ##  '#,     ,#' ,#      #,     #,   #   #,  ,#        
             '#######'   ##     ##  '#######'  #'      '#     '####' # '####'        



                #########################################################
                #                        -***-                          #
                #          Department of theory and spectroscopy        #
                #                                                       #
                #                      Frank Neese                      #
                #                                                       #
                #     Directorship, Architecture, Infrastructure        #
                #                    SHARK, DRIVERS                     #
                #        Core code/Algorithms in most modules           #
                #                                                       #
                #        Max Planck Institute fuer Kohlenforschung      #
                #                Kaiser Wilhelm Platz 1                 #
                #                 D-45470 Muelheim/Ruhr                 #
                #                      Germany                          #
                #                                                       #
                #                  All rights reserved                  #
                #                        -***-                          #
                #########################################################


                         Program Version 6.0.0  -   RELEASE  -


 With contributions from (in alphabetic order):
   Daniel Aravena         : Magnetic Suceptibility
   Michael Atanasov       : Ab Initio Ligand Field Theory (pilot matlab implementation)
   Alexander A. Auer      : GIAO ZORA, VPT2 properties, NMR spectrum
   Ute Becker             : All parallelization in ORCA, NUMFREQ, NUMCALC
   Giovanni Bistoni       : ED, misc. LED, open-shell LED, HFLD
   Martin Brehm           : Molecular dynamics
   Dmytro Bykov           : pre 5.0 version of the SCF Hessian
   Marcos Casanova-Páez   : Triplet and SCS-CIS(D). UHF-(DLPNO)-IP/EA/STEOM-CCSD. UHF-CVS-IP/STEOM-CCSD
   Vijay G. Chilkuri      : MRCI spin determinant printing, contributions to CSF-ICE
   Pauline Colinet        : FMM embedding
   Dipayan Datta          : RHF DLPNO-CCSD density
   Achintya Kumar Dutta   : EOM-CC, STEOM-CC
   Nicolas Foglia         : Exact transition moments, OPA infrastructure, MCD improvements
   Dmitry Ganyushin       : Spin-Orbit,Spin-Spin,Magnetic field MRCI
   Miquel Garcia          : C-PCM and meta-GGA Hessian, CCSD/C-PCM, Gaussian charge scheme
   Tiago L. C. Gouveia    : GS-ROHF, GS-ROCIS
   Yang Guo               : DLPNO-NEVPT2, F12-NEVPT2, CIM, IAO-localization
   Andreas Hansen         : Spin unrestricted coupled pair/coupled cluster methods
   Ingolf Harden          : AUTO-CI MPn and infrastructure 
   Benjamin Helmich-Paris : MC-RPA, TRAH-(SCF,CASSCF), AVAS, COSX integrals, SCF dyn. polar.
   Lee Huntington         : MR-EOM, pCC
   Robert Izsak           : Overlap fitted RIJCOSX, COSX-SCS-MP3, EOM
   Riya Kayal             : Wick's Theorem for AUTO-CI, AUTO-CI UHF-CCSDT
   Emily Kempfer          : AUTO-CI, RHF CISDT and CCSDT
   Christian Kollmar      : KDIIS, OOCD, Brueckner-CCSD(T), CCSD density, CASPT2, CASPT2-K, improved NEVPT2
   Axel Koslowski         : Symmetry handling
   Simone Kossmann        : Meta GGA functionals, TD-DFT gradient, OOMP2, (MP2 Hessian; deprecated post 5.0)
   Lucas Lang             : DCDCAS
   Marvin Lechner         : AUTO-CI (C++ implementation), FIC-MRCC
   Spencer Leger          : CASSCF response
   Dagmar Lenk            : GEPOL surface, SMD, ORCA-2-JSON
   Dimitrios Liakos       : Extrapolation schemes; Compound Job, initial MDCI parallelization
   Dimitrios Manganas     : Further ROCIS development; embedding schemes. LFT, Crystal Embedding
   Dimitrios Pantazis     : SARC Basis sets
   Anastasios Papadopoulos: AUTO-CI, single reference methods and gradients
   Taras Petrenko         : pre 6.0 DFT Hessian and TD-DFT gradient, (ASA, deprecated), ECA, 1-Electron XAS/XES, NRVS
   Peter Pinski           : DLPNO-MP2, DLPNO-MP2 Gradient
   Christoph Reimann      : Effective Core Potentials
   Marius Retegan         : Local ZFS, SOC
   Christoph Riplinger    : Optimizer, TS searches, QM/MM, DLPNO-CCSD(T), (RO)-DLPNO pert. Triples
   Michael Roemelt        : Original ROCIS implementation
   Masaaki Saitow         : Open-shell DLPNO-CCSD energy and density
   Barbara Sandhoefer     : DKH picture change effects
   Kantharuban Sivalingam : CASSCF convergence/infrastructure, NEVPT2 and variants, FIC-MRCI
   Bernardo de Souza      : ESD, SOC TD-DFT
   Georgi Stoychev        : AutoAux, RI-MP2 NMR, DLPNO-MP2 response, X2C
   Van Anh Tran           : RI-MP2 g-tensors
   Willem Van den Heuvel  : Paramagnetic NMR
   Zikuan Wang            : NOTCH, Electric field optimization 
   Frank Wennmohs         : Technical directorship and infrastructure
   Hang Xu                : AUTO-CI-Response properties 


 We gratefully acknowledge several colleagues who have allowed us to
 interface, adapt or use parts of their codes:
   Stefan Grimme, W. Hujo, H. Kruse, P. Pracht,  : VdW corrections, initial TS optimization,
                  C. Bannwarth, S. Ehlert,         DFT functionals, gCP, sTDA/sTD-DF
                  L. Wittmann, M. Mueller
   Ed Valeev, F. Pavosevic, A. Kumar             : LibInt (2-el integral package), F12 methods
   Garnet Chan, S. Sharma, J. Yang, R. Olivares  : DMRG
   Ulf Ekstrom                                   : XCFun DFT Library
   Mihaly Kallay                                 : mrcc  (arbitrary order and MRCC methods)
   Frank Weinhold                                : gennbo (NPA and NBO analysis)
   Simon Mueller                                 : openCOSMO-RS
   Christopher J. Cramer and Donald G. Truhlar   : smd solvation model
   Lars Goerigk                                  : TD-DFT with DH, B97 family of functionals
   V. Asgeirsson, H. Jonsson                     : NEB implementation
   FAccTs GmbH                                   : IRC, NEB, NEB-TS, DLPNO-Multilevel, CI-OPT
                                                   MM, QMMM, 2- and 3-layer-ONIOM, Crystal-QMMM,
                                                   LR-CPCM, SF, NACMEs, symmetry and pop. for TD-DFT,
                                                   nearIR, NL-DFT gradient (VV10), updates on ESD,
                                                   ML-optimized integration grids, MBIS, APM,
                                                   GOAT, DOCKER, SOLVATOR, interface openCOSMO-RS
   S Lehtola, MJT Oliveira, MAL Marques          : LibXC Library
   Liviu Ungur et al                             : ANISO software


 Your calculation uses the libint2 library for the computation of 2-el integrals
 For citations please refer to: http://libint.valeyev.net

 Your ORCA version has been built with support for libXC version: 6.2.2
 For citations please refer to: https://libxc.gitlab.io

 This ORCA versions uses:
   CBLAS   interface :  Fast vector & matrix operations
   LAPACKE interface :  Fast linear algebra routines
   SCALAPACK package :  Parallel linear algebra routines
   Shared memory     :  Shared parallel matrices
   BLAS/LAPACK       :  OpenBLAS 0.3.27  USE64BITINT DYNAMIC_ARCH NO_AFFINITY SkylakeX SINGLE_THREADED
        Core in use  :  SkylakeX
   Copyright (c) 2011-2014, The OpenBLAS Project


Your calculation utilizes the geometrical counterpoise correction gCP
Please cite in your paper:
H.Kruse, S. Grimme J.Chem.Phys., 136, (2012), 154101 
   

Your calculation utilizes the atom-pairwise dispersion correction
based on EEQ partial charges (D4)


================================================================================

----- Orbital basis set information -----
Your calculation utilizes the basis: def2-SV(P)
   F. Weigend and R. Ahlrichs, Phys. Chem. Chem. Phys. 7, 3297 (2005).

----- AuxJ basis set information -----
Your calculation utilizes the auxiliary basis: def2/J
   F. Weigend, Phys. Chem. Chem. Phys. 8, 1057 (2006).

================================================================================
                                        WARNINGS
                       Please study these warnings very carefully!
================================================================================


================================================================================
                                       INPUT FILE
================================================================================
NAME = sp.inp
|  1> ! pbe def2-sv(p) def2/J RI DEFGRID1 loosescf d4 GCP(DFT/SV(P)) printgap
|  2> %output
|  3>     printlevel normal
|  4> end
|  5> * xyz 0 1
|  6> C 2.1767271299 1.1408338749 -0.5235718673
|  7> C 1.1981870323 0.2726698782 0.2671740849
|  8> C 1.8703653472 -1.044685535 0.6786271904
|  9> N -0.0014500661 0.083118019 -0.5346034592
| 10> C -1.2101481639 -0.3038901499 0.1842989634
| 11> C -2.1451233471 -1.0553298642 -0.759258057
| 12> C -1.9002035742 0.9534359893 0.7189128499
| 13> H 1.694574021 2.0699047964 -0.8119346943
| 14> H 3.0535556553 1.366152302 0.0770482453
| 15> H 2.4933164836 0.6217491362 -1.425005055
| 16> H 0.9013207696 0.8147367425 1.1720046554
| 17> H 2.2094259901 -1.5828588231 -0.2049629329
| 18> H 1.1760965089 -1.6799313518 1.2254028028
| 19> H 2.7282315202 -0.8485211196 1.3160119261
| 20> H 0.1963673991 -0.5848715972 -1.2723701443
| 21> H -0.9772024324 -0.963271101 1.0417066979
| 22> H -3.0743940723 -1.3001391388 -0.2520413661
| 23> H -2.3696353002 -0.4359993831 -1.6238053831
| 24> H -1.6850044817 -1.980631706 -1.1007874854
| 25> H -2.1598314615 1.6055207582 -0.110052126
| 26> H -1.2417903633 1.4977601826 1.3903938039
| 27> H -2.8033795744 0.6858325359 1.260605846
| 28> *
| 29> 
| 30>                          ****END OF INPUT****
================================================================================

                       ****************************
                       * Single Point Calculation *
                       ****************************

---------------------------------
CARTESIAN COORDINATES (ANGSTROEM)
---------------------------------
  C      2.176727    1.140834   -0.523572
  C      1.198187    0.272670    0.267174
  C      1.870365   -1.044686    0.678627
  N     -0.001450    0.083118   -0.534603
  C     -1.210148   -0.303890    0.184299
  C     -2.145123   -1.055330   -0.759258
  C     -1.900204    0.953436    0.718913
  H      1.694574    2.069905   -0.811935
  H      3.053556    1.366152    0.077048
  H      2.493316    0.621749   -1.425005
  H      0.901321    0.814737    1.172005
  H      2.209426   -1.582859   -0.204963
  H      1.176097   -1.679931    1.225403
  H      2.728232   -0.848521    1.316012
  H      0.196367   -0.584872   -1.272370
  H     -0.977202   -0.963271    1.041707
  H     -3.074394   -1.300139   -0.252041
  H     -2.369635   -0.435999   -1.623805
  H     -1.685004   -1.980632   -1.100787
  H     -2.159831    1.605521   -0.110052
  H     -1.241790    1.497760    1.390394
  H     -2.803380    0.685833    1.260606

----------------------------
CARTESIAN COORDINATES (A.U.)
----------------------------
  NO LB      ZA    FRAG     MASS         X           Y           Z
   0 C     6.0000    0    12.011    4.113418    2.155864   -0.989407
   1 C     6.0000    0    12.011    2.264245    0.515271    0.504886
   2 C     6.0000    0    12.011    3.534478   -1.974170    1.282420
   3 N     7.0000    0    14.007   -0.002740    0.157070   -1.010254
   4 C     6.0000    0    12.011   -2.286849   -0.574269    0.348275
   5 C     6.0000    0    12.011   -4.053696   -1.994284   -1.434790
   6 C     6.0000    0    12.011   -3.590864    1.801733    1.358548
   7 H     1.0000    0     1.008    3.202281    3.911553   -1.534334
   8 H     1.0000    0     1.008    5.770384    2.581654    0.145600
   9 H     1.0000    0     1.008    4.711685    1.174936   -2.692869
  10 H     1.0000    0     1.008    1.703249    1.539629    2.214768
  11 H     1.0000    0     1.008    4.175210   -2.991170   -0.387324
  12 H     1.0000    0     1.008    2.222500   -3.174610    2.315676
  13 H     1.0000    0     1.008    5.155610   -1.603473    2.486902
  14 H     1.0000    0     1.008    0.371081   -1.105247   -2.404431
  15 H     1.0000    0     1.008   -1.846645   -1.820319    1.968540
  16 H     1.0000    0     1.008   -5.809763   -2.456907   -0.476289
  17 H     1.0000    0     1.008   -4.477962   -0.823919   -3.068547
  18 H     1.0000    0     1.008   -3.184197   -3.742851   -2.080187
  19 H     1.0000    0     1.008   -4.081490    3.033995   -0.207968
  20 H     1.0000    0     1.008   -2.346644    2.830357    2.627464
  21 H     1.0000    0     1.008   -5.297620    1.296036    2.382200

--------------------------------
INTERNAL COORDINATES (ANGSTROEM)
--------------------------------
 C      0   0   0     0.000000000000     0.00000000     0.00000000
 C      1   0   0     1.528570773205     0.00000000     0.00000000
 C      2   1   0     1.535103458968   110.22692617     0.00000000
 N      2   1   3     1.455302822579   108.46192510   235.32771768
 C      4   2   1     1.458611362783   116.49408284   200.55519600
 C      5   4   2     1.526152052770   109.48677407   205.59129691
 C      5   4   2     1.530639571303   109.13419592    84.97795485
 H      1   2   3     1.085724420649   109.82311159   179.94546871
 H      1   2   3     1.086435076848   110.39323334   300.32486895
 H      1   2   3     1.087317606182   110.12836106    60.49185193
 H      2   1   3     1.095757466145   108.64133512   119.09542081
 H      3   2   1     1.088725912974   110.06196531   301.23580329
 H      3   2   1     1.088351982546   110.86809114   181.14415772
 H      3   2   1     1.086588307479   110.36510265    61.12361068
 H      4   2   1     1.014712549707   109.00259347    75.13062830
 H      5   4   2     1.106433448373   111.44418244   325.43211722
 H      6   5   4     1.086620648235   110.25861621   183.22735551
 H      6   5   4     1.086930513405   109.74008636   303.11152949
 H      6   5   4     1.088363551025   110.70872796    63.21527406
 H      7   5   4     1.086187882902   109.53254160    59.86887698
 H      7   5   4     1.086592589375   110.74204812   300.35920709
 H      7   5   4     1.086632319431   110.27558305   180.12829280

---------------------------
INTERNAL COORDINATES (A.U.)
---------------------------
 C      0   0   0     0.000000000000     0.00000000     0.00000000
 C      1   0   0     2.888580137674     0.00000000     0.00000000
 C      2   1   0     2.900925124684   110.22692617     0.00000000
 N      2   1   3     2.750123776597   108.46192510   235.32771768
 C      4   2   1     2.756376011486   116.49408284   200.55519600
 C      5   4   2     2.884009418457   109.48677407   205.59129691
 C      5   4   2     2.892489599505   109.13419592    84.97795485
 H      1   2   3     2.051721811937   109.82311159   179.94546871
 H      1   2   3     2.053064757528   110.39323334   300.32486895
 H      1   2   3     2.054732496276   110.12836106    60.49185193
 H      2   1   3     2.070681520214   108.64133512   119.09542081
 H      3   2   1     2.057393810425   110.06196531   301.23580329
 H      3   2   1     2.056687184322   110.86809114   181.14415772
 H      3   2   1     2.053354321456   110.36510265    61.12361068
 H      4   2   1     1.917528823599   109.00259347    75.13062830
 H      5   4   2     2.090856202835   111.44418244   325.43211722
 H      6   5   4     2.053415436629   110.25861621   183.22735551
 H      6   5   4     2.054000996938   109.74008636   303.11152949
 H      6   5   4     2.056709045578   110.70872796    63.21527406
 H      7   5   4     2.052597628669   109.53254160    59.86887698
 H      7   5   4     2.053362413067   110.74204812   300.35920709
 H      7   5   4     2.053437491993   110.27558305   180.12829280

---------------------
BASIS SET INFORMATION
---------------------
There are 3 groups of distinct atoms

 Group   1 Type C   : 7s4p1d contracted to 3s2p1d pattern {511/31/1}
 Group   2 Type N   : 7s4p1d contracted to 3s2p1d pattern {511/31/1}
 Group   3 Type H   : 4s contracted to 2s pattern {31}

Atom   0C    basis set group =>   1
Atom   1C    basis set group =>   1
Atom   2C    basis set group =>   1
Atom   3N    basis set group =>   2
Atom   4C    basis set group =>   1
Atom   5C    basis set group =>   1
Atom   6C    basis set group =>   1
Atom   7H    basis set group =>   3
Atom   8H    basis set group =>   3
Atom   9H    basis set group =>   3
Atom  10H    basis set group =>   3
Atom  11H    basis set group =>   3
Atom  12H    basis set group =>   3
Atom  13H    basis set group =>   3
Atom  14H    basis set group =>   3
Atom  15H    basis set group =>   3
Atom  16H    basis set group =>   3
Atom  17H    basis set group =>   3
Atom  18H    basis set group =>   3
Atom  19H    basis set group =>   3
Atom  20H    basis set group =>   3
Atom  21H    basis set group =>   3
---------------------------------
AUXILIARY/J BASIS SET INFORMATION
---------------------------------
There are 3 groups of distinct atoms

 Group   1 Type C   : 12s5p4d2f1g contracted to 6s4p3d1f1g pattern {711111/2111/211/2/1}
 Group   2 Type N   : 12s5p4d2f1g contracted to 6s4p3d1f1g pattern {711111/2111/211/2/1}
 Group   3 Type H   : 5s2p1d contracted to 3s1p1d pattern {311/2/1}

Atom   0C    basis set group =>   1
Atom   1C    basis set group =>   1
Atom   2C    basis set group =>   1
Atom   3N    basis set group =>   2
Atom   4C    basis set group =>   1
Atom   5C    basis set group =>   1
Atom   6C    basis set group =>   1
Atom   7H    basis set group =>   3
Atom   8H    basis set group =>   3
Atom   9H    basis set group =>   3
Atom  10H    basis set group =>   3
Atom  11H    basis set group =>   3
Atom  12H    basis set group =>   3
Atom  13H    basis set group =>   3
Atom  14H    basis set group =>   3
Atom  15H    basis set group =>   3
Atom  16H    basis set group =>   3
Atom  17H    basis set group =>   3
Atom  18H    basis set group =>   3
Atom  19H    basis set group =>   3
Atom  20H    basis set group =>   3
Atom  21H    basis set group =>   3
------------------------------------------------------------------------------
                             ORCA STARTUP CALCULATIONS
                           -- RI-GTO INTEGRALS CHOSEN --
------------------------------------------------------------------------------
------------------------------------------------------------------------------
                   ___                                                        
                  /   \      - P O W E R E D   B Y -                         
                 /     \                                                     
                 |  |  |   _    _      __       _____    __    __             
                 |  |  |  | |  | |    /  \     |  _  \  |  |  /  |          
                  \  \/   | |  | |   /    \    | | | |  |  | /  /          
                 / \  \   | |__| |  /  /\  \   | |_| |  |  |/  /          
                |  |  |   |  __  | /  /__\  \  |    /   |      \           
                |  |  |   | |  | | |   __   |  |    \   |  |\   \          
                \     /   | |  | | |  |  |  |  | |\  \  |  | \   \       
                 \___/    |_|  |_| |__|  |__|  |_| \__\ |__|  \__/        
                                                                              
                      - O R C A' S   B I G   F R I E N D -                    
                                      &                                       
                       - I N T E G R A L  F E E D E R -                       
                                                                              
 v1 FN, 2020, v2 2021, v3 2022-2024                                           
------------------------------------------------------------------------------


----------------------
SHARK INTEGRAL PACKAGE
----------------------

Number of atoms                             ...     22
Number of basis functions                   ...    128
Number of shells                            ...     72
Maximum angular momentum                    ...      2
Integral batch strategy                     ... SHARK/LIBINT Hybrid
RI-J (if used) integral strategy            ... SPLIT-RIJ (Revised 2003 algorithm where possible)
Printlevel                                  ...      1
Contraction scheme used                     ... SEGMENTED contraction
Prescreening option                         ... SCHWARTZ
   Thresh                                   ... 1.000e-09
   Tcut                                     ... 1.000e-10
   Tpresel                                  ... 1.000e-10 
Coulomb Range Separation                    ... NOT USED
Exchange Range Separation                   ... NOT USED
Multipole approximations                    ... NOT USED
Finite Nucleus Model                        ... NOT USED
CABS basis                                  ... NOT available
Auxiliary Coulomb fitting basis             ... AVAILABLE
   # of basis functions in Aux-J            ...    508
   # of shells in Aux-J                     ...    180
   Maximum angular momentum in Aux-J        ...      4
Auxiliary J/K fitting basis                 ... NOT available
Auxiliary Correlation fitting basis         ... NOT available
Auxiliary 'external' fitting basis          ... NOT available

Checking pre-screening integrals            ... done (  0.0 sec) Dimension = 72
Check shell pair data                       ... done (  0.0 sec)
Shell pair information
Shell pair cut-off parameter TPreSel        ...   1.0e-10
Total number of shell pairs                 ...      2628
Shell pairs after pre-screening             ...      2521
Total number of primitive shell pairs       ...     10576
Primitive shell pairs kept                  ...      7166
          la=0 lb=0:   1256 shell pairs
          la=1 lb=0:    698 shell pairs
          la=1 lb=1:    105 shell pairs
          la=2 lb=0:    337 shell pairs
          la=2 lb=1:     98 shell pairs
          la=2 lb=2:     27 shell pairs

Calculating one electron integrals          ... done (  0.0 sec)
Calculating RI/J V-Matrix + Cholesky decomp.... done (  0.1 sec)
Calculating Nuclear repulsion               ... done (  0.0 sec) ENN=    335.877265316394 Eh

Diagonalization of the overlap matrix:
Smallest eigenvalue                        ... 2.006e-03
Time for diagonalization                   ...    0.004 sec
Threshold for overlap eigenvalues          ... 1.000e-07
Number of eigenvalues below threshold      ... 0
Time for construction of square roots      ...    0.018 sec
Total time needed                          ...    0.036 sec

-------------------
DFT GRID GENERATION
-------------------

General Integration Accuracy     IntAcc      ... 4.159
Radial Grid Type                 RadialGrid  ... OptM3 with GC (2021)
Angular Grid (max. ang.)         AngularGrid ... 3 (Lebedev-194)
Angular grid pruning method      GridPruning ... 4 (adaptive)
Weight generation scheme         WeightScheme... mBecke (2022)
Basis function cutoff            BFCut       ... 1.0000e-10
Integration weight cutoff        WCut        ... 1.0000e-14
Partially contracted basis set               ... off
Rotationally invariant grid construction     ... off
Angular grids for H and He will be reduced by one unit

Total number of grid points                  ...    43651
Total number of batches                      ...      693
Average number of points per batch           ...       62
Average number of grid points per atom       ...     1984
Initializing property integral containers    ... done (  0.0 sec)

SHARK setup successfully completed in   0.8 seconds

Maximum memory used throughout the entire STARTUP-calculation: 20.6 MB
-------------------------------------------------------------------------------
                                 ORCA GUESS
                   Start orbitals & Density for SCF / CASSCF
-------------------------------------------------------------------------------

------------
SCF SETTINGS
------------
Hamiltonian:
 Density Functional     Method          .... DFT(GTOs)
 Exchange Functional    Exchange        .... PBE
   PBE kappa parameter   XKappa         ....  0.804000
   PBE mue parameter    XMuePBE         ....  0.219520
 Correlation Functional Correlation     .... PBE
   PBE beta parameter  CBetaPBE         ....  0.066725
 LDA part of GGA corr.  LDAOpt          .... PW91-LDA
 Gradients option       PostSCFGGA      .... off
   NL short-range parameter             ....  6.400000
 RI-approximation to the Coulomb term is turned on
   Number of AuxJ basis functions       .... 508


General Settings:
 Integral files         IntName         .... sp
 Hartree-Fock type      HFTyp           .... RHF
 Total Charge           Charge          ....    0
 Multiplicity           Mult            ....    1
 Number of Electrons    NEL             ....   58
 Basis Dimension        Dim             ....  128
 Nuclear Repulsion      ENuc            ....    335.8772653164 Eh

Convergence Acceleration:
 AO-DIIS                CNVDIIS         .... on
   Start iteration      DIISMaxIt       ....    12
   Startup error        DIISStart       ....  0.200000
   # of expansion vecs  DIISMaxEq       ....     5
   Bias factor          DIISBfac        ....   1.050
   Max. coefficient     DIISMaxC        ....  10.000
 MO-DIIS                CNVKDIIS        .... off
 Trust-Rad. Augm. Hess. CNVTRAH         .... auto
   Auto Start mean grad. ratio tolernc. ....  1.125000
   Auto Start start iteration           ....    50
   Auto Start num. interpolation iter.  ....    10
   Max. Number of Micro iterations      ....    24
   Max. Number of Macro iterations      .... Maxiter - #DIIS iter
   Number of Davidson start vectors     ....     2
   Converg. threshold    (grad. norm)   ....   1.000e-04
   Grad. Scal. Fac. for Micro threshold ....   0.100
   Minimum threshold for Micro iter.    ....   1.000e-02
   NR start threshold (gradient norm)   ....   1.000e-04
   Initial trust radius                 ....   0.400
   Minimum AH scaling param. (alpha)    ....   1.000
   Maximum AH scaling param. (alpha)    .... 1000.000
   Quad. conv. algorithm                .... NR
   White noise on init. David. guess    .... on
   Maximum white noise                  ....   0.010
   Pseudo random numbers                .... off
   Inactive MOs                         .... canonical
   Orbital update algorithm             .... Taylor
   Preconditioner                       .... Diag
   Full preconditioner red. dimension   ....   250
 SOSCF                  CNVSOSCF        .... on
   Start iteration      SOSCFMaxIt      ....   150
   Startup grad/error   SOSCFStart      ....  0.003300
   Hessian update       SOSCFHessUp     .... L-BFGS
 Level Shifting         CNVShift        .... on
   Level shift para.    LevelShift      ....    0.2500
   Turn off err/grad.   ShiftErr        ....    0.0010
 Zerner damping         CNVZerner       .... off
 Static damping         CNVDamp         .... on
   Fraction old density DampFac         ....    0.7000
   Max. Damping (<1)    DampMax         ....    0.9800
   Min. Damping (>=0)   DampMin         ....    0.0000
   Turn off err/grad.   DampErr         ....    0.1000

SCF Procedure:
 Maximum # iterations   MaxIter         ....   125
 SCF integral mode      SCFMode         .... Direct
   Integral package                     .... SHARK and LIBINT hybrid scheme
 Reset frequency        DirectResetFreq ....    20
 Integral Threshold     Thresh          ....  1.000e-09 Eh
 Primitive CutOff       TCut            ....  1.000e-10 Eh

Convergence Tolerance:
 Convergence Check Mode ConvCheckMode   .... Total+1el-Energy
 Convergence forced     ConvForced      .... 0
 Energy Change          TolE            ....  1.000e-05 Eh
 1-El. energy change                    ....  1.000e-02 Eh
 Orbital Gradient       TolG            ....  1.000e-04
 Orbital Rotation angle TolX            ....  1.000e-04
 DIIS Error             TolErr          ....  5.000e-04

------------------------------
INITIAL GUESS: MODEL POTENTIAL
------------------------------
Loading Hartree-Fock densities                     ... done
Calculating cut-offs                               ... done
Initializing the effective Hamiltonian             ... done
Setting up the integral package (SHARK)            ... done
Starting the Coulomb interaction                   ... done (   0.1 sec)
Making the grid                                    ... done (   0.4 sec)
Mapping shells                                     ... done
Starting the XC term evaluation                    ... done (   0.2 sec)
  promolecular density results
     # of electrons  =     57.996954647
     EX              =    -41.674710374
     EC              =     -1.887562164
     EX+EC           =    -43.562272538
Transforming the Hamiltonian                       ... done (   0.0 sec)
Diagonalizing the Hamiltonian                      ... done (   0.0 sec)
Back transforming the eigenvectors                 ... done (   0.0 sec)
Now organizing SCF variables                       ... done
                      ------------------
                      INITIAL GUESS DONE (   0.7 sec)
                      ------------------
             **** ENERGY FILE WAS UPDATED (sp.en.tmp) ****
Finished Guess after   0.9 sec
Maximum memory used throughout the entire GUESS-calculation: 15.7 MB

-------------------------------------------------------------------------------------------
                                      ORCA LEAN-SCF
                              memory conserving SCF solver
-------------------------------------------------------------------------------------------

----------------------------------------D-I-I-S--------------------------------------------
Iteration    Energy (Eh)           Delta-E    RMSDP     MaxDP     DIISErr   Damp  Time(sec)
-------------------------------------------------------------------------------------------
               ***  Starting incremental Fock matrix formation  ***
    1    -291.5007934098358646     0.00e+00  5.36e-03  8.37e-02  1.87e-01  0.700   0.8
    2    -291.6276962327716546    -1.27e-01  3.88e-03  4.79e-02  7.67e-02  0.700   0.8
                               ***Turning on AO-DIIS***
    3    -291.6706689610559806    -4.30e-02  1.44e-03  1.35e-02  2.27e-02  0.700   0.8
    4    -291.6956108709413229    -2.49e-02  1.93e-03  2.08e-02  7.36e-03  0.000   1.5
    5    -291.7529725907709235    -5.74e-02  6.86e-04  7.98e-03  8.23e-03  0.000   0.8
                              *** Initializing SOSCF ***
---------------------------------------S-O-S-C-F--------------------------------------
Iteration    Energy (Eh)           Delta-E    RMSDP     MaxDP     MaxGrad    Time(sec)
--------------------------------------------------------------------------------------
    6    -291.7537402054315407    -7.68e-04  2.63e-04  3.26e-03  2.02e-03     0.8
               *** Restarting incremental Fock matrix formation ***
    7    -291.7538030873475918    -6.29e-05  2.23e-04  3.20e-03  3.24e-04     0.8
    8    -291.7538017308852432     1.36e-06  6.03e-05  1.26e-03  3.82e-04     0.7
                 **** Energy Check signals convergence ****

               *****************************************************
               *                     SUCCESS                       *
               *           SCF CONVERGED AFTER   8 CYCLES          *
               *****************************************************

             **** ENERGY FILE WAS UPDATED (sp.en.tmp) ****

----------------
TOTAL SCF ENERGY
----------------

Total Energy       :       -291.75380173088524 Eh           -7939.02456 eV

Components:
Nuclear Repulsion  :        335.87726531639407 Eh            9139.68504 eV
Electronic Energy  :       -627.63106704727932 Eh          -17078.70960 eV
One Electron Energy:      -1057.97439714039683 Eh          -28788.94695 eV
Two Electron Energy:        430.34333009311752 Eh           11710.23735 eV

Virial components:
Potential Energy   :       -580.81006487985496 Eh          -15804.64536 eV
Kinetic Energy     :        289.05626314896972 Eh            7865.62080 eV
Virial Ratio       :          2.00933222671783

DFT components:
N(Alpha)           :       29.000299455940 electrons
N(Beta)            :       29.000299455940 electrons
N(Total)           :       58.000598911880 electrons
E(X)               :      -42.776520872957 Eh       
E(C)               :       -1.898538050878 Eh       
E(XC)              :      -44.675058923835 Eh       

---------------
SCF CONVERGENCE
---------------

  Last Energy change         ...   -1.3565e-06  Tolerance :   1.0000e-05
  Last MAX-Density change    ...    1.2583e-03  Tolerance :   1.0000e-03
  Last RMS-Density change    ...    6.0277e-05  Tolerance :   1.0000e-04
  Last DIIS Error            ...    2.0234e-03  Tolerance :   5.0000e-04
  Last Orbital Gradient      ...    3.8211e-04  Tolerance :   1.0000e-04
  Last Orbital Rotation      ...    2.5939e-04  Tolerance :   1.0000e-04


----------------
ORBITAL ENERGIES
----------------

  NO   OCC          E(Eh)            E(eV) 
   0   2.0000     -13.959802      -379.8655 
   1   2.0000      -9.914196      -269.7790 
   2   2.0000      -9.913987      -269.7733 
   3   2.0000      -9.873643      -268.6755 
   4   2.0000      -9.871258      -268.6106 
   5   2.0000      -9.865867      -268.4639 
   6   2.0000      -9.864339      -268.4223 
   7   2.0000      -0.818523       -22.2731 
   8   2.0000      -0.706942       -19.2369 
   9   2.0000      -0.649160       -17.6645 
  10   2.0000      -0.611011       -16.6265 
  11   2.0000      -0.608426       -16.5561 
  12   2.0000      -0.519888       -14.1469 
  13   2.0000      -0.509219       -13.8566 
  14   2.0000      -0.436688       -11.8829 
  15   2.0000      -0.411547       -11.1988 
  16   2.0000      -0.399969       -10.8837 
  17   2.0000      -0.379946       -10.3388 
  18   2.0000      -0.363597        -9.8940 
  19   2.0000      -0.355431        -9.6718 
  20   2.0000      -0.339689        -9.2434 
  21   2.0000      -0.338675        -9.2158 
  22   2.0000      -0.328402        -8.9363 
  23   2.0000      -0.308603        -8.3975 
  24   2.0000      -0.300894        -8.1877 
  25   2.0000      -0.294282        -8.0078 
  26   2.0000      -0.286485        -7.7956 
  27   2.0000      -0.282010        -7.6739 
  28   2.0000      -0.168010        -4.5718 
  29   0.0000       0.030147         0.8203 
  30   0.0000       0.055973         1.5231 
  31   0.0000       0.058835         1.6010 
  32   0.0000       0.073038         1.9875 
  33   0.0000       0.093976         2.5572 
  34   0.0000       0.096269         2.6196 
  35   0.0000       0.102143         2.7795 
  36   0.0000       0.107121         2.9149 
  37   0.0000       0.121681         3.3111 
  38   0.0000       0.130472         3.5503 
  39   0.0000       0.133181         3.6240 
*Only the first 10 virtual orbitals were printed.

                    ********************************
                    * MULLIKEN POPULATION ANALYSIS *
                    ********************************

-----------------------
MULLIKEN ATOMIC CHARGES
-----------------------
   0 C :   -0.212803
   1 C :   -0.110044
   2 C :   -0.251481
   3 N :   -0.326463
   4 C :   -0.078144
   5 C :   -0.269311
   6 C :   -0.221567
   7 H :    0.101755
   8 H :    0.091040
   9 H :    0.084199
  10 H :    0.075973
  11 H :    0.086521
  12 H :    0.104917
  13 H :    0.096162
  14 H :    0.190786
  15 H :    0.057071
  16 H :    0.102513
  17 H :    0.102919
  18 H :    0.098327
  19 H :    0.092839
  20 H :    0.097873
  21 H :    0.086919
Sum of atomic charges:   -0.0000000

--------------------------------
MULLIKEN REDUCED ORBITAL CHARGES
--------------------------------
  0 C s       :     3.066850  s :     3.066850
      pz      :     1.039727  p :     3.117737
      px      :     1.030344
      py      :     1.047666
      dz2     :     0.004172  d :     0.028216
      dxz     :     0.007435
      dyz     :     0.005822
      dx2y2   :     0.005467
      dxy     :     0.005320

  1 C s       :     3.084969  s :     3.084969
      pz      :     1.019103  p :     2.966434
      px      :     0.916753
      py      :     1.030579
      dz2     :     0.007867  d :     0.058641
      dxz     :     0.013595
      dyz     :     0.011774
      dx2y2   :     0.010951
      dxy     :     0.014453

  2 C s       :     3.080464  s :     3.080464
      pz      :     1.046370  p :     3.142922
      px      :     1.050464
      py      :     1.046088
      dz2     :     0.002228  d :     0.028096
      dxz     :     0.007782
      dyz     :     0.007698
      dx2y2   :     0.004159
      dxy     :     0.006229

  3 N s       :     3.499174  s :     3.499174
      pz      :     1.194128  p :     3.802773
      px      :     1.080488
      py      :     1.528157
      dz2     :     0.002646  d :     0.024517
      dxz     :     0.005837
      dyz     :     0.006846
      dx2y2   :     0.004602
      dxy     :     0.004585

  4 C s       :     3.069526  s :     3.069526
      pz      :     0.991212  p :     2.950267
      px      :     0.910744
      py      :     1.048311
      dz2     :     0.007672  d :     0.058351
      dxz     :     0.012089
      dyz     :     0.014757
      dx2y2   :     0.011610
      dxy     :     0.012224

  5 C s       :     3.093639  s :     3.093639
      pz      :     1.051893  p :     3.147257
      px      :     1.050765
      py      :     1.044599
      dz2     :     0.004071  d :     0.028415
      dxz     :     0.006280
      dyz     :     0.007545
      dx2y2   :     0.005565
      dxy     :     0.004953

  6 C s       :     3.067734  s :     3.067734
      pz      :     1.052478  p :     3.125615
      px      :     1.032498
      py      :     1.040639
      dz2     :     0.001843  d :     0.028218
      dxz     :     0.007482
      dyz     :     0.008808
      dx2y2   :     0.004553
      dxy     :     0.005532

  7 H s       :     0.898245  s :     0.898245

  8 H s       :     0.908960  s :     0.908960

  9 H s       :     0.915801  s :     0.915801

 10 H s       :     0.924027  s :     0.924027

 11 H s       :     0.913479  s :     0.913479

 12 H s       :     0.895083  s :     0.895083

 13 H s       :     0.903838  s :     0.903838

 14 H s       :     0.809214  s :     0.809214

 15 H s       :     0.942929  s :     0.942929

 16 H s       :     0.897487  s :     0.897487

 17 H s       :     0.897081  s :     0.897081

 18 H s       :     0.901673  s :     0.901673

 19 H s       :     0.907161  s :     0.907161

 20 H s       :     0.902127  s :     0.902127

 21 H s       :     0.913081  s :     0.913081


------------------------
MULLIKEN OVERLAP CHARGES
------------------------
B(  0-C ,  1-C ) :   0.8733 B(  0-C ,  2-C ) :  -0.1691 B(  0-C ,  3-N ) :  -0.1352 
B(  0-C ,  7-H ) :   0.7062 B(  0-C ,  8-H ) :   0.7078 B(  0-C ,  9-H ) :   0.7350 
B(  0-C , 10-H ) :  -0.0529 B(  1-C ,  2-C ) :   0.8453 B(  1-C ,  3-N ) :   0.6943 
B(  1-C ,  4-C ) :  -0.0574 B(  1-C , 10-H ) :   0.7008 B(  1-C , 14-H ) :  -0.0756 
B(  2-C ,  3-N ) :  -0.1148 B(  2-C , 10-H ) :  -0.0906 B(  2-C , 11-H ) :   0.7147 
B(  2-C , 12-H ) :   0.7249 B(  2-C , 13-H ) :   0.6746 B(  3-N ,  4-C ) :   0.7093 
B(  3-N ,  5-C ) :  -0.0981 B(  3-N ,  6-C ) :  -0.1869 B(  3-N , 10-H ) :  -0.0787 
B(  3-N , 14-H ) :   0.6042 B(  3-N , 15-H ) :  -0.0852 B(  4-C ,  5-C ) :   0.8642 
B(  4-C ,  6-C ) :   0.8619 B(  4-C , 14-H ) :  -0.0856 B(  4-C , 15-H ) :   0.6830 
B(  5-C ,  6-C ) :  -0.0964 B(  5-C , 15-H ) :  -0.0774 B(  5-C , 16-H ) :   0.7319 
B(  5-C , 17-H ) :   0.7207 B(  5-C , 18-H ) :   0.7215 B(  6-C , 15-H ) :  -0.1510 
B(  6-C , 19-H ) :   0.6882 B(  6-C , 20-H ) :   0.7216 B(  6-C , 21-H ) :   0.6669 
B( 17-H , 18-H ) :  -0.0648 


                     *******************************
                     * LOEWDIN POPULATION ANALYSIS *
                     *******************************

----------------------
LOEWDIN ATOMIC CHARGES
----------------------
   0 C :   -0.335374
   1 C :   -0.105127
   2 C :   -0.349063
   3 N :   -0.244482
   4 C :   -0.101404
   5 C :   -0.337316
   6 C :   -0.337536
   7 H :    0.120425
   8 H :    0.116015
   9 H :    0.113732
  10 H :    0.111817
  11 H :    0.113162
  12 H :    0.116314
  13 H :    0.119778
  14 H :    0.202972
  15 H :    0.090520
  16 H :    0.122907
  17 H :    0.120605
  18 H :    0.114263
  19 H :    0.118746
  20 H :    0.114822
  21 H :    0.114223

-------------------------------
LOEWDIN REDUCED ORBITAL CHARGES
-------------------------------
  0 C s       :     2.954322  s :     2.954322
      pz      :     1.106639  p :     3.311328
      px      :     1.099021
      py      :     1.105668
      dz2     :     0.009686  d :     0.069724
      dxz     :     0.018550
      dyz     :     0.014991
      dx2y2   :     0.012181
      dxy     :     0.014315

  1 C s       :     2.873472  s :     2.873472
      pz      :     1.050737  p :     3.095639
      px      :     0.982797
      py      :     1.062106
      dz2     :     0.016561  d :     0.136016
      dxz     :     0.033643
      dyz     :     0.026952
      dx2y2   :     0.023673
      dxy     :     0.035187

  2 C s       :     2.957043  s :     2.957043
      pz      :     1.117088  p :     3.322441
      px      :     1.110562
      py      :     1.094791
      dz2     :     0.005844  d :     0.069579
      dxz     :     0.019331
      dyz     :     0.018266
      dx2y2   :     0.010170
      dxy     :     0.015967

  3 N s       :     3.189833  s :     3.189833
      pz      :     1.277819  p :     4.000819
      px      :     1.157047
      py      :     1.565953
      dz2     :     0.005917  d :     0.053831
      dxz     :     0.015575
      dyz     :     0.013048
      dx2y2   :     0.010719
      dxy     :     0.008571

  4 C s       :     2.875303  s :     2.875303
      pz      :     1.049777  p :     3.089969
      px      :     0.975864
      py      :     1.064328
      dz2     :     0.015821  d :     0.136132
      dxz     :     0.029730
      dyz     :     0.036245
      dx2y2   :     0.024485
      dxy     :     0.029850

  5 C s       :     2.951466  s :     2.951466
      pz      :     1.108348  p :     3.315928
      px      :     1.104589
      py      :     1.102992
      dz2     :     0.009126  d :     0.069922
      dxz     :     0.016196
      dyz     :     0.018898
      dx2y2   :     0.013102
      dxy     :     0.012600

  6 C s       :     2.957052  s :     2.957052
      pz      :     1.116985  p :     3.311037
      px      :     1.103725
      py      :     1.090328
      dz2     :     0.004430  d :     0.069447
      dxz     :     0.018214
      dyz     :     0.021318
      dx2y2   :     0.011062
      dxy     :     0.014423

  7 H s       :     0.879575  s :     0.879575

  8 H s       :     0.883985  s :     0.883985

  9 H s       :     0.886268  s :     0.886268

 10 H s       :     0.888183  s :     0.888183

 11 H s       :     0.886838  s :     0.886838

 12 H s       :     0.883686  s :     0.883686

 13 H s       :     0.880222  s :     0.880222

 14 H s       :     0.797028  s :     0.797028

 15 H s       :     0.909480  s :     0.909480

 16 H s       :     0.877093  s :     0.877093

 17 H s       :     0.879395  s :     0.879395

 18 H s       :     0.885737  s :     0.885737

 19 H s       :     0.881254  s :     0.881254

 20 H s       :     0.885178  s :     0.885178

 21 H s       :     0.885777  s :     0.885777


---------------------------------
LOEWDIN BOND ORDERS (THRESH 0.050000)
---------------------------------
B(  0-C ,  1-C ) :   1.0999 B(  0-C ,  2-C ) :   0.0573 B(  0-C ,  3-N ) :   0.0662 
B(  0-C ,  7-H ) :   0.9363 B(  0-C ,  8-H ) :   0.9356 B(  0-C ,  9-H ) :   0.9366 
B(  1-C ,  2-C ) :   1.0930 B(  1-C ,  3-N ) :   1.1181 B(  1-C ,  4-C ) :   0.0602 
B(  1-C , 10-H ) :   0.8748 B(  2-C ,  3-N ) :   0.0674 B(  2-C , 11-H ) :   0.9355 
B(  2-C , 12-H ) :   0.9337 B(  2-C , 13-H ) :   0.9330 B(  3-N ,  4-C ) :   1.1135 
B(  3-N ,  5-C ) :   0.0540 B(  3-N ,  6-C ) :   0.0669 B(  3-N , 14-H ) :   0.8722 
B(  4-C ,  5-C ) :   1.1026 B(  4-C ,  6-C ) :   1.0949 B(  4-C , 15-H ) :   0.8679 
B(  5-C ,  6-C ) :   0.0560 B(  5-C , 16-H ) :   0.9342 B(  5-C , 17-H ) :   0.9341 
B(  5-C , 18-H ) :   0.9348 B(  6-C , 19-H ) :   0.9355 B(  6-C , 20-H ) :   0.9333 
B(  6-C , 21-H ) :   0.9343 

------------------------------------------
LOEWDIN REDUCED ORBITAL POPULATIONS PER MO
-------------------------------------------
THRESHOLD FOR PRINTING IS 0.1%%
                      0         1         2         3         4         5   
                 -13.95980  -9.91420  -9.91399  -9.87364  -9.87126  -9.86587
                   2.00000   2.00000   2.00000   2.00000   2.00000   2.00000
                  --------  --------  --------  --------  --------  --------
 0 C  s               0.0       0.0       0.0       0.0       0.0      99.7
 1 C  s               0.0       0.1      99.4       0.0       0.0       0.0
 2 C  s               0.0       0.0       0.0       0.0      99.7       0.0
 3 N  s              99.8       0.0       0.0       0.0       0.0       0.0
 4 C  s               0.0      99.4       0.1       0.0       0.0       0.0
 5 C  s               0.0       0.0       0.0      99.7       0.0       0.0

                      6         7         8         9        10        11   
                  -9.86434  -0.81852  -0.70694  -0.64916  -0.61101  -0.60843
                   2.00000   2.00000   2.00000   2.00000   2.00000   2.00000
                  --------  --------  --------  --------  --------  --------
 0 C  s               0.0       1.6       8.1       7.8       1.5      20.7
 0 C  pz              0.0       0.2       0.4       0.3       0.0       0.1
 0 C  px              0.0       0.8       0.5       0.0       0.0       0.0
 0 C  py              0.0       0.5       0.7       0.1       0.1       0.3
 1 C  s               0.0      12.1      13.3       2.9       0.0       0.0
 1 C  pz              0.0       1.5       0.1       1.1       0.2       3.5
 1 C  px              0.0       2.9       1.5       7.3       0.2       0.4
 1 C  py              0.0       0.3       0.0       0.0       2.0       9.7
 1 C  dxz             0.0       0.2       0.0       0.2       0.0       0.1
 1 C  dxy             0.0       0.0       0.0       0.0       0.0       0.2
 2 C  s               0.0       1.8       7.5       9.5       4.3      19.0
 2 C  pz              0.0       0.2       0.2       0.0       0.0       0.2
 2 C  px              0.0       0.5       0.1       0.1       0.0       0.0
 2 C  py              0.0       0.8       1.2       0.3       0.1       0.6
 3 N  s               0.0      36.7       0.0      11.7       0.0       0.0
 3 N  pz              0.0       1.0       0.0       0.7       0.6       0.4
 3 N  px              0.0       0.1       7.4       0.1       0.0       0.1
 3 N  py              0.0       0.9       0.3       0.8       0.9       0.1
 3 N  dxz             0.0       0.0       0.1       0.0       0.0       0.0
 4 C  s               0.0      11.8      13.8       2.6       0.1       0.0
 4 C  pz              0.0       1.3       0.2       0.8       4.9       0.9
 4 C  px              0.0       3.1       1.6       7.5       0.1       0.3
 4 C  py              0.1       0.3       0.0       0.0       9.2       0.8
 4 C  dxz             0.0       0.1       0.0       0.2       0.1       0.0
 4 C  dxy             0.0       0.0       0.0       0.0       0.1       0.0
 5 C  s               0.0       1.8       9.7       7.5      18.2       3.8
 5 C  pz              0.0       0.3       0.6       0.3       0.3       0.1
 5 C  px              0.0       0.9       0.5       0.1       0.0       0.0
 5 C  py              0.0       0.4       0.5       0.1       0.5       0.0
 6 C  s              99.7       1.6       7.1       8.7      20.1       1.9
 6 C  pz              0.0       0.2       0.3       0.0       0.2       0.0
 6 C  px              0.0       0.5       0.1       0.0       0.0       0.0
 6 C  py              0.0       0.7       1.2       0.3       0.2       0.0
 7 H  s               0.0       0.3       1.4       1.4       0.5       5.9
 8 H  s               0.0       0.2       1.5       2.1       0.3       5.2
 9 H  s               0.0       0.3       1.6       1.6       0.3       5.3
10 H  s               0.0       1.9       2.1       1.0       0.1       0.0
11 H  s               0.0       0.3       1.5       2.1       1.2       4.8
12 H  s               0.0       0.3       1.2       1.9       1.2       6.0
13 H  s               0.0       0.2       1.5       2.6       1.1       4.8
14 H  s               0.0       7.6       0.0       3.9       0.3       0.0
15 H  s               0.0       1.7       2.1       0.8       0.0       0.1
16 H  s               0.0       0.2       1.8       2.2       4.5       1.0
17 H  s               0.0       0.3       1.9       1.6       4.6       1.0
18 H  s               0.0       0.3       1.8       1.3       5.8       1.1
19 H  s               0.1       0.3       1.4       1.9       4.8       0.4
20 H  s               0.1       0.3       1.1       1.8       6.1       0.6
21 H  s               0.1       0.2       1.4       2.3       4.9       0.4

                     12        13        14        15        16        17   
                  -0.51989  -0.50922  -0.43669  -0.41155  -0.39997  -0.37995
                   2.00000   2.00000   2.00000   2.00000   2.00000   2.00000
                  --------  --------  --------  --------  --------  --------
 0 C  s               6.1       0.0       0.0       0.5       0.1       0.0
 0 C  pz              1.9       1.1       1.9       7.0       1.4       0.7
 0 C  px              4.4       0.0       0.4       0.0       2.3       2.8
 0 C  py              0.8       0.1       1.5       6.0       1.8      12.8
 0 C  dxy             0.1       0.0       0.0       0.1       0.0       0.0
 1 C  s              10.9       1.7       0.0       1.9       0.1       0.1
 1 C  pz              1.2       5.7       7.0       1.3       6.4       1.7
 1 C  px              3.7       0.3       0.1      13.2       0.1       1.7
 1 C  py              0.7       1.2       2.6       0.0       0.0       4.5
 2 C  s               2.9       0.5       0.1       0.5       0.1       0.1
 2 C  pz              0.0       0.6       3.4       0.5       3.2      14.1
 2 C  px              1.8       0.4       1.0       0.7       0.9       0.3
 2 C  py              3.4       1.0       0.1      13.5       0.6       2.3
 2 C  dxy             0.1       0.0       0.0       0.1       0.0       0.1
 3 N  s               0.1       1.7       0.4       0.3       0.1       0.4
 3 N  pz              2.2      13.3       0.5       9.3       1.1       5.2
 3 N  px              9.7       3.3      13.2       0.6       0.4       1.0
 3 N  py              2.7       0.9       1.2       3.9       6.0       0.0
 3 N  dxz             0.3       0.0       0.0       0.0       0.0       0.0
 3 N  dyz             0.0       0.1       0.0       0.0       0.0       0.1
 3 N  dx2y2           0.0       0.0       0.0       0.0       0.1       0.0
 4 C  s               3.7       9.3       0.7       0.6       0.7       0.0
 4 C  pz              0.2       3.0      13.0       1.9       1.0       0.0
 4 C  px              1.3       1.7       2.6       3.1       5.0       4.6
 4 C  py              0.1       1.2       8.6       0.6       6.5       0.5
 5 C  s               3.7       1.1       0.1       0.6       0.0       0.1
 5 C  pz              0.7       2.6       7.8       1.3       0.6       4.2
 5 C  px              2.8       1.2       0.1       3.4       3.2       0.7
 5 C  py              0.7       0.1       1.4       3.5      13.4       2.6
 5 C  dxy             0.0       0.0       0.0       0.0       0.1       0.0
 6 C  s               0.6       6.0       0.0       0.0       0.5       0.0
 6 C  pz              0.2       0.1       3.5       0.7      11.1       0.1
 6 C  px              0.3       3.0       1.2       2.0       0.0       5.7
 6 C  py              0.7       4.6       3.5       0.7       4.9       2.5
 6 C  dxy             0.0       0.1       0.0       0.0       0.1       0.0
 7 H  s               2.1       0.0       0.1       4.8       0.1       5.6
 8 H  s               3.7       0.0       1.0       0.0       2.4       0.0
 9 H  s               4.0       0.4       0.7       1.0       0.3       3.3
10 H  s               6.6       4.0       2.7       0.5       1.8       1.7
11 H  s               2.4       1.2       0.4       1.0       2.2       2.1
12 H  s               1.4       0.0       0.0       5.5       0.4       4.8
13 H  s               1.9       0.1       1.7       0.0       0.0       1.7
14 H  s               1.1       7.9       0.7       3.7       2.3       2.3
15 H  s               1.0       7.3       8.6       0.1       1.8       0.0
16 H  s               2.7       0.7       0.8       1.7       0.3       0.6
17 H  s               1.6       1.6       3.3       0.3       1.2       0.3
18 H  s               1.4       0.7       0.0       1.3       7.6       3.1
19 H  s               0.3       4.1       1.7       0.1       0.1       0.0
20 H  s               0.6       1.9       0.1       1.2       5.9       2.6
21 H  s               0.5       3.6       1.7       0.3       1.3       2.0

                     18        19        20        21        22        23   
                  -0.36360  -0.35543  -0.33969  -0.33868  -0.32840  -0.30860
                   2.00000   2.00000   2.00000   2.00000   2.00000   2.00000
                  --------  --------  --------  --------  --------  --------
 0 C  s               0.2       0.0       0.0       0.0       0.0       0.0
 0 C  pz              2.0       0.8       3.0      17.4       0.0       9.9
 0 C  px              7.2      15.2       1.9       0.4       1.0       3.3
 0 C  py              0.0       0.5       0.5       6.5       0.0       0.6
 0 C  dxz             0.0       0.1       0.1       0.1       0.0       0.1
 0 C  dx2y2           0.0       0.0       0.0       0.0       0.0       0.2
 0 C  dxy             0.0       0.0       0.0       0.0       0.0       0.2
 1 C  s               0.1       0.4       0.0       0.0       0.0       0.1
 1 C  pz              2.5       0.7       0.0       0.0       0.2       6.5
 1 C  px              0.5       0.1       0.3       0.0       1.8       0.4
 1 C  py             10.6       1.5       0.0       0.4       0.0       0.1
 1 C  dz2             0.0       0.0       0.1       0.1       0.0       0.0
 1 C  dxz             0.0       0.1       0.0       0.0       0.0       0.2
 1 C  dyz             0.0       0.0       0.0       0.1       0.0       0.0
 1 C  dx2y2           0.1       0.2       0.0       0.1       0.2       0.1
 1 C  dxy             0.0       0.0       0.0       0.0       0.0       0.1
 2 C  pz              0.0       1.8       1.9      20.3       0.0       5.5
 2 C  px             32.3       1.7       0.4       0.8       4.8       0.0
 2 C  py              0.3       2.8       0.2       5.2       0.0       0.8
 2 C  dxz             0.1       0.1       0.0       0.2       0.0       0.0
 2 C  dyz             0.2       0.0       0.0       0.1       0.0       0.1
 2 C  dxy             0.0       0.0       0.0       0.0       0.0       0.1
 3 N  s               0.6       1.7       0.4       0.0       0.5       0.0
 3 N  pz              1.0       0.1       2.8       0.0       7.5       0.0
 3 N  px              0.0       0.0       0.1       0.0       0.0       9.4
 3 N  py              2.9       0.1       0.1       0.4       0.4       1.4
 4 C  s               0.1       0.2       0.1       0.0       0.0       0.1
 4 C  pz              0.8       2.6       1.9       0.2       0.4       4.8
 4 C  px              0.0       0.5       0.3       0.0       1.3       1.3
 4 C  py              0.0       2.8       0.8       0.1       0.4       0.1
 4 C  dz2             0.0       0.0       0.3       0.0       0.0       0.0
 4 C  dxz             0.0       0.1       0.0       0.0       0.0       0.1
 4 C  dx2y2           0.1       0.1       0.0       0.0       0.2       0.2
 4 C  dxy             0.0       0.0       0.1       0.0       0.0       0.1
 5 C  pz              0.4       0.6      15.1       1.3       4.8       4.8
 5 C  px              0.0      25.6       0.2       0.4       2.5       2.4
 5 C  py              3.9       0.0       9.5       1.7       0.1       0.1
 5 C  dz2             0.0       0.0       0.1       0.0       0.0       0.0
 5 C  dxz             0.0       0.2       0.1       0.0       0.0       0.0
 5 C  dyz             0.0       0.1       0.1       0.0       0.0       0.0
 5 C  dx2y2           0.0       0.1       0.1       0.0       0.0       0.2
 5 C  dxy             0.0       0.0       0.0       0.0       0.0       0.1
 6 C  s               0.0       0.1       0.0       0.0       0.0       0.1
 6 C  pz              2.2       1.9      11.4       2.2       3.3       6.3
 6 C  px              3.6       0.5       5.1       0.1      26.8       1.0
 6 C  py              0.1       2.2       4.5       0.8       3.7       0.3
 6 C  dxz             0.0       0.0       0.0       0.0       0.4       0.0
 6 C  dyz             0.0       0.0       0.2       0.0       0.1       0.0
 6 C  dx2y2           0.0       0.0       0.0       0.0       0.2       0.1
 7 H  s               0.1       3.1       0.1       0.3       0.1       3.6
 8 H  s               1.2       6.9       2.7       5.8       0.3       7.4
 9 H  s               2.4       0.2       1.1      10.5       0.1       2.3
10 H  s               0.0       0.1       0.2       0.1       0.3       3.5
11 H  s               2.4       1.4       1.2      11.2       0.1       2.4
12 H  s               5.0       0.8       0.4       0.1       1.4       2.1
13 H  s              10.3       2.5       0.1       7.7       2.0       1.1
14 H  s               0.1       0.3       1.0       0.2       2.8       0.0
15 H  s               0.1       0.0       0.4       0.0       0.1       2.1
16 H  s               0.3      12.4       4.4       0.0       3.3       4.6
17 H  s               1.2       0.2      12.8       1.7       1.2       1.2
18 H  s               1.2       3.3       0.8       0.6       0.8       2.1
19 H  s               1.6       2.6       9.7       1.6       1.0       1.9
20 H  s               1.6       0.1       3.1       0.2       5.7       1.0
21 H  s               0.3       0.1       0.0       0.2      19.4       2.6

                     24        25        26        27        28        29   
                  -0.30089  -0.29428  -0.28648  -0.28201  -0.16801   0.03015
                   2.00000   2.00000   2.00000   2.00000   2.00000   0.00000
                  --------  --------  --------  --------  --------  --------
 0 C  s               0.0       0.0       0.8       0.0       0.6       2.9
 0 C  pz              0.2       0.0       6.3       0.4       0.3       0.3
 0 C  px              1.1       1.8       9.9       0.6       1.2       0.7
 0 C  py             10.4       6.2       3.0       2.6       0.3       0.2
 0 C  dz2             0.1       0.0       0.0       0.1       0.0       0.0
 0 C  dxz             0.1       0.0       0.0       0.1       0.0       0.1
 0 C  dyz             0.1       0.1       0.1       0.0       0.0       0.0
 0 C  dx2y2           0.1       0.1       0.0       0.0       0.0       0.0
 1 C  s               0.0       0.0       0.0       0.1       0.1       2.0
 1 C  pz              0.0       0.0       8.9       3.1       0.6       1.7
 1 C  px              0.0       2.0      11.3       0.8       0.4       0.1
 1 C  py              5.4       6.8       0.3       5.8       1.1       0.4
 1 C  dz2             0.0       0.0       0.2       0.1       0.0       0.0
 1 C  dxz             0.1       0.0       0.0       0.3       0.2       0.0
 1 C  dyz             0.0       0.1       0.6       0.1       0.2       0.0
 1 C  dx2y2           0.0       0.1       0.0       0.0       0.0       0.0
 1 C  dxy             0.0       0.0       0.2       0.0       1.0       0.0
 2 C  s               0.1       0.4       0.0       0.3       0.8       6.4
 2 C  pz              0.3       0.2       2.1       0.5       0.8       0.2
 2 C  px              3.3       1.7       3.6       0.2       1.0       0.3
 2 C  py              8.7       7.4       0.0       2.4       3.1       1.8
 2 C  dxz             0.2       0.0       0.0       0.1       0.1       0.0
 2 C  dyz             0.0       0.0       0.3       0.1       0.0       0.0
 2 C  dx2y2           0.0       0.0       0.0       0.0       0.0       0.1
 2 C  dxy             0.1       0.0       0.2       0.0       0.0       0.1
 3 N  s               0.3       0.0       0.1       0.1       4.6       2.6
 3 N  pz              1.2       0.2       1.0       2.7      13.2       1.6
 3 N  px              1.5       0.5       5.7       1.9       2.7       0.0
 3 N  py              3.1       0.0       0.0       0.8      51.3       0.4
 3 N  dxz             0.0       0.0       0.1       0.1       0.0       0.0
 3 N  dyz             0.0       0.0       0.1       0.0       0.0       0.0
 3 N  dx2y2           0.0       0.0       0.0       0.1       0.0       0.0
 3 N  dxy             0.0       0.1       0.1       0.0       0.0       0.0
 4 C  s               0.0       0.0       0.0       0.1       0.3       2.0
 4 C  pz              2.2       1.2       0.3      10.4       0.4       1.8
 4 C  px              1.8       0.1       7.5       4.7       0.0       0.1
 4 C  py              4.7      14.2       0.2       0.3       1.6       1.2
 4 C  dz2             0.0       0.0       0.0       0.0       0.2       0.0
 4 C  dxz             0.1       0.3       0.1       0.1       0.0       0.1
 4 C  dyz             0.2       0.1       0.1       0.4       0.7       0.0
 4 C  dx2y2           0.0       0.0       0.1       0.0       0.2       0.0
 4 C  dxy             0.0       0.1       0.0       0.3       0.4       0.0
 5 C  s               0.0       0.2       0.0       0.9       0.0       3.5
 5 C  pz              1.5       1.5       0.0       6.8       0.0       0.4
 5 C  px              1.4       0.0       3.6       6.0       0.1       0.3
 5 C  py              3.5      11.1       0.0       2.2       0.0       1.4
 5 C  dxz             0.1       0.1       0.0       0.0       0.0       0.2
 5 C  dyz             0.2       0.1       0.1       0.1       0.0       0.0
 5 C  dx2y2           0.0       0.1       0.1       0.0       0.0       0.0
 6 C  s               0.0       0.5       0.0       0.0       0.9       3.0
 6 C  pz              1.7       1.4       1.5       7.1       0.5       0.6
 6 C  px              0.1       0.3       1.3       2.7       0.6       0.1
 6 C  py              6.7      13.7       1.4       0.4       1.4       0.3
 6 C  dxz             0.1       0.1       0.0       0.0       0.0       0.0
 6 C  dyz             0.1       0.0       0.0       0.4       0.0       0.0
 6 C  dx2y2           0.0       0.0       0.1       0.0       0.0       0.1
 6 C  dxy             0.0       0.1       0.0       0.2       0.0       0.1
 7 H  s               7.6       5.8       0.1       0.6       0.3       1.9
 8 H  s               0.2       0.4       0.9       1.5       0.3       3.2
 9 H  s               2.0       1.8       3.1       1.8       0.0       2.4
10 H  s               1.6       2.2       9.2       4.6       0.2       4.6
11 H  s               0.2       0.9       3.3       1.8       0.1       5.0
12 H  s               6.1       0.5       4.6       0.2       0.0       5.9
13 H  s               2.7       0.1       0.4       0.5       0.9       5.8
14 H  s               0.1       0.1       1.8       2.7       0.8       8.8
15 H  s               5.4       1.7       0.3       6.6       5.0       6.5
16 H  s               0.0       0.0       1.9       0.5       0.1       3.2
17 H  s               4.4       1.4       0.1       1.6       0.3       1.0
18 H  s               2.3       7.2       0.9       0.4       0.1       6.2
19 H  s               5.0       0.9       0.0       4.1       0.4       0.9
20 H  s               0.0       3.4       0.1       6.6       0.0       3.2
21 H  s               1.1       0.1       1.3       0.0       0.4       3.7

                     30        31        32        33        34        35   
                   0.05597   0.05884   0.07304   0.09398   0.09627   0.10214
                   0.00000   0.00000   0.00000   0.00000   0.00000   0.00000
                  --------  --------  --------  --------  --------  --------
 0 C  s               2.0       3.8       3.9       0.1       0.1       4.6
 0 C  pz              1.6       0.1       0.3       3.5       1.7       1.5
 0 C  px              1.0       1.1       0.5       2.7       0.1       0.9
 0 C  py              0.5       0.4       0.9       0.1       0.3       0.3
 0 C  dxz             0.0       0.1       0.0       0.0       0.0       0.2
 0 C  dyz             0.0       0.0       0.1       0.0       0.0       0.1
 0 C  dx2y2           0.0       0.0       0.0       0.2       0.0       0.1
 0 C  dxy             0.0       0.0       0.0       0.2       0.0       0.1
 1 C  s               0.2       2.0       0.8       1.0       0.0       1.9
 1 C  pz              2.3       1.4       0.7       0.0       0.0       1.3
 1 C  px              0.1       0.4       0.1       0.6       0.2       0.7
 1 C  py              1.0       0.6       0.1       0.0       0.0       0.1
 1 C  dz2             0.0       0.2       0.0       0.2       0.0       0.0
 1 C  dxz             0.1       0.0       0.0       0.0       0.0       0.3
 1 C  dyz             0.2       0.1       0.0       0.0       0.0       0.2
 1 C  dx2y2           0.0       0.0       0.1       0.5       0.0       0.3
 2 C  s               1.0       2.9       3.9       0.2       0.5       1.9
 2 C  pz              2.1       0.9       0.5       1.8       1.5       0.1
 2 C  px              1.8       0.6       2.0       2.7       0.6       2.2
 2 C  py              0.8       0.1       1.8       1.2       0.4       0.3
 2 C  dxz             0.0       0.0       0.1       0.2       0.1       0.2
 2 C  dyz             0.2       0.0       0.0       0.0       0.0       0.1
 2 C  dx2y2           0.0       0.0       0.0       0.0       0.0       0.2
 3 N  s               0.9       0.7       0.4       0.6       1.1       2.9
 3 N  pz              1.6       1.2       0.2       1.7       0.0       0.0
 3 N  px              0.1       0.1       0.0       0.0       0.6       0.4
 3 N  py              2.3       0.2       0.0       0.1       0.0       2.8
 3 N  dxz             0.1       0.1       0.1       0.0       0.1       0.1
 3 N  dx2y2           0.0       0.0       0.0       0.1       0.0       0.0
 4 C  s               1.1       0.7       2.2       0.1       0.2       0.7
 4 C  pz              1.1       0.2       2.9       0.5       0.1       0.3
 4 C  px              0.2       0.0       0.5       0.4       0.6       0.7
 4 C  py              0.2       0.0       1.4       0.1       1.0       0.1
 4 C  dz2             0.1       0.0       0.0       0.1       0.2       0.0
 4 C  dxz             0.0       0.0       0.0       0.0       0.5       0.5
 4 C  dyz             0.0       0.0       0.1       0.0       0.1       0.1
 4 C  dx2y2           0.0       0.0       0.0       0.7       0.2       0.0
 4 C  dxy             0.1       0.0       0.1       0.1       0.0       0.0
 5 C  s               0.5       9.1       0.0       1.2       6.5       0.2
 5 C  pz              0.3       1.2       0.3       1.4       5.3       0.3
 5 C  px              0.6       1.8       0.5       4.0       2.8       1.1
 5 C  py              0.1       0.8       1.5       0.5       0.1       3.2
 5 C  dz2             0.0       0.0       0.1       0.0       0.0       0.1
 5 C  dxz             0.0       0.1       0.0       0.0       0.4       0.1
 5 C  dyz             0.0       0.1       0.0       0.1       0.0       0.2
 5 C  dx2y2           0.0       0.0       0.0       0.3       0.2       0.0
 5 C  dxy             0.0       0.0       0.0       0.2       0.1       0.0
 6 C  s               4.7       0.8       4.4       1.8       1.6       0.1
 6 C  pz              1.4       0.2       0.1       0.0       2.6       2.0
 6 C  px              0.0       2.1       0.1       3.5       2.6       2.6
 6 C  py              1.8       0.0       1.3       0.9       0.9       0.7
 6 C  dz2             0.0       0.0       0.1       0.0       0.0       0.1
 6 C  dxz             0.0       0.0       0.0       0.1       0.2       0.0
 6 C  dyz             0.0       0.0       0.1       0.1       0.0       0.2
 6 C  dx2y2           0.0       0.0       0.0       0.0       0.1       0.0
 7 H  s               0.0       1.8       5.2       3.4       0.1      10.2
 8 H  s               0.9       8.0       3.6      12.4       1.5       0.7
 9 H  s              10.4       1.0       2.5       1.0       3.6       5.7
10 H  s               9.0       8.7       3.0       1.3       0.2       4.6
11 H  s              10.9       0.3       1.3       1.4       0.7       1.5
12 H  s               0.5       1.5      15.1       1.3       0.1       5.8
13 H  s               0.5       6.5       0.0      12.6       6.2       1.1
14 H  s              13.9       5.7       0.9       1.1       1.4       9.5
15 H  s               4.6       0.1      16.2       0.1       1.2       2.1
16 H  s               2.3       9.5       0.1      14.6       3.0       0.4
17 H  s               0.1       8.3       3.6       0.2      16.7       6.3
18 H  s               0.3       7.3       2.1       3.2      13.1       4.3
19 H  s               1.7       1.9       9.0       1.4       1.0       6.5
20 H  s               9.0       0.8       3.1       9.5       0.5       3.7
21 H  s               3.2       3.9       1.8       2.2      16.8       0.1

                     36        37        38        39        40        41   
                   0.10712   0.12168   0.13047   0.13318   0.14649   0.15146
                   0.00000   0.00000   0.00000   0.00000   0.00000   0.00000
                  --------  --------  --------  --------  --------  --------
 0 C  s               9.4       0.0       0.1       0.6       0.1       0.1
 0 C  pz              0.1       1.0       0.5       0.0       5.7       3.6
 0 C  px              0.4       0.7       0.8       5.9       2.7       0.3
 0 C  py              0.8       4.5       2.6       4.5       1.3       0.1
 0 C  dz2             0.0       0.1       0.0       0.3       0.1       0.0
 0 C  dxz             0.1       0.1       0.0       0.1       0.6       0.0
 0 C  dyz             0.0       0.2       0.4       0.1       0.0       0.1
 0 C  dx2y2           0.0       0.0       0.0       0.2       0.1       0.0
 0 C  dxy             0.0       0.1       0.0       0.1       0.2       0.2
 1 C  s               0.0       0.1       1.6       0.5       0.1       0.1
 1 C  pz              0.2       0.3       2.2       0.2       0.2       0.0
 1 C  px              0.2       0.7       0.5       0.2       0.1       2.4
 1 C  py              1.3       0.1       0.0       1.4       0.6       0.0
 1 C  dz2             0.1       0.1       0.0       0.1       0.8       0.3
 1 C  dxz             0.2       0.6       0.0       0.1       0.0       0.2
 1 C  dyz             0.2       0.0       0.0       0.0       0.3       0.0
 1 C  dx2y2           0.0       0.1       0.1       0.5       0.1       0.1
 1 C  dxy             0.5       0.2       0.1       0.0       0.0       0.0
 2 C  s               6.0       0.1       1.6       2.2       0.1       0.0
 2 C  pz              1.3       5.6       0.1       1.0       6.8       0.6
 2 C  px              2.6       1.0       1.3       0.3       2.8       1.7
 2 C  py              0.3       0.3       1.4       0.2       0.8       0.6
 2 C  dz2             0.0       0.2       0.1       0.0       0.0       0.0
 2 C  dxz             0.0       0.0       0.0       0.0       0.5       0.2
 2 C  dyz             0.1       0.2       0.0       0.0       0.0       0.0
 2 C  dx2y2           0.0       0.1       0.3       0.1       0.1       0.3
 2 C  dxy             0.3       0.2       0.1       0.0       0.2       0.0
 3 N  s               0.0       3.8       1.5       0.1       0.3       0.1
 3 N  pz              0.2       0.8       0.7       0.0       0.5       0.2
 3 N  px              0.1       0.2       0.0       0.5       0.2       1.2
 3 N  py              0.0       0.5       0.2       0.9       0.1       0.3
 3 N  dz2             0.1       0.2       0.0       0.0       0.0       0.0
 3 N  dxz             0.0       0.0       0.0       0.0       0.0       0.4
 3 N  dyz             0.0       0.2       0.0       0.0       0.0       0.0
 3 N  dx2y2           0.0       0.1       0.0       0.0       0.1       0.0
 3 N  dxy             0.1       0.0       0.0       0.0       0.1       0.0
 4 C  s               0.0       1.6       1.9       0.6       0.0       0.7
 4 C  pz              0.6       0.4       1.2       0.4       0.2       0.2
 4 C  px              0.0       1.5       0.9       0.9       0.9       0.4
 4 C  py              0.4       0.5       0.0       2.1       0.6       0.1
 4 C  dz2             0.0       0.0       0.1       0.1       0.3       0.8
 4 C  dxz             0.0       0.4       0.0       0.0       0.1       0.1
 4 C  dyz             0.1       0.4       0.2       0.2       0.1       0.0
 4 C  dx2y2           0.0       0.0       0.3       0.2       0.0       0.2
 4 C  dxy             0.4       0.2       0.0       0.1       0.0       0.1
 5 C  s               2.5       4.7       0.0       0.7       0.0       0.0
 5 C  pz              0.7       1.5       1.5       0.4       0.3       5.3
 5 C  px              0.3       1.9       2.2       3.2       0.4       1.4
 5 C  py              2.2       0.5       6.1       0.4       1.2       1.3
 5 C  dz2             0.0       0.0       0.0       0.1       0.2       0.1
 5 C  dxz             0.0       0.3       0.0       0.0       0.2       0.4
 5 C  dyz             0.1       0.3       0.8       0.0       0.0       0.1
 5 C  dx2y2           0.0       0.0       0.0       0.4       0.0       0.1
 5 C  dxy             0.0       0.1       0.0       0.0       0.0       0.1
 6 C  s               3.7       0.0       3.2       3.5       0.0       0.0
 6 C  pz              1.5       1.7       0.0       1.2       3.4       4.4
 6 C  px              0.5       1.0       1.4       0.8       0.4       3.8
 6 C  py              0.6       0.0       1.6       0.2       0.8       2.8
 6 C  dz2             0.0       0.0       0.1       0.1       0.1       0.1
 6 C  dxz             0.0       0.1       0.0       0.0       0.1       0.5
 6 C  dyz             0.1       0.2       0.1       0.0       0.0       0.0
 6 C  dx2y2           0.0       0.1       0.3       0.1       0.0       0.2
 6 C  dxy             0.1       0.0       0.0       0.0       0.2       0.0
 7 H  s              10.0       7.4       6.5      11.4       0.1       0.9
 8 H  s               4.0       0.3       0.2       6.7      17.4       4.5
 9 H  s               3.9       8.3       3.4       8.9       6.6       2.3
10 H  s               0.1       1.8       5.0       3.5       0.0       0.9
11 H  s              13.0      12.3       1.4       5.2       6.6       0.7
12 H  s               0.6       3.5       0.2       0.5       0.0       1.8
13 H  s               6.6       0.9       4.5       0.3      18.1       4.6
14 H  s               0.0      10.4       2.6       0.5       0.1       0.1
15 H  s               0.3       0.5       3.7       6.5       0.1       1.4
16 H  s               2.8       6.3       0.3       8.7       2.1      10.1
17 H  s               0.9       0.3      12.5       0.9       1.9       9.0
18 H  s               6.6       1.4      11.9       2.2       0.3       0.1
19 H  s              11.3       2.8       0.9       6.7       5.9       7.6
20 H  s               0.2       4.1       0.0       0.1       0.3       0.7
21 H  s               1.1       0.3       8.3       1.9       4.7      18.5

                     42        43        44        45        46        47   
                   0.16413   0.17011   0.18335   0.19709   0.20406   0.20742
                   0.00000   0.00000   0.00000   0.00000   0.00000   0.00000
                  --------  --------  --------  --------  --------  --------
 0 C  s               0.1       0.1       0.2       0.2       1.0       0.8
 0 C  pz              0.6       1.3       0.9       0.9       5.3       2.3
 0 C  px              0.9       0.3       0.6       3.2       5.3       1.4
 0 C  py              8.5       0.0       1.5       1.1       4.2       3.7
 0 C  dz2             0.0       0.0       0.0       0.5       0.0       0.1
 0 C  dxz             0.3       0.0       0.0       0.4       1.1       0.5
 0 C  dyz             0.1       0.2       0.0       0.0       0.7       0.7
 0 C  dx2y2           0.1       0.0       0.3       0.3       0.0       0.0
 0 C  dxy             0.7       0.3       0.6       0.8       0.8       1.2
 1 C  s               0.3       9.6       3.0       3.2       0.0       6.5
 1 C  pz              1.0       0.9       2.7       5.1       2.6       0.2
 1 C  px              5.2       0.5       1.0       2.5       8.6       7.7
 1 C  py              0.2       0.2       9.3       1.0       6.8       0.1
[...]
 1 C  dxy             0.0       3.5       1.3       5.2       4.8      18.7
 2 C  s               0.2       0.1       0.7       0.1       0.1       0.5
 2 C  pz              0.0       0.0       0.2       0.0       0.1       0.1
 2 C  px              0.2       0.0       0.3       0.0       0.0       0.1
 2 C  py              0.5       0.1       0.9       0.3       0.1       1.0
 2 C  dz2             2.1       0.0       0.9       1.0       0.0       0.8
 2 C  dxz             0.0       0.4       4.0       0.7       0.0       0.1
 2 C  dyz             1.8       2.3       0.8       0.3       0.3       0.5
 2 C  dx2y2           2.0       0.6       0.0       3.6       0.8       3.0
 2 C  dxy             2.4       0.8       8.9       0.2       0.0       2.1
 3 N  s               0.0       0.2       1.3       0.1       0.8       0.3
 3 N  pz              0.0       0.6       0.1       1.2       0.1       2.5
 3 N  px              0.3       0.0       0.0       0.0       0.0       0.0
 3 N  py              0.0       0.0       0.2       0.2       0.0       0.1
 3 N  dz2             0.3      10.5       3.1       9.0       0.3       7.1
 3 N  dxz             2.9       0.1       1.0       0.3       3.5       0.4
 3 N  dyz             2.8       0.8      22.0       0.2      21.6      12.1
 3 N  dx2y2           0.0       0.4       0.3       2.2       4.5       8.5
 3 N  dxy             0.1       0.6       3.0      27.8       4.2       3.1
 4 C  s               2.2       0.1       0.2       0.2       0.0       0.1
 4 C  pz              0.5       0.8       0.2       0.3       0.7       0.2
 4 C  px              1.1       0.3       0.1       0.1       0.0       0.2
 4 C  py              0.1       0.7       0.7       1.1       0.5       0.2
 4 C  dz2             0.7       9.0       1.3       0.0       0.2       0.6
 4 C  dxz             0.5       1.6       2.9       2.3       3.5       2.9
 4 C  dyz            19.3       4.4       0.6       4.8       1.0       1.2
 4 C  dx2y2           0.0       1.3       1.0      11.0       0.1       3.4
 4 C  dxy             0.0       1.6       0.3       0.6      24.1       5.3
 5 C  s               0.6       0.5       0.3       0.4       0.3       0.2
 5 C  pz              0.5       0.3       0.1       0.4       0.3       0.1
 5 C  px              0.5       0.5       0.2       0.2       0.2       0.1
 5 C  py              0.2       0.3       0.2       0.2       0.4       0.2
 5 C  dz2             0.0       1.0       0.0       0.0       0.9       0.4
 5 C  dxz             5.0       2.9       0.2       0.9       3.2       0.5
 5 C  dyz             3.3       0.4       1.0       3.6       0.5       1.1
 5 C  dx2y2           0.8       3.3       0.1       0.0       0.0       0.5
 5 C  dxy             2.3       5.9       1.0       1.2       1.3       0.3
 6 C  s               0.1       0.1       0.3       0.3       0.5       0.2
 6 C  pz              0.1       0.0       0.1       0.1       0.3       0.1
 6 C  px              0.3       0.0       0.1       0.1       0.2       0.1
 6 C  py              0.4       0.1       0.4       0.1       0.9       0.4
 6 C  dz2             1.5       0.0       0.5       0.0       0.7       0.4
 6 C  dxz             0.0       0.2       0.5       2.5       0.0       0.4
 6 C  dyz             1.9       3.0       0.3       0.3       2.3       0.2
 6 C  dx2y2           1.6       0.4       0.2       0.5       5.9       0.6
 6 C  dxy             3.6       0.6       2.8       1.1       1.5       1.9
 7 H  s               0.0       0.5       0.0       0.0       0.1       0.0
 8 H  s               0.1       0.0       0.0       0.0       0.0       0.1
 9 H  s               0.1       0.1       0.3       0.1       0.0       0.0
10 H  s               1.2       0.1       0.0       0.3       0.1       0.0
11 H  s               0.1       0.2       0.1       0.0       0.0       0.0
12 H  s               0.0       0.0       0.5       0.0       0.0       0.1
13 H  s               0.3       0.0       0.1       0.2       0.0       0.1
14 H  s               0.1       0.0       2.5       0.2       1.6       1.4
15 H  s               1.3       0.0       0.1       0.3       0.0       0.0
17 H  s               0.2       0.1       0.0       0.2       0.0       0.0
18 H  s               0.1       0.4       0.0       0.0       0.2       0.0
19 H  s               0.1       0.2       0.0       0.0       0.0       0.0
20 H  s               0.0       0.0       0.1       0.1       0.0       0.1
21 H  s               0.3       0.0       0.0       0.1       0.2       0.0

                    126       127   
                   2.89342   3.01864
                   0.00000   0.00000
                  --------  --------
 0 C  s               0.1       0.2
 0 C  px              0.1       0.1
 0 C  dz2             0.0       0.3
 0 C  dxz             0.6       0.0
 0 C  dyz             0.6       0.0
 0 C  dx2y2           0.1       0.3
 0 C  dxy             0.0       0.6
 1 C  s               0.4       1.1
 1 C  pz              0.5       0.4
 1 C  px              1.2       2.1
 1 C  py              0.1       0.2
 1 C  dz2             2.8       0.9
 1 C  dxz             9.0       5.3
 1 C  dyz             0.0       1.1
 1 C  dx2y2           1.1       3.8
 1 C  dxy             0.1       0.2
 2 C  dyz             0.3       0.0
 2 C  dx2y2           0.2       0.0
 2 C  dxy             0.0       0.2
 3 N  s               3.2       0.0
 3 N  pz              1.0       0.0
 3 N  px              0.0       7.0
 3 N  py              0.4       0.2
 3 N  dz2             9.9       0.3
 3 N  dxz             1.2      52.7
 3 N  dyz             0.9       2.7
 3 N  dx2y2          34.8       0.0
 3 N  dxy            12.8       1.6
 4 C  s               0.2       1.2
 4 C  pz              0.4       0.3
 4 C  px              0.9       2.4
 4 C  py              0.1       0.2
 4 C  dz2             2.2       1.5
 4 C  dxz             7.3       4.9
 4 C  dyz             1.9       0.9
 4 C  dx2y2           0.7       3.9
 4 C  dxy             0.1       1.2
 5 C  s               0.1       0.1
 5 C  px              0.1       0.1
 5 C  dz2             0.2       0.3
 5 C  dxz             0.7       0.1
 5 C  dyz             0.4       0.0
 5 C  dx2y2           0.0       0.2
 5 C  dxy             0.0       0.4
 6 C  dxz             0.1       0.0
 6 C  dyz             0.2       0.0
 6 C  dx2y2           0.1       0.0
 6 C  dxy             0.1       0.2
14 H  s               1.7       0.0


                      *****************************
                      * MAYER POPULATION ANALYSIS *
                      *****************************

  NA   - Mulliken gross atomic population
  ZA   - Total nuclear charge
  QA   - Mulliken gross atomic charge
  VA   - Mayer's total valence
  BVA  - Mayer's bonded valence
  FA   - Mayer's free valence

  ATOM       NA         ZA         QA         VA         BVA        FA
  0 C      6.2128     6.0000    -0.2128     3.9463     3.9463    -0.0000
  1 C      6.1100     6.0000    -0.1100     4.2595     4.2595     0.0000
  2 C      6.2515     6.0000    -0.2515     3.9338     3.9338    -0.0000
  3 N      7.3265     7.0000    -0.3265     3.0184     3.0184    -0.0000
  4 C      6.0781     6.0000    -0.0781     4.2521     4.2521     0.0000
  5 C      6.2693     6.0000    -0.2693     3.9688     3.9688     0.0000
  6 C      6.2216     6.0000    -0.2216     3.9214     3.9214    -0.0000
  7 H      0.8982     1.0000     0.1018     0.9724     0.9724    -0.0000
  8 H      0.9090     1.0000     0.0910     0.9573     0.9573    -0.0000
  9 H      0.9158     1.0000     0.0842     0.9689     0.9689    -0.0000
 10 H      0.9240     1.0000     0.0760     0.9520     0.9520    -0.0000
 11 H      0.9135     1.0000     0.0865     0.9705     0.9705     0.0000
 12 H      0.8951     1.0000     0.1049     0.9633     0.9633    -0.0000
 13 H      0.9038     1.0000     0.0962     0.9589     0.9589     0.0000
 14 H      0.8092     1.0000     0.1908     0.9322     0.9322    -0.0000
 15 H      0.9429     1.0000     0.0571     0.9461     0.9461     0.0000
 16 H      0.8975     1.0000     0.1025     0.9606     0.9606    -0.0000
 17 H      0.8971     1.0000     0.1029     0.9673     0.9673     0.0000
 18 H      0.9017     1.0000     0.0983     0.9562     0.9562    -0.0000
 19 H      0.9072     1.0000     0.0928     0.9796     0.9796    -0.0000
 20 H      0.9021     1.0000     0.0979     0.9666     0.9666    -0.0000
 21 H      0.9131     1.0000     0.0869     0.9610     0.9610    -0.0000

  Mayer bond orders larger than 0.100000
B(  0-C ,  1-C ) :   1.1151 B(  0-C ,  7-H ) :   0.9483 B(  0-C ,  8-H ) :   0.9486 
B(  0-C ,  9-H ) :   0.9466 B(  1-C ,  2-C ) :   1.1059 B(  1-C ,  3-N ) :   1.0400 
B(  1-C , 10-H ) :   0.8959 B(  2-C , 11-H ) :   0.9425 B(  2-C , 12-H ) :   0.9429 
B(  2-C , 13-H ) :   0.9434 B(  3-N ,  4-C ) :   1.0412 B(  3-N , 14-H ) :   0.8740 
B(  4-C ,  5-C ) :   1.1163 B(  4-C ,  6-C ) :   1.1130 B(  4-C , 15-H ) :   0.8843 
B(  5-C , 16-H ) :   0.9503 B(  5-C , 17-H ) :   0.9435 B(  5-C , 18-H ) :   0.9458 
B(  6-C , 19-H ) :   0.9435 B(  6-C , 20-H ) :   0.9429 B(  6-C , 21-H ) :   0.9443 


-------
TIMINGS
-------

Total SCF time: 0 days 0 hours 0 min 7 sec 

Total time                  ....       7.277 sec
Sum of individual times     ....       6.747 sec  ( 92.7%)

SCF preparation             ....       0.206 sec  (  2.8%)
Fock matrix formation       ....       5.743 sec  ( 78.9%)
  Startup                   ....       0.054 sec  (  0.9% of F)
  Split-RI-J                ....       1.894 sec  ( 33.0% of F)
  XC integration            ....       3.361 sec  ( 58.5% of F)
    XC Preparation          ....       0.000 sec  (  0.0% of XC)
    Basis function eval.    ....       0.983 sec  ( 29.2% of XC)
    Density eval.           ....       0.335 sec  ( 10.0% of XC)
    XC-Functional eval.     ....       0.239 sec  (  7.1% of XC)
    XC-Potential eval.      ....       0.564 sec  ( 16.8% of XC)
Diagonalization             ....       0.000 sec  (  0.0%)
Density matrix formation    ....       0.168 sec  (  2.3%)
Total Energy calculation    ....       0.034 sec  (  0.5%)
Population analysis         ....       0.077 sec  (  1.1%)
Orbital Transformation      ....       0.052 sec  (  0.7%)
Orbital Orthonormalization  ....       0.000 sec  (  0.0%)
DIIS solution               ....       0.391 sec  (  5.4%)
  MO trafo                  ....       0.000 sec  (  0.0 % of DIIS)
  Orb grad                  ....       0.000 sec  (  0.0 % of DIIS)
  Energy W gradient         ....       0.000 sec  (  0.0 % of DIIS)
  DIIS error                ....       0.007 sec  (  1.7 % of DIIS)
  DIIS work                 ....       0.338 sec  ( 86.5 % of DIIS)
  Form Q                    ....       0.000 sec  (  0.0 % of DIIS)
  Form QpQm                 ....       0.000 sec  (  0.0 % of DIIS)
  Exp/Cayley                ....       0.000 sec  (  0.0 % of DIIS)
  Orb update                ....       0.000 sec  (  0.0 % of DIIS)
  Wake-sleep                ....       0.018 sec  (  4.6 % of DIIS)
SOSCF solution              ....       0.075 sec  (  1.0%)
  MO trafo                  ....       0.040 sec  ( 54.0 % of SOSCF)
  Orb grad                  ....       0.001 sec  (  2.0 % of SOSCF)
  Rot update                ....       0.014 sec  ( 19.0 % of SOSCF)
  Step                      ....       0.018 sec  ( 24.2 % of SOSCF)
Finished LeanSCF after   7.4 sec

Maximum memory used throughout the entire LEANSCF-calculation: 12.8 MB


-------------------------------------------------------------------------------
                          DFT DISPERSION CORRECTION                            
                                                                               
                                DFTD4 V3.4.0                                   
-------------------------------------------------------------------------------
The PBE functional is recognized
Active option DFTDOPT                   ...         5   

-------------------------   ----------------
Dispersion correction           -0.017278247
-------------------------   ----------------

------------------   -----------------
gCP correction             0.096740509
------------------   -----------------

-------------------------   --------------------
FINAL SINGLE POINT ENERGY      -291.674339468375
-------------------------   --------------------


------------------------------------------------------------------------------
                              ORCA PROPERTY CALCULATIONS
------------------------------------------------------------------------------

GBWName                                 ... sp.gbw
Number of atoms                         ...     22
Number of basis functions               ...    128
Max core memory                         ...   1024 MB

Electric properties:
Dipole moment                           ... YES
Quadrupole moment                       ...  NO
Static polarizability (Dipole/Dipole)   ...  NO
Static polarizability (Dipole/Quad.)    ...  NO
Static polarizability (Quad./Quad.)     ...  NO
Static polarizability (Velocity)        ...  NO

Atomic electric properties:
Dipole moment                           ...  NO
Quadrupole moment                       ...  NO
Static polarizability                   ...  NO

Choice of electric origin               ... Center of mass
Position of electric origin             ...     0.000000    -0.000001    -0.000002

General magnetic properties:
Magnetizability                         ...  NO

EPR properties:
g-Tensor (aka g-matrix)                 ...  NO
Zero-Field splitting spin-orbit         ...  NO
Zero-field splitting spin-spin          ...  NO
Hyperfine couplings                     ...  NO (   0 nuclei)
Quadrupole couplings                    ...  NO (   0 nuclei)
Contact density                         ...  NO (   0 nuclei)

NMR properties:
Chemical shifts                         ...  NO (   0 nuclei)
Spin-rotation constants                 ...  NO (   0 nuclei)
Spin-spin couplings                     ...  NO (   0 nuclei,    0 pairs)

Choice of magnetic origin               ... GIAO
Position of magnetic origin             ...     0.000000     0.000000     0.000000

Properties with geometric perturbations:
SCF Hessian                             ...  NO
IR spectrum                             ...  NO
VCD spectrum                            ...  NO
X-ray spectroscopy properties:
SCF XES/XAS/RIXS spectra                ...  NO


-------------
DIPOLE MOMENT
-------------

Method             : SCF
Type of density    : Electron Density
Multiplicity       :   1
Irrep              :   0
Energy             :  -291.7538017308852432 Eh
Relativity type    : 
Basis              : AO
                                X                 Y                 Z
Electronic contribution:     -0.063719183       0.334150961      -0.551555574
Nuclear contribution   :      0.132883415      -0.669926452       0.637106772
                        -----------------------------------------
Total Dipole Moment    :      0.069164232      -0.335775491       0.085551198
                        -----------------------------------------
Magnitude (a.u.)       :      0.353338193
Magnitude (Debye)      :      0.898114313



--------------------
Rotational spectrum 
--------------------
 
Rotational constants in cm-1:             0.137131             0.048694             0.044345 
Rotational constants in MHz :          4111.074508          1459.809527          1329.424404 

Dipole components along the rotational axes: 
x,y,z [a.u.] :    -0.034329     0.334680    -0.107975 
x,y,z [Debye]:    -0.087257     0.850689    -0.274452 

 

Dipole moment calculation done in   0.0 sec 

Maximum memory used throughout the entire PROP-calculation: 7.9 MB

--------------------------------
SUGGESTED CITATIONS FOR THIS RUN
--------------------------------

Below you find a list of papers that are relevant to this ORCA run
We neither can nor want to force you to cite these papers, but we appreciate if you do
You receive ORCA, which is the product of decades of hard work by many enthusiastic individuals, for free
The only thing we kindly ask in return is that you cite our papers,
We deeply appreciate it, if you show your appreciation for ORCA by not just citing the generic ORCA reference.

Please note that relegating all ORCA citations to the supporting information does *not* help us.
SI sections are not indexed - citations you put there will not count into any citation statistics
But we need these citations in order to attract the funding resources that allow us to do what we are doing

Therefore, if you are a happy ORCA user, please consider citing a few of the papers listed below in the main body of your paper

In addition to the list printed below, the program has created the file sp.bibtex that contains the list in bibtex format
You can import this file easily into all common literature databanks and citation aid programs


List of essential papers. We consider these as the minimum necessary citations

  1. Neese,F.
     Software update: the ORCA program system, version 5.0
     WIRES Comput. Molec. Sci., 2022 12(1)e1606
     doi.org/10.1002/wcms.1606

List of papers to cite with high priority. The work reported in these papers was absolutely
necessary for this run to complete.
Our perspective: the developers of density functionals and basis sets usually get cited in chemistry papers
Good! But without the algorithms to do something with them, the functionals or basis sets would not do anything.
Hence, in our opinion, the algorithm design and method developments papers are equally worthy of getting cited

  1. Neese,F.
     An improvement of the resolution of the identity approximation for the formation of the Coulomb matrix
     J. Comp. Chem., 2003 24(14)1740-1747
     doi.org/10.1002/jcc.10318
  2. Neese,F.
     The SHARK Integral Generation and Digestion System
     J. Comp. Chem., 2022  1-16
     doi.org/10.1002/jcc.26942
  3. Caldeweyher,E.; Bannwarth,C.; Grimme,S.
     Extension of the D3 dispersion coefficient model
     J. Chem. Phys., 2017 147 034112-XXXX
     doi.org/10.1063/1.4993215
  4. Caldeweyher,E.; Ehlert,S.; Hansen,A.; Neugebauer,H.; Spicher,S.; Bannwarth,C.; Grimme,S.
     A generally applicable atomic-charge dependent London dispersion correction
     J. Chem. Phys., 2019 150 154122-XXXX
     doi.org/10.1063/1.5090222
  5. Caldeweyher,E.; Mewes,J.; Ehlert,S.; Grimme,S.
     Extension and evaluation of the D4 London-dispersion model for periodic systems
     Phys. Chem. Chem. Phys., 2020 22(16)8499-8512
     doi.org/10.1039/D0CP00502A

List of suggested additional citations. These are papers that are important in the 'surrounding' of 
of this run, or papers that preceded the highly important papers. If you like your results we are grateful for a citation.

  1. Neese,F.
     The ORCA program system
     WIRES Comput. Molec. Sci., 2012 2(1)73-78
     doi.org/10.1002/wcms.81
  2. Neese,F.
     Software update: the ORCA program system, version 4.0
     WIRES Comput. Molec. Sci., 2018 8(1)1-6
     doi.org/10.1002/wcms.1327
  3. Neese,F.; Wennmohs,F.; Becker,U.; Riplinger,C.
     The ORCA quantum chemistry program package
     J. Chem. Phys., 2020 152 Art. No. L224108
     doi.org/10.1063/5.0004608

List of optional additional citations

  1. Neese,F.
     Approximate second-order SCF convergence for spin unrestricted wavefunctions
     Chem. Phys. Lett., 2000 325(1-3)93-98
     doi.org/10.1016/s0009-2614(00)00662-x

Timings for individual modules:

Sum of individual times          ...        9.299 sec (=   0.155 min)
Startup calculation              ...        0.882 sec (=   0.015 min)   9.5 %
SCF iterations                   ...        8.300 sec (=   0.138 min)  89.3 %
Property calculations            ...        0.116 sec (=   0.002 min)   1.2 %
                             ****ORCA TERMINATED NORMALLY****
TOTAL RUN TIME: 0 days 0 hours 0 minutes 10 seconds 262 msec
