
                                 *****************
                                 * O   R   C   A *
                                 *****************

                                            #,                                       
                                            ###                                      
                                            ####                                     
                                            #####                                    
                                            ######                                   
                                           ########,                                 
                                     ,,################,,,,,                         
                               ,,#################################,,                 
                          ,,##########################################,,             
                       ,#########################################, ''#####,          
                    ,#############################################,,   '####,        
                  ,##################################################,,,,####,       
                ,###########''''           ''''###############################       
              ,#####''   ,,,,##########,,,,          '''####'''          '####       
            ,##' ,,,,###########################,,,                        '##       
           ' ,,###''''                  '''############,,,                           
         ,,##''                                '''############,,,,        ,,,,,,###''
      ,#''                                            '''#######################'''  
     '                                                          ''''####''''         
             ,#######,   #######,   ,#######,      ##                                
            ,#'     '#,  ##    ##  ,#'     '#,    #''#        ,####,   ,####,        
            ##       ##  ##   ,#'  ##            #'  '#       #'       #'  '#        
            ##       ##  #######   ##           ,######,      #####,   #    #        
            '#,     ,#'  ##    ##  '#,     ,#' ,#      #,     #,   #   #,  ,#        
             '#######'   ##     ##  '#######'  #'      '#     '####' # '####'        



                #########################################################
                #                        -***-                          #
                #          Department of theory and spectroscopy        #
                #                                                       #
                #                      Frank Neese                      #
                #                                                       #
                #     Directorship, Architecture, Infrastructure        #
                #                    SHARK, DRIVERS                     #
                #        Core code/Algorithms in most modules           #
                #                                                       #
                #        Max Planck Institute fuer Kohlenforschung      #
                #                Kaiser Wilhelm Platz 1                 #
                #                 D-45470 Muelheim/Ruhr                 #
                #                      Germany                          #
                #                                                       #
                #                  All rights reserved                  #
                #                        -***-                          #
                #########################################################


                         Program Version 6.0.0  -   RELEASE  -


 With contributions from (in alphabetic order):
   Daniel Aravena         : Magnetic Suceptibility
   Michael Atanasov       : Ab Initio Ligand Field Theory (pilot matlab implementation)
   Alexander A. Auer      : GIAO ZORA, VPT2 properties, NMR spectrum
   Ute Becker             : All parallelization in ORCA, NUMFREQ, NUMCALC
   Giovanni Bistoni       : ED, misc. LED, open-shell LED, HFLD
   Martin Brehm           : Molecular dynamics
   Dmytro Bykov           : pre 5.0 version of the SCF Hessian
   Marcos Casanova-Páez   : Triplet and SCS-CIS(D). UHF-(DLPNO)-IP/EA/STEOM-CCSD. UHF-CVS-IP/STEOM-CCSD
   Vijay G. Chilkuri      : MRCI spin determinant printing, contributions to CSF-ICE
   Pauline Colinet        : FMM embedding
   Dipayan Datta          : RHF DLPNO-CCSD density
   Achintya Kumar Dutta   : EOM-CC, STEOM-CC
   Nicolas Foglia         : Exact transition moments, OPA infrastructure, MCD improvements
   Dmitry Ganyushin       : Spin-Orbit,Spin-Spin,Magnetic field MRCI
   Miquel Garcia          : C-PCM and meta-GGA Hessian, CCSD/C-PCM, Gaussian charge scheme
   Tiago L. C. Gouveia    : GS-ROHF, GS-ROCIS
   Yang Guo               : DLPNO-NEVPT2, F12-NEVPT2, CIM, IAO-localization
   Andreas Hansen         : Spin unrestricted coupled pair/coupled cluster methods
   Ingolf Harden          : AUTO-CI MPn and infrastructure 
   Benjamin Helmich-Paris : MC-RPA, TRAH-(SCF,CASSCF), AVAS, COSX integrals, SCF dyn. polar.
   Lee Huntington         : MR-EOM, pCC
   Robert Izsak           : Overlap fitted RIJCOSX, COSX-SCS-MP3, EOM
   Riya Kayal             : Wick's Theorem for AUTO-CI, AUTO-CI UHF-CCSDT
   Emily Kempfer          : AUTO-CI, RHF CISDT and CCSDT
   Christian Kollmar      : KDIIS, OOCD, Brueckner-CCSD(T), CCSD density, CASPT2, CASPT2-K, improved NEVPT2
   Axel Koslowski         : Symmetry handling
   Simone Kossmann        : Meta GGA functionals, TD-DFT gradient, OOMP2, (MP2 Hessian; deprecated post 5.0)
   Lucas Lang             : DCDCAS
   Marvin Lechner         : AUTO-CI (C++ implementation), FIC-MRCC
   Spencer Leger          : CASSCF response
   Dagmar Lenk            : GEPOL surface, SMD, ORCA-2-JSON
   Dimitrios Liakos       : Extrapolation schemes; Compound Job, initial MDCI parallelization
   Dimitrios Manganas     : Further ROCIS development; embedding schemes. LFT, Crystal Embedding
   Dimitrios Pantazis     : SARC Basis sets
   Anastasios Papadopoulos: AUTO-CI, single reference methods and gradients
   Taras Petrenko         : pre 6.0 DFT Hessian and TD-DFT gradient, (ASA, deprecated), ECA, 1-Electron XAS/XES, NRVS
   Peter Pinski           : DLPNO-MP2, DLPNO-MP2 Gradient
   Christoph Reimann      : Effective Core Potentials
   Marius Retegan         : Local ZFS, SOC
   Christoph Riplinger    : Optimizer, TS searches, QM/MM, DLPNO-CCSD(T), (RO)-DLPNO pert. Triples
   Michael Roemelt        : Original ROCIS implementation
   Masaaki Saitow         : Open-shell DLPNO-CCSD energy and density
   Barbara Sandhoefer     : DKH picture change effects
   Kantharuban Sivalingam : CASSCF convergence/infrastructure, NEVPT2 and variants, FIC-MRCI
   Bernardo de Souza      : ESD, SOC TD-DFT
   Georgi Stoychev        : AutoAux, RI-MP2 NMR, DLPNO-MP2 response, X2C
   Van Anh Tran           : RI-MP2 g-tensors
   Willem Van den Heuvel  : Paramagnetic NMR
   Zikuan Wang            : NOTCH, Electric field optimization 
   Frank Wennmohs         : Technical directorship and infrastructure
   Hang Xu                : AUTO-CI-Response properties 


 We gratefully acknowledge several colleagues who have allowed us to
 interface, adapt or use parts of their codes:
   Stefan Grimme, W. Hujo, H. Kruse, P. Pracht,  : VdW corrections, initial TS optimization,
                  C. Bannwarth, S. Ehlert,         DFT functionals, gCP, sTDA/sTD-DF
                  L. Wittmann, M. Mueller
   Ed Valeev, F. Pavosevic, A. Kumar             : LibInt (2-el integral package), F12 methods
   Garnet Chan, S. Sharma, J. Yang, R. Olivares  : DMRG
   Ulf Ekstrom                                   : XCFun DFT Library
   Mihaly Kallay                                 : mrcc  (arbitrary order and MRCC methods)
   Frank Weinhold                                : gennbo (NPA and NBO analysis)
   Simon Mueller                                 : openCOSMO-RS
   Christopher J. Cramer and Donald G. Truhlar   : smd solvation model
   Lars Goerigk                                  : TD-DFT with DH, B97 family of functionals
   V. Asgeirsson, H. Jonsson                     : NEB implementation
   FAccTs GmbH                                   : IRC, NEB, NEB-TS, DLPNO-Multilevel, CI-OPT
                                                   MM, QMMM, 2- and 3-layer-ONIOM, Crystal-QMMM,
                                                   LR-CPCM, SF, NACMEs, symmetry and pop. for TD-DFT,
                                                   nearIR, NL-DFT gradient (VV10), updates on ESD,
                                                   ML-optimized integration grids, MBIS, APM,
                                                   GOAT, DOCKER, SOLVATOR, interface openCOSMO-RS
   S Lehtola, MJT Oliveira, MAL Marques          : LibXC Library
   Liviu Ungur et al                             : ANISO software


 Your calculation uses the libint2 library for the computation of 2-el integrals
 For citations please refer to: http://libint.valeyev.net

 Your ORCA version has been built with support for libXC version: 6.2.2
 For citations please refer to: https://libxc.gitlab.io

 This ORCA versions uses:
   CBLAS   interface :  Fast vector & matrix operations
   LAPACKE interface :  Fast linear algebra routines
   SCALAPACK package :  Parallel linear algebra routines
   Shared memory     :  Shared parallel matrices
   BLAS/LAPACK       :  OpenBLAS 0.3.27  USE64BITINT DYNAMIC_ARCH NO_AFFINITY SkylakeX SINGLE_THREADED
        Core in use  :  SkylakeX
   Copyright (c) 2011-2014, The OpenBLAS Project


Your calculation utilizes the geometrical counterpoise correction gCP
Please cite in your paper:
H.Kruse, S. Grimme J.Chem.Phys., 136, (2012), 154101 
   

Your calculation utilizes the atom-pairwise dispersion correction
based on EEQ partial charges (D4)


Your calculation utilizes the SMD solvation module
Please cite in your paper:
A.V. Marenich, C.J. Cramer, D.G. Truhlar J. Phys. Chem. B, 113, (2009), 6378 

================================================================================

----- Orbital basis set information -----
Your calculation utilizes the basis: def2-mTZVPP
   Stefan Grimme, Andreas Hansen, Sebastian Ehlert, and Jan-Michael Mewes 
   J. Chem. Phys. 154, 064103 (2021). DOI: 10.1063/5.0040021

----- AuxJ basis set information -----
Your calculation utilizes the auxiliary basis: def2/J
   F. Weigend, Phys. Chem. Chem. Phys. 8, 1057 (2006).

================================================================================
                                        WARNINGS
                       Please study these warnings very carefully!
================================================================================

Using LibXC functional ID 497 : Re-regularized SCAN exchange by Furness et al
[ 1]  J. W. Furness, A. D. Kaplan, J. Ning, J. P. Perdew, and J. Sun.,  J. Phys. Chem. Lett. 11, 8208-8215 (2020)
[ 2]  J. W. Furness, A. D. Kaplan, J. Ning, J. P. Perdew, and J. Sun.,  J. Phys. Chem. Lett. 11, 9248-9248 (2020)
Using LibXC functional ID 498 : Re-regularized SCAN correlation by Furness et al
[ 1]  J. W. Furness, A. D. Kaplan, J. Ning, J. P. Perdew, and J. Sun.,  J. Phys. Chem. Lett. 11, 8208-8215 (2020)
[ 2]  J. W. Furness, A. D. Kaplan, J. Ning, J. P. Perdew, and J. Sun.,  J. Phys. Chem. Lett. 11, 9248-9248 (2020)
Using LibXC functional ID 497 : Re-regularized SCAN exchange by Furness et al
[ 1]  J. W. Furness, A. D. Kaplan, J. Ning, J. P. Perdew, and J. Sun.,  J. Phys. Chem. Lett. 11, 8208-8215 (2020)
[ 2]  J. W. Furness, A. D. Kaplan, J. Ning, J. P. Perdew, and J. Sun.,  J. Phys. Chem. Lett. 11, 9248-9248 (2020)
Using LibXC functional ID 498 : Re-regularized SCAN correlation by Furness et al
[ 1]  J. W. Furness, A. D. Kaplan, J. Ning, J. P. Perdew, and J. Sun.,  J. Phys. Chem. Lett. 11, 8208-8215 (2020)
[ 2]  J. W. Furness, A. D. Kaplan, J. Ning, J. P. Perdew, and J. Sun.,  J. Phys. Chem. Lett. 11, 9248-9248 (2020)

================================================================================
                                       INPUT FILE
================================================================================
NAME = sp_solv.inp
|  1> ! r2scan-3c def2/J RI DEFGRID2 scfconv6 printgap
|  2> %output
|  3>     printlevel normal
|  4> end
|  5> %cpcm
|  6>     smd true
|  7>     smdsolvent "water"
|  8> end
|  9> * xyz 0 1
| 10> C -3.6309537698 -0.5013299256 0.3573485786
| 11> C -2.2637197491 -0.4717423516 -0.3130420062
| 12> C -1.2139267919 0.1864980754 0.5918884375
| 13> C 0.102341813 0.2777181512 -0.1332369825
| 14> O 0.3001460802 0.9529931583 -1.122262255
| 15> O 1.0213226384 -0.5028293453 0.4202926061
| 16> C 2.3350791327 -0.5389658685 -0.1634840119
| 17> C 3.2097731552 0.5780621152 0.3846225188
| 18> H -4.3561209833 -0.9820657684 -0.2932270816
| 19> H -3.5842989416 -1.0547156324 1.2916303962
| 20> H -3.9735936289 0.5080064447 0.5698514033
| 21> H -2.317338123 0.0870610488 -1.2495265034
| 22> H -1.9463851681 -1.4898093523 -0.5477256373
| 23> H -1.0765619227 -0.3904146772 1.5052218592
| 24> H -1.5391433968 1.1982466889 0.8380650825
| 25> H 2.7278662581 -1.5198123132 0.1057147993
| 26> H 2.2358496048 -0.4526232124 -1.2497740712
| 27> H 2.8018300992 1.5447622682 0.0977923041
| 28> H 3.2552234682 0.5201362914 1.4687127822
| 29> H 4.2110529022 0.4833902271 -0.0226270614
| 30> *
| 31> 
| 32>                          ****END OF INPUT****
================================================================================

                       ****************************
                       * Single Point Calculation *
                       ****************************

---------------------------------
CARTESIAN COORDINATES (ANGSTROEM)
---------------------------------
  C     -3.630954   -0.501330    0.357349
  C     -2.263720   -0.471742   -0.313042
  C     -1.213927    0.186498    0.591888
  C      0.102342    0.277718   -0.133237
  O      0.300146    0.952993   -1.122262
  O      1.021323   -0.502829    0.420293
  C      2.335079   -0.538966   -0.163484
  C      3.209773    0.578062    0.384623
  H     -4.356121   -0.982066   -0.293227
  H     -3.584299   -1.054716    1.291630
  H     -3.973594    0.508006    0.569851
  H     -2.317338    0.087061   -1.249527
  H     -1.946385   -1.489809   -0.547726
  H     -1.076562   -0.390415    1.505222
  H     -1.539143    1.198247    0.838065
  H      2.727866   -1.519812    0.105715
  H      2.235850   -0.452623   -1.249774
  H      2.801830    1.544762    0.097792
  H      3.255223    0.520136    1.468713
  H      4.211053    0.483390   -0.022627

----------------------------
CARTESIAN COORDINATES (A.U.)
----------------------------
  NO LB      ZA    FRAG     MASS         X           Y           Z
   0 C     6.0000    0    12.011   -6.861508   -0.947376    0.675291
   1 C     6.0000    0    12.011   -4.277810   -0.891464   -0.591564
   2 C     6.0000    0    12.011   -2.293989    0.352430    1.118507
   3 C     6.0000    0    12.011    0.193398    0.524811   -0.251781
   4 O     8.0000    0    15.999    0.567194    1.800896   -2.120768
   5 O     8.0000    0    15.999    1.930020   -0.950210    0.794238
   6 C     6.0000    0    12.011    4.412660   -1.018498   -0.308940
   7 C     6.0000    0    12.011    6.065592    1.092379    0.726831
   8 H     1.0000    0     1.008   -8.231876   -1.855835   -0.554119
   9 H     1.0000    0     1.008   -6.773343   -1.993124    2.440828
  10 H     1.0000    0     1.008   -7.509004    0.959993    1.076863
  11 H     1.0000    0     1.008   -4.379134    0.164522   -2.361263
  12 H     1.0000    0     1.008   -3.678135   -2.815332   -1.035051
  13 H     1.0000    0     1.008   -2.034407   -0.737777    2.844457
  14 H     1.0000    0     1.008   -2.908560    2.264358    1.583713
  15 H     1.0000    0     1.008    5.154920   -2.872029    0.199772
  16 H     1.0000    0     1.008    4.225143   -0.855334   -2.361731
  17 H     1.0000    0     1.008    5.294692    2.919178    0.184801
  18 H     1.0000    0     1.008    6.151481    0.982915    2.775465
  19 H     1.0000    0     1.008    7.957737    0.913475   -0.042759

--------------------------------
INTERNAL COORDINATES (ANGSTROEM)
--------------------------------
 C      0   0   0     0.000000000000     0.00000000     0.00000000
 C      1   0   0     1.523032444856     0.00000000     0.00000000
 C      2   1   0     1.534354854869   111.28052296     0.00000000
 C      3   2   1     1.505553392346   109.88341790   183.55277419
 O      4   3   2     1.213793167298   124.65466241    65.25521457
 O      4   3   2     1.326715929354   111.65363868   246.95822056
 C      6   4   3     1.438074099046   118.56860206   179.46529746
 C      7   6   4     1.520941129157   111.13940660    86.09126298
 H      1   2   3     1.086380747129   110.13467761   180.73296471
 H      1   2   3     1.086873924695   110.47063392   300.63567894
 H      1   2   3     1.086885197231   110.54971501    60.81944253
 H      2   1   3     1.091851356099   110.08366857   239.47346693
 H      2   1   3     1.091896543139   109.71796394   120.89206761
 H      3   2   1     1.088979049659   110.71270021    63.08132648
 H      3   2   1     1.090873062077   109.08709033   302.07561755
 H      7   6   4     1.090325398178   104.56534510   206.37486253
 H      7   6   4     1.094224678210   108.55238428   324.23389047
 H      8   7   6     1.087749187457   109.99827829   295.78342320
 H      8   7   6     1.086587700654   110.14810939    55.99733070
 H      8   7   6     1.085069637729   109.35111236   176.18121881

---------------------------
INTERNAL COORDINATES (A.U.)
---------------------------
 C      0   0   0     0.000000000000     0.00000000     0.00000000
 C      1   0   0     2.878114213854     0.00000000     0.00000000
 C      2   1   0     2.899510467954   111.28052296     0.00000000
 C      3   2   1     2.845083591530   109.88341790   183.55277419
 O      4   3   2     2.293736669419   124.65466241    65.25521457
 O      4   3   2     2.507129763989   111.65363868   246.95822056
 C      6   4   3     2.717566207483   118.56860206   179.46529746
 C      7   6   4     2.874162199924   111.13940660    86.09126298
 H      1   2   3     2.052962089239   110.13467761   180.73296471
 H      1   2   3     2.053894059775   110.47063392   300.63567894
 H      1   2   3     2.053915361780   110.54971501    60.81944253
 H      2   1   3     2.063300041977   110.08366857   239.47346693
 H      2   1   3     2.063385433108   109.71796394   120.89206761
 H      3   2   1     2.057872169434   110.71270021    63.08132648
 H      3   2   1     2.061451334198   109.08709033   302.07561755
 H      7   6   4     2.060416399415   104.56534510   206.37486253
 H      7   6   4     2.067784970795   108.55238428   324.23389047
 H      8   7   6     2.055548066689   109.99827829   295.78342320
 H      8   7   6     2.053353174724   110.14810939    55.99733070
 H      8   7   6     2.050484451541   109.35111236   176.18121881

---------------------
BASIS SET INFORMATION
---------------------
There are 3 groups of distinct atoms

 Group   1 Type C   : 11s6p1d contracted to 5s3p1d pattern {62111/411/1}
 Group   2 Type O   : 11s6p2d contracted to 5s3p2d pattern {62111/411/11}
 Group   3 Type H   : 4s1p contracted to 2s1p pattern {31/1}

Atom   0C    basis set group =>   1
Atom   1C    basis set group =>   1
Atom   2C    basis set group =>   1
Atom   3C    basis set group =>   1
Atom   4O    basis set group =>   2
Atom   5O    basis set group =>   2
Atom   6C    basis set group =>   1
Atom   7C    basis set group =>   1
Atom   8H    basis set group =>   3
Atom   9H    basis set group =>   3
Atom  10H    basis set group =>   3
Atom  11H    basis set group =>   3
Atom  12H    basis set group =>   3
Atom  13H    basis set group =>   3
Atom  14H    basis set group =>   3
Atom  15H    basis set group =>   3
Atom  16H    basis set group =>   3
Atom  17H    basis set group =>   3
Atom  18H    basis set group =>   3
Atom  19H    basis set group =>   3
---------------------------------
AUXILIARY/J BASIS SET INFORMATION
---------------------------------
There are 3 groups of distinct atoms

 Group   1 Type C   : 12s5p4d2f1g contracted to 6s4p3d1f1g pattern {711111/2111/211/2/1}
 Group   2 Type O   : 12s5p4d2f1g contracted to 6s4p3d1f1g pattern {711111/2111/211/2/1}
 Group   3 Type H   : 5s2p1d contracted to 3s1p1d pattern {311/2/1}

Atom   0C    basis set group =>   1
Atom   1C    basis set group =>   1
Atom   2C    basis set group =>   1
Atom   3C    basis set group =>   1
Atom   4O    basis set group =>   2
Atom   5O    basis set group =>   2
Atom   6C    basis set group =>   1
Atom   7C    basis set group =>   1
Atom   8H    basis set group =>   3
Atom   9H    basis set group =>   3
Atom  10H    basis set group =>   3
Atom  11H    basis set group =>   3
Atom  12H    basis set group =>   3
Atom  13H    basis set group =>   3
Atom  14H    basis set group =>   3
Atom  15H    basis set group =>   3
Atom  16H    basis set group =>   3
Atom  17H    basis set group =>   3
Atom  18H    basis set group =>   3
Atom  19H    basis set group =>   3

Checking for AutoStart:
The File: sp_solv.gbw exists
Trying to determine its content:
     ... Fine, the file contains calculation information
     ... Fine, the calculation information was read
     ... Fine, the file contains a basis set
     ... Fine, the basis set was read
     ... Fine, the file contains a geometry
     ... Fine, the geometry was read
     ... Fine, the file contains a set of orbitals
     ... Fine, the orbitals can be read
     => possible old guess file was deleted
     => GBW file was renamed to GES file
     => GES file is set as startup file
     => Guess is set to MORead
     ... now leaving AutoStart

------------------------------------------------------------------------------
                             ORCA STARTUP CALCULATIONS
                           -- RI-GTO INTEGRALS CHOSEN --
------------------------------------------------------------------------------
------------------------------------------------------------------------------
                   ___                                                        
                  /   \      - P O W E R E D   B Y -                         
                 /     \                                                     
                 |  |  |   _    _      __       _____    __    __             
                 |  |  |  | |  | |    /  \     |  _  \  |  |  /  |          
                  \  \/   | |  | |   /    \    | | | |  |  | /  /          
                 / \  \   | |__| |  /  /\  \   | |_| |  |  |/  /          
                |  |  |   |  __  | /  /__\  \  |    /   |      \           
                |  |  |   | |  | | |   __   |  |    \   |  |\   \          
                \     /   | |  | | |  |  |  |  | |\  \  |  | \   \       
                 \___/    |_|  |_| |__|  |__|  |_| \__\ |__|  \__/        
                                                                              
                      - O R C A' S   B I G   F R I E N D -                    
                                      &                                       
                       - I N T E G R A L  F E E D E R -                       
                                                                              
 v1 FN, 2020, v2 2021, v3 2022-2024                                           
------------------------------------------------------------------------------


----------------------
SHARK INTEGRAL PACKAGE
----------------------

Number of atoms                             ...     20
Number of basis functions                   ...    222
Number of shells                            ...    110
Maximum angular momentum                    ...      2
Integral batch strategy                     ... SHARK/LIBINT Hybrid
RI-J (if used) integral strategy            ... SPLIT-RIJ (Revised 2003 algorithm where possible)
Printlevel                                  ...      1
Contraction scheme used                     ... SEGMENTED contraction
Prescreening option                         ... SCHWARTZ
   Thresh                                   ... 1.000e-10
   Tcut                                     ... 1.000e-11
   Tpresel                                  ... 1.000e-11 
Coulomb Range Separation                    ... NOT USED
Exchange Range Separation                   ... NOT USED
Multipole approximations                    ... NOT USED
Finite Nucleus Model                        ... NOT USED
CABS basis                                  ... NOT available
Auxiliary Coulomb fitting basis             ... AVAILABLE
   # of basis functions in Aux-J            ...    524
   # of shells in Aux-J                     ...    180
   Maximum angular momentum in Aux-J        ...      4
Auxiliary J/K fitting basis                 ... NOT available
Auxiliary Correlation fitting basis         ... NOT available
Auxiliary 'external' fitting basis          ... NOT available

Checking pre-screening integrals            ... done (  0.0 sec) Dimension = 110
Check shell pair data                       ... done (  0.0 sec)
Shell pair information
Shell pair cut-off parameter TPreSel        ...   1.0e-11
Total number of shell pairs                 ...      6105
Shell pairs after pre-screening             ...      5166
Total number of primitive shell pairs       ...     21533
Primitive shell pairs kept                  ...     12893
          la=0 lb=0:   1734 shell pairs
          la=1 lb=0:   1943 shell pairs
          la=1 lb=1:    568 shell pairs
          la=2 lb=0:    557 shell pairs
          la=2 lb=1:    314 shell pairs
          la=2 lb=2:     50 shell pairs

Calculating one electron integrals          ... done (  0.0 sec)
Calculating RI/J V-Matrix + Cholesky decomp.... done (  0.1 sec)
Calculating Nuclear repulsion               ... done (  0.0 sec) ENN=    388.088841149459 Eh

Diagonalization of the overlap matrix:
Smallest eigenvalue                        ... 1.272e-04
Time for diagonalization                   ...    0.010 sec
Threshold for overlap eigenvalues          ... 1.000e-07
Number of eigenvalues below threshold      ... 0
Time for construction of square roots      ...    0.023 sec
Total time needed                          ...    0.042 sec

-------------------
DFT GRID GENERATION
-------------------

General Integration Accuracy     IntAcc      ... 4.388
Radial Grid Type                 RadialGrid  ... OptM3 with GC (2021)
Angular Grid (max. ang.)         AngularGrid ... 4 (Lebedev-302)
Angular grid pruning method      GridPruning ... 4 (adaptive)
Weight generation scheme         WeightScheme... mBecke (2022)
Basis function cutoff            BFCut       ... 1.0000e-10
Integration weight cutoff        WCut        ... 1.0000e-14
Partially contracted basis set               ... off
Rotationally invariant grid construction     ... off
Angular grids for H and He will be reduced by one unit
Diffuse basis detected: some atoms will have their outermost
                        angular grid increased by 1.

Total number of grid points                  ...    87466
Total number of batches                      ...     1375
Average number of points per batch           ...       63
Average number of grid points per atom       ...     4373
Initializing property integral containers    ... done (  0.0 sec)

SHARK setup successfully completed in   1.4 seconds

Maximum memory used throughout the entire STARTUP-calculation: 39.1 MB
-------------------------------------------------------------------------------
                                 ORCA GUESS
                   Start orbitals & Density for SCF / CASSCF
-------------------------------------------------------------------------------

------------
SCF SETTINGS
------------
Hamiltonian:
 Density Functional     Method          .... DFT(GTOs)
  Functional kind                       .... Exchange
  Functional name                       .... Re-regularized SCAN exchange by Furness et al
  Functional family                     .... MGGA
  Functional refs                              
    [ 0] J. W. Furness, A. D. Kaplan, J. Ning, J. P. Perdew, and J. Sun.,  J. Phys. Chem. Lett. 11, 8208-8215 (2020), doi: 10.1021/acs.jpclett.0c02405
    [ 1] J. W. Furness, A. D. Kaplan, J. Ning, J. P. Perdew, and J. Sun.,  J. Phys. Chem. Lett. 11, 9248-9248 (2020), doi: 10.1021/acs.jpclett.0c03077
  Functional external parameters        .... 6
    Parameter  0 _c1        =  6.670000e-01 : c1 parameter        
    Parameter  1 _c2        =  8.000000e-01 : c2 parameter        
    Parameter  2 _d         =  1.240000e+00 : d parameter         
    Parameter  3 _k1        =  6.500000e-02 : k1 parameter        
    Parameter  4 _eta       =  1.000000e-03 : eta parameter       
    Parameter  5 _dp2       =  3.610000e-01 : dp2 parameter       
  Functional kind                       .... Correlation
  Functional name                       .... Re-regularized SCAN correlation by Furness et al
  Functional family                     .... MGGA
  Functional refs                              
    [ 0] J. W. Furness, A. D. Kaplan, J. Ning, J. P. Perdew, and J. Sun.,  J. Phys. Chem. Lett. 11, 8208-8215 (2020), doi: 10.1021/acs.jpclett.0c02405
    [ 1] J. W. Furness, A. D. Kaplan, J. Ning, J. P. Perdew, and J. Sun.,  J. Phys. Chem. Lett. 11, 9248-9248 (2020), doi: 10.1021/acs.jpclett.0c03077
  Functional external parameters        .... 1
    Parameter  0 _eta       =  1.000000e-03 : Regularization parameter
 Gradients option       PostSCFGGA      .... off
 RI-approximation to the Coulomb term is turned on
   Number of AuxJ basis functions       .... 524


General Settings:
 Integral files         IntName         .... sp_solv
 Hartree-Fock type      HFTyp           .... RHF
 Total Charge           Charge          ....    0
 Multiplicity           Mult            ....    1
 Number of Electrons    NEL             ....   64
 Basis Dimension        Dim             ....  222
 Nuclear Repulsion      ENuc            ....    388.0888411495 Eh

Convergence Acceleration:
 AO-DIIS                CNVDIIS         .... on
   Start iteration      DIISMaxIt       ....    12
   Startup error        DIISStart       ....  0.200000
   # of expansion vecs  DIISMaxEq       ....     5
   Bias factor          DIISBfac        ....   1.050
   Max. coefficient     DIISMaxC        ....  10.000
 MO-DIIS                CNVKDIIS        .... off
 Trust-Rad. Augm. Hess. CNVTRAH         .... auto
   Auto Start mean grad. ratio tolernc. ....  1.125000
   Auto Start start iteration           ....     1
   Auto Start num. interpolation iter.  ....    10
   Max. Number of Micro iterations      ....    24
   Max. Number of Macro iterations      .... Maxiter - #DIIS iter
   Number of Davidson start vectors     ....     2
   Converg. threshold    (grad. norm)   ....   3.330e-04
   Grad. Scal. Fac. for Micro threshold ....   0.100
   Minimum threshold for Micro iter.    ....   1.000e-02
   NR start threshold (gradient norm)   ....   1.000e-04
   Initial trust radius                 ....   0.400
   Minimum AH scaling param. (alpha)    ....   1.000
   Maximum AH scaling param. (alpha)    .... 1000.000
   Quad. conv. algorithm                .... NR
   White noise on init. David. guess    .... on
   Maximum white noise                  ....   0.010
   Pseudo random numbers                .... off
   Inactive MOs                         .... canonical
   Orbital update algorithm             .... Taylor
   Preconditioner                       .... Diag
   Full preconditioner red. dimension   ....   250
   COSX micro iterations for RIJONX calc.... off
 SOSCF                  CNVSOSCF        .... on
   Start iteration      SOSCFMaxIt      ....   150
   Startup grad/error   SOSCFStart      ....  0.003300
   Hessian update       SOSCFHessUp     .... L-BFGS
 Level Shifting         CNVShift        .... on
   Level shift para.    LevelShift      ....    0.2500
   Turn off err/grad.   ShiftErr        ....    0.0010
 Zerner damping         CNVZerner       .... off
 Static damping         CNVDamp         .... on
   Fraction old density DampFac         ....    0.7000
   Max. Damping (<1)    DampMax         ....    0.9800
   Min. Damping (>=0)   DampMin         ....    0.0000
   Turn off err/grad.   DampErr         ....    0.1000

SCF Procedure:
 Maximum # iterations   MaxIter         ....   125
 SCF integral mode      SCFMode         .... Direct
   Integral package                     .... SHARK and LIBINT hybrid scheme
 Reset frequency        DirectResetFreq ....    20
 Integral Threshold     Thresh          ....  1.000e-10 Eh
 Primitive CutOff       TCut            ....  1.000e-11 Eh

Convergence Tolerance:
 Convergence Check Mode ConvCheckMode   .... Total+1el-Energy
 Convergence forced     ConvForced      .... 0
 Energy Change          TolE            ....  1.000e-06 Eh
 1-El. energy change                    ....  1.000e-03 Eh
 Orbital Gradient       TolG            ....  3.330e-04
 Orbital Rotation angle TolX            ....  3.330e-04
 DIIS Error             TolErr          ....  1.000e-06

---------------------
INITIAL GUESS: MOREAD
---------------------
Guess MOs are being read from file: sp_solv.ges
Input Geometry matches current geometry (good)
Atom 0: N(Shells)= 9 and 6 - projection required
Input basis set needs projection
NBasis(read)= 136
NBasis(calc)= 222
Basis set overlap was calculated
Using GuessMode=FMatrix for the initial guess
C*T matrix was formed
Effective Fockian was calculated
Effective Fockian was diagonalized
Initial density was built
                      ------------------
                      INITIAL GUESS DONE (   0.0 sec)
                      ------------------
             **** ENERGY FILE WAS UPDATED (sp_solv.en.tmp) ****
Finished Guess after   0.3 sec
Maximum memory used throughout the entire GUESS-calculation: 14.9 MB

-------------------------------------------------------------------------------------------
                                      ORCA LEAN-SCF
                              memory conserving SCF solver
-------------------------------------------------------------------------------------------

--------------------
CPCM SOLVATION MODEL
--------------------
CPCM parameters:
  Epsilon                                         ...      78.3550
  Refrac                                          ...       1.3328
  Rsolv                                           ...       1.3000
  Surface type                                    ... GAUSSIAN VDW
  Discretization scheme                           ... Constant charge density
    Threshold for H atoms                         ...       5.0000 (charges/Ang^2)
    Threshold for non-H atoms                     ...       5.0000 (charges/Ang^2)
  Epsilon function type                           ...         CPCM
Solvent:                                          ... WATER
SMD-CDS solvent descriptors:
  Soln                                            ...       1.3328
  Soln25                                          ...       1.3323
  Sola                                            ...       0.0000
  Solb                                            ...       0.0000
  Solg                                            ...       0.0000
  Solc                                            ...       0.0000
  Solh                                            ...       0.0000
Radii:
  Scheme                                          ... Element-dependent radii
  Radius for C  used is    3.4960 Bohr (=   1.8500 Ang.)
  Radius for O  used is    2.8724 Bohr (=   1.5200 Ang.)
  Radius for H  used is    2.2677 Bohr (=   1.2000 Ang.)
Calculating surface                               ...        done! (  0.0s)
Cavity surface points                             ...         1492
Cavity Volume                                     ...     882.8482
Cavity Surface-area                               ...     592.1163
Calculating surface distance matrix               ...        done! (  0.0s)
Performing Cholesky decomposition & store         ...        done! (  0.1s)
Overall time for CPCM initialization              ...                 0.1s

----------------------------------------D-I-I-S--------------------------------------------
Iteration    Energy (Eh)           Delta-E    RMSDP     MaxDP     DIISErr   Damp  Time(sec)
-------------------------------------------------------------------------------------------
               ***  Starting incremental Fock matrix formation  ***
    1    -386.0569191674035210     0.00e+00  3.61e-03  1.31e-01  6.26e-01  0.700   3.6
    2    -386.1158095338697649    -5.89e-02  2.93e-03  9.75e-02  4.41e-01  0.700   3.4
    3    -386.1574704604951194    -4.17e-02  2.15e-03  6.91e-02  3.10e-01  0.700   3.2
    4    -386.1867502978537914    -2.93e-02  1.54e-03  4.88e-02  2.17e-01  0.700   3.3
                               ***Turning on AO-DIIS***
    5    -386.2073085983095098    -2.06e-02  1.12e-03  3.51e-02  1.52e-01  0.700   3.2
    6    -386.2217219765436766    -1.44e-02  7.93e-04  2.48e-02  1.06e-01  0.700   3.0
    7    -386.2318395091783714    -1.01e-02  5.60e-04  1.75e-02  7.41e-02  0.700   3.1
    8    -386.2389304383369790    -7.09e-03  1.32e-03  4.08e-02  5.21e-02  0.000   3.2
                              *** Initializing SOSCF ***
---------------------------------------S-O-S-C-F--------------------------------------
Iteration    Energy (Eh)           Delta-E    RMSDP     MaxDP     MaxGrad    Time(sec)
--------------------------------------------------------------------------------------
    9    -386.2555087625981969    -1.66e-02  1.19e-05  3.60e-04  1.91e-04     3.2
               *** Restarting incremental Fock matrix formation ***
   10    -386.2555089003325293    -1.38e-07  6.82e-06  1.84e-04  5.92e-05     3.6
                  *** Gradient check signals convergence ***

               *****************************************************
               *                     SUCCESS                       *
               *           SCF CONVERGED AFTER  10 CYCLES          *
               *****************************************************


SMD CDS free energy correction energy :                 5.04231     Kcal/mol
Total Energy after SMD CDS correction =              -386.247473474 Eh
             **** ENERGY FILE WAS UPDATED (sp_solv.en.tmp) ****

----------------
TOTAL SCF ENERGY
----------------

Total Energy       :       -386.24747347389666 Eh          -10510.32809 eV

Components:
Nuclear Repulsion  :        388.08884114945852 Eh           10560.43425 eV
Electronic Energy  :       -774.32870683366843 Eh          -21070.55532 eV
One Electron Energy:      -1293.52683080810630 Eh          -35198.65453 eV
Two Electron Energy:        519.19812397443786 Eh           14128.09921 eV
CPCM Dielectric    :         -0.01564321612261 Eh              -0.42567 eV
SMD CDS (Gcds)     :          0.00803542643588 Eh               0.21866 eV

Virial components:
Potential Energy   :       -770.89354199586046 Eh          -20977.07973 eV
Kinetic Energy     :        384.64606852196374 Eh           10466.75164 eV
Virial Ratio       :          2.00416332073297

DFT components:
N(Alpha)           :       31.999964661366 electrons
N(Beta)            :       31.999964661366 electrons
N(Total)           :       63.999929322732 electrons
E(X)               :      -52.085039285169 Eh       
E(C)               :       -2.037164093853 Eh       
E(XC)              :      -54.122203379022 Eh       

CPCM Solvation Model Properties:
Surface-charge          :         -0.04800311163013
Corrected charge        :          0.00000000000000
Outlying charge corr.   :          0.00017163881215 Eh               0.00467 eV
Free-energy (cav+disp)  :          0.00803542643588 Eh               0.21866 eV

---------------
SCF CONVERGENCE
---------------

  Last Energy change         ...    1.3773e-07  Tolerance :   1.0000e-06
  Last MAX-Density change    ...    1.8424e-04  Tolerance :   1.0000e-05
  Last RMS-Density change    ...    6.8191e-06  Tolerance :   1.0000e-06
  Last DIIS Error            ...    1.9120e-04  Tolerance :   1.0000e-06
  Last Orbital Gradient      ...    5.9206e-05  Tolerance :   3.3300e-04
  Last Orbital Rotation      ...    1.4351e-04  Tolerance :   3.3300e-04


----------------
ORBITAL ENERGIES
----------------

  NO   OCC          E(Eh)            E(eV) 
   0   2.0000     -19.002603      -517.0871 
   1   2.0000     -18.942595      -515.4542 
   2   2.0000     -10.161682      -276.5134 
   3   2.0000     -10.083075      -274.3744 
   4   2.0000     -10.034542      -273.0538 
   5   2.0000     -10.029179      -272.9078 
   6   2.0000     -10.018326      -272.6125 
   7   2.0000     -10.011637      -272.4305 
   8   2.0000      -1.078518       -29.3480 
   9   2.0000      -0.988432       -26.8966 
  10   2.0000      -0.768411       -20.9095 
  11   2.0000      -0.733229       -19.9522 
  12   2.0000      -0.674194       -18.3458 
  13   2.0000      -0.617255       -16.7964 
  14   2.0000      -0.558420       -15.1954 
  15   2.0000      -0.520924       -14.1751 
  16   2.0000      -0.472749       -12.8642 
  17   2.0000      -0.462248       -12.5784 
  18   2.0000      -0.435481       -11.8500 
  19   2.0000      -0.426168       -11.5966 
  20   2.0000      -0.409530       -11.1439 
  21   2.0000      -0.382801       -10.4165 
  22   2.0000      -0.372695       -10.1416 
  23   2.0000      -0.356509        -9.7011 
  24   2.0000      -0.349339        -9.5060 
  25   2.0000      -0.336810        -9.1651 
  26   2.0000      -0.320267        -8.7149 
  27   2.0000      -0.308768        -8.4020 
  28   2.0000      -0.301033        -8.1915 
  29   2.0000      -0.297528        -8.0962 
  30   2.0000      -0.277958        -7.5636 
  31   2.0000      -0.250750        -6.8233 
  32   0.0000      -0.022850        -0.6218 
  33   0.0000       0.080416         2.1882 
  34   0.0000       0.101487         2.7616 
  35   0.0000       0.113824         3.0973 
  36   0.0000       0.131616         3.5815 
  37   0.0000       0.136761         3.7215 
  38   0.0000       0.138413         3.7664 
  39   0.0000       0.148568         4.0427 
  40   0.0000       0.154516         4.2046 
  41   0.0000       0.166111         4.5201 
  42   0.0000       0.168889         4.5957 
*Only the first 10 virtual orbitals were printed.

                    ********************************
                    * MULLIKEN POPULATION ANALYSIS *
                    ********************************

-----------------------
MULLIKEN ATOMIC CHARGES
-----------------------
   0 C :   -0.517284
   1 C :   -0.222075
   2 C :   -0.369298
   3 C :    0.463389
   4 O :   -0.522306
   5 O :   -0.201384
   6 C :   -0.143010
   7 C :   -0.493905
   8 H :    0.161707
   9 H :    0.158092
  10 H :    0.159340
  11 H :    0.159033
  12 H :    0.155334
  13 H :    0.176920
  14 H :    0.186156
  15 H :    0.173589
  16 H :    0.171746
  17 H :    0.168379
  18 H :    0.165462
  19 H :    0.170116
Sum of atomic charges:    0.0000000

--------------------------------
MULLIKEN REDUCED ORBITAL CHARGES
--------------------------------
  0 C s       :     3.356431  s :     3.356431
      pz      :     1.068012  p :     3.133898
      px      :     0.967411
      py      :     1.098475
      dz2     :     0.004489  d :     0.026955
      dxz     :     0.006345
      dyz     :     0.005035
      dx2y2   :     0.005990
      dxy     :     0.005096

  1 C s       :     3.197777  s :     3.197777
      pz      :     1.005316  p :     2.987291
      px      :     0.912422
      py      :     1.069552
      dz2     :     0.006597  d :     0.037008
      dxz     :     0.008327
      dyz     :     0.006728
      dx2y2   :     0.008753
      dxy     :     0.006603

  2 C s       :     3.293299  s :     3.293299
      pz      :     1.004993  p :     3.041484
      px      :     0.940114
      py      :     1.096377
      dz2     :     0.005898  d :     0.034516
      dxz     :     0.008842
      dyz     :     0.006160
      dx2y2   :     0.009342
      dxy     :     0.004273

  3 C s       :     3.123240  s :     3.123240
      pz      :     0.742285  p :     2.288167
      px      :     0.808885
      py      :     0.736997
      dz2     :     0.026340  d :     0.125204
      dxz     :     0.035521
      dyz     :     0.018946
      dx2y2   :     0.020932
      dxy     :     0.023465

  4 O s       :     3.832219  s :     3.832219
      pz      :     1.385961  p :     4.665665
      px      :     1.795774
      py      :     1.483930
      dz2     :     0.008801  d :     0.024422
      dxz     :     0.001256
      dyz     :     0.008254
      dx2y2   :     0.002850
      dxy     :     0.003262

  5 O s       :     3.705404  s :     3.705404
      pz      :     1.675238  p :     4.459869
      px      :     1.172541
      py      :     1.612090
      dz2     :     0.007858  d :     0.036112
      dxz     :     0.005614
      dyz     :     0.006764
      dx2y2   :     0.007215
      dxy     :     0.008661

  6 C s       :     3.263931  s :     3.263931
      pz      :     1.033088  p :     2.826122
      px      :     0.734452
      py      :     1.058582
      dz2     :     0.012258  d :     0.052958
      dxz     :     0.010788
      dyz     :     0.004030
      dx2y2   :     0.014185
      dxy     :     0.011696

  7 C s       :     3.336740  s :     3.336740
      pz      :     1.080041  p :     3.131632
      px      :     1.047023
      py      :     1.004569
      dz2     :     0.007674  d :     0.025533
      dxz     :     0.003448
      dyz     :     0.002967
      dx2y2   :     0.006016
      dxy     :     0.005429

  8 H s       :     0.819913  s :     0.819913
      pz      :     0.006208  p :     0.018380
      px      :     0.007024
      py      :     0.005148

  9 H s       :     0.823627  s :     0.823627
      pz      :     0.009183  p :     0.018281
      px      :     0.003528
      py      :     0.005570

 10 H s       :     0.822390  s :     0.822390
      pz      :     0.003989  p :     0.018271
      px      :     0.004315
      py      :     0.009966

 11 H s       :     0.823080  s :     0.823080
      pz      :     0.009140  p :     0.017887
      px      :     0.003336
      py      :     0.005411

 12 H s       :     0.826807  s :     0.826807
      pz      :     0.003819  p :     0.017859
      px      :     0.003944
      py      :     0.010095

 13 H s       :     0.805175  s :     0.805175
      pz      :     0.009150  p :     0.017905
      px      :     0.003210
      py      :     0.005545

 14 H s       :     0.795744  s :     0.795744
      pz      :     0.003817  p :     0.018100
      px      :     0.004064
      py      :     0.010218

 15 H s       :     0.808875  s :     0.808875
      pz      :     0.003645  p :     0.017536
      px      :     0.003588
      py      :     0.010302

 16 H s       :     0.810389  s :     0.810389
      pz      :     0.011946  p :     0.017865
      px      :     0.002422
      py      :     0.003497

 17 H s       :     0.813355  s :     0.813355
      pz      :     0.004093  p :     0.018266
      px      :     0.004559
      py      :     0.009615

 18 H s       :     0.816249  s :     0.816249
      pz      :     0.011196  p :     0.018289
      px      :     0.003551
      py      :     0.003542

 19 H s       :     0.811371  s :     0.811371
      pz      :     0.004672  p :     0.018514
      px      :     0.010243
      py      :     0.003598


------------------------
MULLIKEN OVERLAP CHARGES
------------------------
B(  0-C ,  1-C ) :   0.4576 B(  0-C ,  2-C ) :  -0.1809 B(  0-C ,  8-H ) :   0.8062 
B(  0-C ,  9-H ) :   0.8508 B(  0-C , 10-H ) :   0.8675 B(  0-C , 11-H ) :  -0.0502 
B(  1-C ,  2-C ) :   0.4285 B(  1-C ,  8-H ) :  -0.0801 B(  1-C ,  9-H ) :  -0.0872 
B(  1-C , 10-H ) :  -0.1090 B(  1-C , 11-H ) :   0.8489 B(  1-C , 12-H ) :   0.8115 
B(  1-C , 14-H ) :  -0.0899 B(  2-C ,  3-C ) :   0.4156 B(  2-C ,  4-O ) :  -0.1154 
B(  2-C , 11-H ) :  -0.0585 B(  2-C , 12-H ) :  -0.0545 B(  2-C , 13-H ) :   0.8696 
B(  2-C , 14-H ) :   0.8636 B(  3-C ,  4-O ) :   0.9311 B(  3-C ,  5-O ) :   0.3895 
B(  3-C ,  6-C ) :  -0.1960 B(  3-C , 13-H ) :  -0.1318 B(  3-C , 14-H ) :  -0.0647 
B(  4-O ,  5-O ) :  -0.2152 B(  5-O ,  6-C ) :   0.3146 B(  5-O ,  7-C ) :  -0.1103 
B(  5-O , 15-H ) :  -0.0859 B(  5-O , 16-H ) :  -0.0678 B(  6-C ,  7-C ) :   0.5366 
B(  6-C , 15-H ) :   0.7972 B(  6-C , 16-H ) :   0.8576 B(  6-C , 17-H ) :  -0.0853 
B(  6-C , 18-H ) :  -0.0677 B(  6-C , 19-H ) :  -0.0675 B(  7-C , 16-H ) :  -0.0815 
B(  7-C , 17-H ) :   0.8396 B(  7-C , 18-H ) :   0.8293 B(  7-C , 19-H ) :   0.8051 
B(  9-H , 10-H ) :  -0.0520 


                     *******************************
                     * LOEWDIN POPULATION ANALYSIS *
                     *******************************

----------------------
LOEWDIN ATOMIC CHARGES
----------------------
   0 C :   -0.425433
   1 C :   -0.287355
   2 C :   -0.227350
   3 C :    0.367861
   4 O :   -0.497670
   5 O :   -0.598330
   6 C :    0.031583
   7 C :   -0.393043
   8 H :    0.156112
   9 H :    0.154851
  10 H :    0.154609
  11 H :    0.161919
  12 H :    0.160626
  13 H :    0.183928
  14 H :    0.187225
  15 H :    0.188978
  16 H :    0.189363
  17 H :    0.162357
  18 H :    0.161948
  19 H :    0.167817

-------------------------------
LOEWDIN REDUCED ORBITAL CHARGES
-------------------------------
  0 C s       :     2.973659  s :     2.973659
      pz      :     1.144288  p :     3.388932
      px      :     1.084551
      py      :     1.160093
      dz2     :     0.010335  d :     0.062841
      dxz     :     0.014752
      dyz     :     0.012370
      dx2y2   :     0.014270
      dxy     :     0.011114

  1 C s       :     2.935214  s :     2.935214
      pz      :     1.103290  p :     3.272319
      px      :     1.037329
      py      :     1.131701
      dz2     :     0.013925  d :     0.079821
      dxz     :     0.018102
      dyz     :     0.015128
      dx2y2   :     0.019595
      dxy     :     0.013071

  2 C s       :     2.925725  s :     2.925725
      pz      :     1.089351  p :     3.228529
      px      :     1.007802
      py      :     1.131376
      dz2     :     0.012306  d :     0.073096
      dxz     :     0.018357
      dyz     :     0.014366
      dx2y2   :     0.019029
      dxy     :     0.009038

  3 C s       :     2.737428  s :     2.737428
      pz      :     0.893673  p :     2.622914
      px      :     0.931401
      py      :     0.797840
      dz2     :     0.052985  d :     0.271796
      dxz     :     0.076406
      dyz     :     0.048805
      dx2y2   :     0.042568
      dxy     :     0.051033

  4 O s       :     3.543724  s :     3.543724
      pz      :     1.490046  p :     4.733005
      px      :     1.734576
      py      :     1.508382
      dz2     :     0.049483  d :     0.220941
      dxz     :     0.055374
      dyz     :     0.058821
      dx2y2   :     0.024214
      dxy     :     0.033049

  5 O s       :     3.465315  s :     3.465315
      pz      :     1.664491  p :     4.656549
      px      :     1.363261
      py      :     1.628797
      dz2     :     0.085114  d :     0.476466
      dxz     :     0.107709
      dyz     :     0.046713
      dx2y2   :     0.108646
      dxy     :     0.128284

  6 C s       :     2.871207  s :     2.871207
      pz      :     1.054967  p :     2.978319
      px      :     0.839771
      py      :     1.083580
      dz2     :     0.029860  d :     0.118890
      dxz     :     0.023890
      dyz     :     0.007062
      dx2y2   :     0.030241
      dxy     :     0.027838

  7 C s       :     2.974296  s :     2.974296
      pz      :     1.148423  p :     3.358820
      px      :     1.106789
      py      :     1.103608
      dz2     :     0.018874  d :     0.059928
      dxz     :     0.007901
      dyz     :     0.006632
      dx2y2   :     0.014370
      dxy     :     0.012151

  8 H s       :     0.799949  s :     0.799949
      pz      :     0.015097  p :     0.043939
      px      :     0.016838
      py      :     0.012004

  9 H s       :     0.801317  s :     0.801317
      pz      :     0.022661  p :     0.043832
      px      :     0.007954
      py      :     0.013217

 10 H s       :     0.801581  s :     0.801581
      pz      :     0.008921  p :     0.043810
      px      :     0.009872
      py      :     0.025017

 11 H s       :     0.794413  s :     0.794413
      pz      :     0.022765  p :     0.043667
      px      :     0.007685
      py      :     0.013217

 12 H s       :     0.795872  s :     0.795872
      pz      :     0.008851  p :     0.043502
      px      :     0.009416
      py      :     0.025235

 13 H s       :     0.771748  s :     0.771748
      pz      :     0.022831  p :     0.044324
      px      :     0.007508
      py      :     0.013984

 14 H s       :     0.768255  s :     0.768255
      pz      :     0.008822  p :     0.044520
      px      :     0.009776
      py      :     0.025923

 15 H s       :     0.770454  s :     0.770454
      pz      :     0.008774  p :     0.040567
      px      :     0.007063
      py      :     0.024731

 16 H s       :     0.767730  s :     0.767730
      pz      :     0.028621  p :     0.042908
      px      :     0.006100
      py      :     0.008186

 17 H s       :     0.793476  s :     0.793476
      pz      :     0.009465  p :     0.044167
      px      :     0.010791
      py      :     0.023912

 18 H s       :     0.794164  s :     0.794164
      pz      :     0.028144  p :     0.043887
      px      :     0.007777
      py      :     0.007967

 19 H s       :     0.787601  s :     0.787601
      pz      :     0.010914  p :     0.044582
      px      :     0.025485
      py      :     0.008183


---------------------------------
LOEWDIN BOND ORDERS (THRESH 0.050000)
---------------------------------
B(  0-C ,  1-C ) :   1.1436 B(  0-C ,  2-C ) :   0.0742 B(  0-C ,  8-H ) :   0.9269 
B(  0-C ,  9-H ) :   0.9276 B(  0-C , 10-H ) :   0.9287 B(  1-C ,  2-C ) :   1.0707 
B(  1-C ,  3-C ) :   0.0831 B(  1-C , 11-H ) :   0.8883 B(  1-C , 12-H ) :   0.8923 
B(  2-C ,  3-C ) :   0.9299 B(  2-C ,  4-O ) :   0.1829 B(  2-C ,  5-O ) :   0.1876 
B(  2-C , 13-H ) :   0.8627 B(  2-C , 14-H ) :   0.8616 B(  3-C ,  4-O ) :   2.1338 
B(  3-C ,  5-O ) :   1.4680 B(  3-C ,  6-C ) :   0.0838 B(  4-O ,  5-O ) :   0.4550 
B(  4-O ,  6-C ) :   0.0647 B(  5-O ,  6-C ) :   1.3054 B(  5-O ,  7-C ) :   0.1571 
B(  5-O , 15-H ) :   0.0972 B(  5-O , 16-H ) :   0.0919 B(  6-C ,  7-C ) :   1.0838 
B(  6-C , 15-H ) :   0.8285 B(  6-C , 16-H ) :   0.8167 B(  7-C , 17-H ) :   0.9202 
B(  7-C , 18-H ) :   0.9230 B(  7-C , 19-H ) :   0.9151 

------------------------------------------
LOEWDIN REDUCED ORBITAL POPULATIONS PER MO
-------------------------------------------
THRESHOLD FOR PRINTING IS 0.1%%
                      0         1         2         3         4         5   
                 -19.00260 -18.94260 -10.16168 -10.08307 -10.03454 -10.02918
                   2.00000   2.00000   2.00000   2.00000   2.00000   2.00000
                  --------  --------  --------  --------  --------  --------
 1 C  s               0.0       0.0       0.0       0.0       0.0      99.7
 2 C  s               0.0       0.0       0.0       0.0      99.7       0.0
 3 C  s               0.0       0.0      98.9       0.0       0.0       0.0
 4 O  s               0.0      99.9       0.0       0.0       0.0       0.0
 4 O  pz              0.0       0.0       0.1       0.0       0.0       0.0
 4 O  dyz             0.0       0.0       0.2       0.0       0.0       0.0
 5 O  s              99.9       0.0       0.0       0.0       0.0       0.0
 5 O  dxz             0.0       0.0       0.1       0.1       0.0       0.0
 5 O  dx2y2           0.0       0.0       0.0       0.1       0.0       0.0
 5 O  dxy             0.0       0.0       0.2       0.0       0.0       0.0
 6 C  s               0.0       0.0       0.0      99.4       0.0       0.0

                      6         7         8         9        10        11   
                 -10.01833 -10.01164  -1.07852  -0.98843  -0.76841  -0.73323
                   2.00000   2.00000   2.00000   2.00000   2.00000   2.00000
                  --------  --------  --------  --------  --------  --------
 0 C  s               0.0      99.7       0.0       0.0       7.5       6.4
 0 C  pz              0.0       0.0       0.0       0.0       0.2       0.1
 0 C  px              0.0       0.0       0.0       0.0       2.1       0.7
 1 C  s               0.0       0.0       0.1       0.0      18.3       8.1
 1 C  pz              0.0       0.0       0.0       0.0       1.3       0.2
 1 C  px              0.0       0.1       0.2       0.1       0.2       0.4
 1 C  py              0.0       0.0       0.0       0.0       0.3       0.0
 2 C  s               0.0       0.0       1.0       0.2      20.7       1.2
 2 C  pz              0.0       0.0       0.4       0.3       0.8       0.2
 2 C  px              0.0       0.0       1.7       0.1       0.3       2.5
 2 C  py              0.0       0.0       0.0       0.1       0.4       0.1
 3 C  s               0.0       0.0      16.9       3.2       3.2       1.1
 3 C  pz              0.0       0.0       0.2      13.0       3.3       0.8
 3 C  px              0.0       0.0       4.3       1.0       5.6       0.6
 3 C  py              0.0       0.0       0.3       9.7       0.8       0.9
 3 C  dz2             0.0       0.0       0.0       0.6       0.0       0.0
 3 C  dxz             0.0       0.0       0.1       0.3       0.0       0.1
 3 C  dyz             0.0       0.0       0.8       0.5       0.0       0.0
 3 C  dx2y2           0.0       0.0       0.0       0.1       0.1       0.0
 3 C  dxy             0.0       0.0       0.3       0.4       0.0       0.1
 4 O  s               0.0       0.0      14.4      40.8       1.4       0.2
 4 O  pz              0.0       0.0       2.1       2.1       0.3       0.1
 4 O  px              0.0       0.0       0.0       0.2       0.2       0.0
 4 O  py              0.0       0.0       1.2       0.9       0.1       0.0
 4 O  dz2             0.0       0.0       0.2       0.0       0.1       0.1
 4 O  dxz             0.0       0.0       0.0       0.1       0.3       0.0
 4 O  dyz             0.0       0.0       1.0       0.1       0.2       0.1
 4 O  dx2y2           0.0       0.0       0.1       0.0       0.0       0.1
 4 O  dxy             0.0       0.0       0.0       0.1       0.2       0.0
 5 O  s               0.0       0.0      39.5      18.7       0.0       0.9
 5 O  pz              0.0       0.0       1.5       0.2       0.1       0.1
 5 O  px              0.0       0.0       0.2       0.5       5.9      10.2
 5 O  py              0.0       0.0       1.2       0.3       0.3       0.6
 5 O  dz2             0.0       0.0       0.0       0.1       0.1       0.1
 5 O  dxz             0.0       0.0       0.1       0.4       0.2       0.6
 5 O  dyz             0.0       0.0       0.4       0.5       0.0       0.0
 5 O  dx2y2           0.0       0.0       0.0       0.2       0.0       0.8
 5 O  dxy             0.0       0.0       0.3       0.2       0.3       0.1
 6 C  s               0.0       0.0       4.0       2.0       4.6      17.8
 6 C  pz              0.0       0.0       0.5       0.6       0.1       0.3
 6 C  px              0.0       0.0       4.6       1.4       0.1       1.6
 6 C  py              0.0       0.0       0.1       0.0       0.1       0.7
 6 C  dxz             0.0       0.0       0.1       0.1       0.0       0.0
 6 C  dx2y2           0.0       0.0       0.2       0.1       0.0       0.0
 7 C  s              99.7       0.0       0.3       0.1       2.4      17.9
 7 C  pz              0.0       0.0       0.0       0.0       0.1       0.3
 7 C  px              0.0       0.0       0.5       0.1       0.2       0.5
 7 C  py              0.0       0.0       0.2       0.1       0.3       1.1
 8 H  s               0.0       0.0       0.0       0.0       0.9       1.0
 9 H  s               0.0       0.0       0.0       0.0       1.0       1.0
10 H  s               0.0       0.0       0.0       0.0       1.0       1.0
11 H  s               0.0       0.0       0.0       0.0       2.3       1.2
11 H  pz              0.0       0.0       0.0       0.0       0.2       0.1
12 H  s               0.0       0.0       0.0       0.0       2.4       1.2
12 H  py              0.0       0.0       0.0       0.0       0.2       0.1
13 H  s               0.0       0.0       0.1       0.0       3.0       0.1
13 H  pz              0.0       0.0       0.0       0.0       0.2       0.0
14 H  s               0.0       0.0       0.0       0.0       2.8       0.2
14 H  py              0.0       0.0       0.0       0.0       0.2       0.0
15 H  s               0.0       0.0       0.2       0.2       0.8       3.2
15 H  py              0.0       0.0       0.0       0.0       0.1       0.3
16 H  s               0.0       0.0       0.3       0.1       0.6       2.8
16 H  pz              0.0       0.0       0.0       0.0       0.1       0.2
17 H  s               0.0       0.0       0.0       0.0       0.3       2.7
17 H  py              0.0       0.0       0.0       0.0       0.0       0.2
18 H  s               0.0       0.0       0.0       0.0       0.3       2.8
18 H  pz              0.0       0.0       0.0       0.0       0.0       0.2
19 H  s               0.0       0.0       0.0       0.0       0.3       2.9
19 H  px              0.0       0.0       0.0       0.0       0.0       0.2

                     12        13        14        15        16        17   
                  -0.67419  -0.61726  -0.55842  -0.52092  -0.47275  -0.46225
                   2.00000   2.00000   2.00000   2.00000   2.00000   2.00000
                  --------  --------  --------  --------  --------  --------
 0 C  s              18.8       6.2       8.6       0.0       0.3       0.0
 0 C  pz              0.1       0.0       2.9       0.2       0.7       0.2
 0 C  px              0.1       0.8       5.6       0.0       1.9       0.0
 0 C  py              0.0       0.0       0.1       0.1       0.2       0.7
 0 C  dxz             0.0       0.0       0.1       0.0       0.0       0.0
 1 C  s               2.7       0.7      15.1       0.3       0.0       0.0
 1 C  pz              0.0       0.0       5.5       0.9       5.3       0.5
 1 C  px              8.3       3.4       1.5       0.0       0.0       0.2
 1 C  py              0.6       0.3       0.7       0.5       0.1       2.3
 1 C  dxz             0.2       0.1       0.0       0.0       0.0       0.0
 2 C  s              10.4       3.7       3.0       1.3       2.2       0.0
 2 C  pz              0.1       0.0       4.0       1.4       9.8       1.2
 2 C  px              2.8       0.9       2.6       1.0       8.2       0.5
 2 C  py              0.3       0.0       2.6       0.6       0.2       6.8
 2 C  dxz             0.1       0.0       0.2       0.0       0.2       0.0
 2 C  dx2y2           0.0       0.0       0.0       0.0       0.1       0.0
 3 C  s               2.6       1.4       0.6       3.0       2.3       1.4
 3 C  pz              2.5       0.8       1.1       0.2       0.1       0.9
 3 C  px              4.2       2.7       1.7       0.5      10.6       0.3
 3 C  py              0.0       0.9       0.6       2.1       0.4       5.5
 3 C  dyz             0.0       0.0       0.0       0.0       0.0       0.1
 3 C  dx2y2           0.1       0.0       0.0       0.0       0.0       0.2
 4 O  s               0.9       0.2       0.1       2.8       1.6       9.9
 4 O  pz              0.5       0.2       0.4       1.5       3.1      21.8
 4 O  px              0.3       0.2       0.2       0.3      10.2       0.1
 4 O  py              0.1       0.1       0.0       3.5       0.6       3.6
 4 O  dz2             0.1       0.1       0.1       0.0       0.0       0.2
 4 O  dxz             0.3       0.1       0.1       0.0       0.6       0.0
 4 O  dyz             0.1       0.1       0.0       0.3       0.0       0.1
 4 O  dxy             0.1       0.0       0.0       0.0       0.5       0.0
 5 O  s               1.3       0.1       0.4       5.1       0.6       0.9
 5 O  pz              0.1       0.1       0.0       9.3       4.0       2.3
 5 O  px              1.5      14.4       0.2       7.7       0.1       8.8
 5 O  py              0.4       4.7       0.1       2.4       5.2       8.6
 5 O  dz2             0.4       0.0       0.1       0.0       0.5       0.0
 5 O  dxz             0.0       0.5       0.2       0.3       0.7       0.1
 5 O  dyz             0.0       0.1       0.0       0.0       0.1       0.1
 5 O  dx2y2           0.6       0.2       0.3       0.3       0.2       0.4
 5 O  dxy             0.1       0.2       0.4       0.3       0.7       0.0
 6 C  s               0.8       4.4       1.8       6.5       0.0       0.3
 6 C  pz              0.0       0.1       0.2      14.2       4.9       0.2
 6 C  px              2.9       3.5       0.1       3.4       0.8       3.5
 6 C  py              1.1       5.3       0.8       0.6       4.7       5.0
 6 C  dxz             0.1       0.1       0.0       0.3       0.0       0.0
 6 C  dx2y2           0.1       0.0       0.0       0.1       0.0       0.0
 7 C  s               9.3      14.5       1.0       1.5       0.0       0.0
 7 C  pz              0.0       0.1       0.2       3.8       1.4       0.1
 7 C  px              0.0       0.9       0.2       0.1       0.5       2.4
 7 C  py              0.0       1.5       0.8       2.4       1.0       0.8
 8 H  s               4.0       1.9       3.3       0.0       1.1       0.0
 8 H  pz              0.1       0.1       0.1       0.0       0.0       0.0
 8 H  px              0.2       0.1       0.0       0.0       0.0       0.0
 9 H  s               3.7       1.7       4.2       0.0       0.0       0.2
 9 H  pz              0.2       0.1       0.2       0.0       0.0       0.0
10 H  s               3.6       1.6       4.2       0.0       0.1       0.1
10 H  py              0.3       0.1       0.3       0.0       0.0       0.0
11 H  s               0.5       0.2       6.8       0.2       0.8       0.6
11 H  pz              0.0       0.0       0.3       0.0       0.0       0.0
11 H  py              0.0       0.0       0.2       0.0       0.0       0.0
12 H  s               0.5       0.2       7.2       0.4       0.1       0.4
12 H  py              0.0       0.0       0.5       0.0       0.0       0.0
13 H  s               2.3       0.6       1.7       0.8       4.5       2.0
13 H  pz              0.2       0.0       0.1       0.0       0.1       0.1
14 H  s               2.2       1.2       2.3       1.5       2.2       1.5
14 H  py              0.2       0.1       0.1       0.1       0.2       0.0
15 H  s               0.1       2.2       1.1       2.8       2.4       2.8
15 H  pz              0.0       0.0       0.0       0.1       0.0       0.0
15 H  py              0.0       0.1       0.1       0.1       0.1       0.1
16 H  s               0.1       1.1       0.7      10.0       1.8       0.2
16 H  pz              0.0       0.1       0.1       0.5       0.1       0.0
17 H  s               1.9       4.4       0.5       1.0       0.5       0.3
17 H  py              0.1       0.3       0.0       0.0       0.0       0.0
18 H  s               1.8       3.9       0.5       2.3       0.5       0.0
18 H  pz              0.2       0.3       0.0       0.1       0.0       0.0
19 H  s               2.1       4.5       0.4       0.2       0.1       0.8
19 H  px              0.2       0.3       0.0       0.0       0.0       0.0

                     18        19        20        21        22        23   
                  -0.43548  -0.42617  -0.40953  -0.38280  -0.37270  -0.35651
                   2.00000   2.00000   2.00000   2.00000   2.00000   2.00000
                  --------  --------  --------  --------  --------  --------
 0 C  s               0.0       0.0       0.1       0.0       0.0       0.0
 0 C  pz              2.6       1.7       0.4       9.0      11.4       6.0
 0 C  px              0.1       0.6       4.3       0.0       6.1       0.6
 0 C  py              0.0      11.8       2.3       5.8       0.1      12.3
 1 C  s               0.5       0.0       0.2       0.0       0.2       0.0
 1 C  pz              2.7       3.4       2.5       1.7       4.1       0.1
 1 C  px              1.8       1.0       0.9       4.3       0.2       0.5
 1 C  py              0.1      21.8       1.6       3.5       0.0       0.5
 2 C  s               0.2       0.0       0.0       0.1       0.6       0.0
 2 C  pz              0.5       2.2       1.9       7.2       3.8       5.6
 2 C  px              1.3       1.1       6.6       0.3       0.8       0.4
 2 C  py              1.6      10.1       0.1       4.6       0.0      11.9
 2 C  dz2             0.0       0.0       0.0       0.0       0.0       0.1
 2 C  dyz             0.0       0.0       0.0       0.0       0.0       0.2
 2 C  dx2y2           0.0       0.0       0.0       0.1       0.0       0.0
 3 C  s               0.1       0.3       0.3       0.0       0.0       0.1
 3 C  pz             10.9       0.7       1.3       0.6       0.4       2.2
 3 C  px              1.0       0.1       6.9       0.5       0.2       0.0
 3 C  py              6.6       1.2       0.2       2.6       2.4       1.0
 3 C  dz2             0.0       0.0       0.0       0.0       0.0       0.3
 3 C  dxz             0.1       0.0       0.0       0.1       0.1       0.0
 3 C  dyz             0.0       0.0       0.0       0.0       0.1       0.1
 3 C  dx2y2           0.0       0.0       0.1       0.1       0.1       0.1
 3 C  dxy             0.0       0.2       0.0       0.0       0.0       0.2
 4 O  s               1.6       1.1       0.9       0.3       0.1       0.5
 4 O  pz              0.1       5.8       5.4       5.0       3.8       2.6
 4 O  px              1.1       0.1       1.0       0.3       1.3       0.1
 4 O  py             14.6       0.9       2.4       0.5       2.4       4.5
 4 O  dz2             0.7       0.1       0.1       0.1       0.1       0.0
 4 O  dxz             0.0       0.0       0.1       0.0       0.0       0.1
 4 O  dyz             0.1       0.0       0.0       0.1       0.0       0.0
 4 O  dx2y2           0.2       0.0       0.1       0.0       0.1       0.0
 4 O  dxy             0.0       0.0       0.0       0.1       0.0       0.0
 5 O  s               0.0       0.4       0.0       0.3       1.8       0.3
 5 O  pz             13.6       0.4       0.1       0.2       6.9       6.5
 5 O  px              0.3       2.2       2.0       0.1       0.1       0.1
 5 O  py             13.0       1.5       0.3       3.9       0.6       1.2
 5 O  dz2             0.6       0.2       0.0       0.1       0.0       0.0
 5 O  dxz             0.3       0.0       0.3       0.3       0.0       0.0
 5 O  dyz             0.0       0.0       0.0       0.0       0.0       0.1
 5 O  dx2y2           0.0       0.1       0.1       0.7       0.5       0.1
 5 O  dxy             0.1       0.0       0.4       0.5       0.0       0.1
 6 C  s               0.8       0.1       0.0       0.3       0.0       0.0
 6 C  pz              0.8       2.2       4.4       2.8       1.3       0.2
 6 C  px              4.5       0.0       5.5       1.0       0.4       0.6
 6 C  py              0.7       0.3       8.1       4.3       0.1       1.0
 6 C  dx2y2           0.1       0.0       0.0       0.0       0.0       0.0
 7 C  s               0.7       0.1       0.0       0.2       0.0       0.0
 7 C  pz              0.3       0.7       4.2       1.5      17.9       7.7
 7 C  px              3.4       1.5       4.6      11.3       2.4       0.7
 7 C  py              4.3       0.3       8.0       3.4       0.6       0.1
 7 C  dz2             0.0       0.0       0.0       0.0       0.1       0.1
 7 C  dxy             0.1       0.0       0.0       0.1       0.0       0.0
 8 H  s               0.1       0.0       2.7       3.1       6.7       0.1
 8 H  px              0.0       0.0       0.0       0.1       0.1       0.0
 8 H  py              0.0       0.0       0.0       0.0       0.1       0.1
 9 H  s               0.7       2.7       0.1       0.9       3.4       7.2
 9 H  pz              0.0       0.1       0.0       0.0       0.0       0.2
 9 H  py              0.0       0.0       0.0       0.1       0.1       0.0
10 H  s               0.2       3.3       0.1       3.6       0.0       4.2
10 H  pz              0.0       0.0       0.0       0.0       0.1       0.1
11 H  s               1.3       5.1       0.0       0.0       0.7       0.2
11 H  pz              0.0       0.2       0.0       0.0       0.0       0.0
12 H  s               0.3       5.8       0.7       1.0       0.0       0.3
12 H  py              0.0       0.1       0.0       0.0       0.0       0.0
13 H  s               0.0       3.1       0.1       0.9       2.8       8.4
13 H  pz              0.0       0.1       0.0       0.0       0.0       0.2
14 H  s               0.1       3.1       0.6       3.4       0.2       4.1
14 H  pz              0.0       0.1       0.0       0.0       0.0       0.1
15 H  s               0.6       0.0       6.2       0.2       0.1       0.1
15 H  py              0.1       0.0       0.2       0.0       0.0       0.0
16 H  s               0.0       0.6       2.3       0.4       0.3       0.1
17 H  s               1.0       0.1       5.2       0.4       0.6       0.7
17 H  px              0.1       0.0       0.0       0.1       0.0       0.0
17 H  py              0.0       0.0       0.2       0.0       0.0       0.0
18 H  s               0.6       0.1       1.8       0.3       8.0       4.0
18 H  pz              0.0       0.0       0.1       0.0       0.2       0.1
19 H  s               1.5       0.9       0.8       6.0       4.1       0.0
19 H  px              0.0       0.0       0.0       0.1       0.1       0.0

                     24        25        26        27        28        29   
                  -0.34934  -0.33681  -0.32027  -0.30877  -0.30103  -0.29753
                   2.00000   2.00000   2.00000   2.00000   2.00000   2.00000
                  --------  --------  --------  --------  --------  --------
 0 C  s               0.0       0.1       0.5       0.1       0.0       0.0
 0 C  pz              0.2       1.6       5.3      11.6       1.0       1.7
 0 C  px              3.3       5.9      15.4       0.3       2.6       2.5
 0 C  py              3.1       7.3       1.3       0.8       5.1       6.7
 0 C  dz2             0.0       0.0       0.0       0.1       0.0       0.2
 0 C  dxz             0.1       0.0       0.1       0.1       0.1       0.0
 0 C  dyz             0.0       0.0       0.0       0.1       0.0       0.3
 0 C  dx2y2           0.0       0.1       0.1       0.2       0.0       0.0
 0 C  dxy             0.0       0.1       0.0       0.1       0.2       0.1
 1 C  s               0.1       0.0       0.2       0.3       0.1       0.0
 1 C  pz              0.4       1.0       6.3      14.0       1.4       3.2
 1 C  px              1.3       6.7      13.6       0.3       2.8       3.2
 1 C  py              0.0       0.2       0.2       1.1       7.4      14.7
 1 C  dz2             0.0       0.0       0.0       0.1       0.0       0.3
 1 C  dxz             0.0       0.1       0.1       0.1       0.2       0.0
 1 C  dyz             0.0       0.0       0.0       0.1       0.0       0.5
 1 C  dx2y2           0.0       0.0       0.3       0.2       0.0       0.1
 1 C  dxy             0.0       0.1       0.0       0.1       0.2       0.1
 2 C  s               0.3       0.1       0.2       0.8       0.2       0.0
 2 C  pz              0.0       0.4       0.0       8.4       2.4       1.0
 2 C  px              0.5       1.2       3.4       1.8       4.5       2.4
 2 C  py              0.4       5.3       0.4       2.1       3.5       4.6
 2 C  dz2             0.0       0.0       0.0       0.0       0.0       0.2
 2 C  dxz             0.0       0.0       0.1       0.0       0.1       0.0
 2 C  dyz             0.0       0.0       0.0       0.0       0.0       0.2
 2 C  dx2y2           0.0       0.0       0.2       0.1       0.0       0.2
 3 C  s               0.2       0.0       0.3       0.1       0.3       0.1
 3 C  pz              1.1       2.3       0.5       0.4       0.3       0.2
 3 C  px              0.3       0.1       3.5       0.0       0.2       0.0
 3 C  py              0.8       1.8       0.0       0.4       1.1       0.1
 3 C  dz2             0.0       0.4       0.0       0.3       0.0       0.0
 3 C  dyz             0.0       0.0       0.0       0.0       0.2       0.0
 3 C  dx2y2           0.1       0.1       0.0       0.1       0.0       0.1
 3 C  dxy             0.0       0.1       0.0       0.0       0.1       0.0
 4 O  s               0.0       0.1       0.1       0.1       0.1       0.0
 4 O  pz              3.0       1.5       0.5       0.1       3.9       0.3
 4 O  px              0.5       2.8       5.0       1.1       0.4       0.0
 4 O  py              3.4       9.8       0.9       3.1       0.1       0.0
 4 O  dxz             0.0       0.0       0.1       0.0       0.0       0.1
 4 O  dyz             0.0       0.0       0.0       0.1       0.1       0.0
 4 O  dx2y2           0.0       0.0       0.0       0.0       0.1       0.0
 5 O  s               0.2       0.5       0.0       0.4       1.1       0.6
 5 O  pz              0.0       3.1       1.2       3.8      12.0       1.2
 5 O  px              1.5       4.0       1.0       0.2       0.6       1.7
 5 O  py              1.8       2.9       0.0       1.2       0.5       2.4
 5 O  dz2             0.1       0.0       0.0       0.6       0.6       0.1
 5 O  dxz             0.2       0.2       0.1       0.2       0.2       0.1
 5 O  dx2y2           0.1       0.1       0.2       0.0       0.2       0.1
 5 O  dxy             0.4       0.4       0.0       0.2       0.3       0.4
 6 C  s               0.3       0.1       0.1       0.0       0.1       0.0
 6 C  pz              2.0       0.4       1.7       4.2       8.9       0.8
 6 C  px              0.6       3.5       2.0       0.2       0.1       0.6
 6 C  py              8.4       1.2       3.1       2.0       0.6       0.9
 6 C  dz2             0.1       0.0       0.1       0.3       0.6       0.1
 6 C  dx2y2           0.3       0.2       0.2       0.0       0.0       0.0
 7 C  s               0.2       0.1       0.0       0.0       0.1       0.0
 7 C  pz              7.4       1.0       2.3       2.8       4.9       0.3
 7 C  px              7.2      12.7       1.8       0.0       0.2       0.6
 7 C  py             18.1       0.0       3.3       1.3       0.4       0.8
 7 C  dz2             0.1       0.0       0.1       0.2       0.3       0.0
 7 C  dx2y2           0.3       0.2       0.1       0.0       0.0       0.0
 7 C  dxy             0.1       0.0       0.0       0.0       0.0       0.0
 8 H  s               2.7       0.1       1.4       5.4       4.8       0.3
 8 H  pz              0.0       0.0       0.1       0.0       0.0       0.0
 9 H  s               0.1       0.1       2.7       4.1       0.0       5.8
 9 H  px              0.0       0.0       0.2       0.0       0.0       0.0
10 H  s               0.7       6.6       0.1       1.2       2.8       5.6
10 H  px              0.1       0.0       0.1       0.0       0.1       0.0
10 H  py              0.0       0.1       0.0       0.0       0.0       0.0
11 H  s               0.0       0.1       2.5       5.4       0.1      10.5
11 H  pz              0.0       0.0       0.0       0.0       0.0       0.1
11 H  px              0.0       0.0       0.1       0.0       0.0       0.0
[...]
 2 C  dxy             0.8       0.0       0.0       0.0       0.0       0.0
 3 C  s               1.3       0.3       2.6       5.3       0.2       0.0
 3 C  pz              0.7       0.5       1.0       5.2       0.0       0.0
 3 C  px              0.4       0.5       3.7       0.2       0.0       0.0
 3 C  py              0.3       0.6       2.2       2.5       0.0       0.0
 3 C  dz2             0.7       0.1       0.6       1.7       0.0       0.0
 3 C  dxz             5.1       0.7       4.6       0.4       0.0       0.0
 3 C  dyz             1.2       0.2       1.6       4.1       0.0       0.0
 3 C  dx2y2           6.8       0.0       0.0       0.4       0.0       0.0
 3 C  dxy             0.2       1.0       5.8       0.2       0.0       0.0
 4 O  s               1.6       1.0       0.6      18.8       0.0       0.0
 4 O  pz              0.3       0.5       0.2      14.5       0.0       0.0
 4 O  px              3.8       0.1       0.3       0.5       0.0       0.0
 4 O  py              1.4       0.4       0.0       6.9       0.0       0.0
 4 O  dz2             0.9       0.5       0.0       8.3       0.0       0.0
 4 O  dxz             7.4       0.0       1.6       1.6       0.0       0.0
 4 O  dyz             1.1       1.2       0.0      20.7       0.0       0.0
 4 O  dx2y2           0.3       0.4       0.6       2.3       0.0       0.0
 4 O  dxy             5.0       0.0       0.1       0.8       0.0       0.0
 5 O  s               4.7      26.7       5.6       1.0       0.0       0.0
 5 O  pz              2.3       5.5       0.9       0.2       0.0       0.0
 5 O  px              0.1       8.0      24.1       0.5       0.0       0.0
 5 O  py              2.2       0.8       6.2       0.0       0.0       0.0
 5 O  dz2             1.5       3.7       0.8       0.1       0.0       0.0
 5 O  dxz             0.0       3.4      13.1       0.8       0.0       0.0
 5 O  dyz             3.8       0.9       4.1       0.0       0.0       0.0
 5 O  dx2y2           1.8      13.8       0.3       1.1       0.0       0.0
 5 O  dxy             0.0       2.8      11.6       0.1       0.0       0.0
 6 C  s               0.1       1.4       0.5       0.1       2.1       0.1
 6 C  pz              0.5       1.3       0.5       0.1       0.0       0.0
 6 C  px              0.2       6.2       1.6       0.3       0.0       0.0
 6 C  py              0.1       0.1       0.0       0.0       0.0       0.0
 6 C  dz2             2.1       0.9       0.4       0.0       0.0       0.0
 6 C  dxz             0.5       5.2       1.0       0.3       0.0       0.0
 6 C  dx2y2           0.1       6.8       1.5       0.3       0.0       0.0
 6 C  dxy             0.4       0.0       0.0       0.0       0.0       0.0
 7 C  s               0.1       0.0       0.0       0.0       0.9      98.2
 7 C  pz              0.5       0.1       0.0       0.0       0.0       0.0
 7 C  dz2             2.0       0.0       0.0       0.0       0.0       0.0
 7 C  dxz             0.0       0.2       0.0       0.0       0.0       0.0
 7 C  dx2y2           0.1       0.4       0.0       0.0       0.0       0.0
 8 H  pz              0.2       0.0       0.0       0.0       0.0       0.0
 9 H  px              0.1       0.0       0.0       0.0       0.0       0.0
10 H  py              0.3       0.0       0.0       0.0       0.0       0.0
12 H  s               0.8       0.0       0.0       0.0       0.0       0.0
12 H  px              0.1       0.0       0.0       0.0       0.0       0.0
12 H  py              2.1       0.0       0.0       0.0       0.0       0.0
13 H  s               0.9       0.0       0.1       0.0       0.0       0.0
13 H  pz              1.8       0.0       0.0       0.0       0.0       0.0
13 H  px              0.2       0.0       0.1       0.0       0.0       0.0
13 H  py              0.8       0.0       0.0       0.0       0.0       0.0
14 H  s               0.7       0.0       0.0       0.0       0.0       0.0
14 H  py              2.0       0.0       0.0       0.0       0.0       0.0
15 H  s               0.4       0.4       0.1       0.0       0.0       0.0
15 H  pz              0.0       0.4       0.0       0.0       0.0       0.0
15 H  py              1.0       0.8       0.1       0.0       0.0       0.0
16 H  s               0.5       0.3       0.1       0.0       0.0       0.0
16 H  pz              1.2       0.5       0.1       0.0       0.0       0.0
16 H  px              0.7       0.3       0.1       0.0       0.0       0.0
17 H  s               0.2       0.0       0.0       0.0       0.0       0.0
17 H  py              0.2       0.1       0.0       0.0       0.0       0.0
18 H  s               0.6       0.0       0.0       0.0       0.0       0.0
18 H  pz              1.4       0.0       0.0       0.0       0.0       0.0
19 H  s               0.0       0.1       0.0       0.0       0.0       0.0
19 H  px              0.0       0.2       0.0       0.0       0.0       0.0

                    216       217       218       219       220       221   
                  21.97116  22.01528  22.08645  22.25980  43.67844  43.75046
                   0.00000   0.00000   0.00000   0.00000   0.00000   0.00000
                  --------  --------  --------  --------  --------  --------
 0 C  s              38.2       7.1       1.3       0.0       0.0       0.0
 1 C  s              58.9      11.1       0.2       1.7       0.0       0.0
 2 C  s               0.5      51.0      30.8       0.4       0.0       0.0
 3 C  s               1.0       0.8       0.2      96.8       0.0       0.0
 4 O  s               0.0       0.0       0.0       0.2      98.3       1.6
 4 O  pz              0.0       0.0       0.0       0.1       0.0       0.0
 5 O  s               0.0       0.0       0.1       0.2       1.6      98.3
 6 C  s               0.8      29.6      67.0       0.0       0.0       0.0
 7 C  s               0.2       0.2       0.1       0.1       0.0       0.0



                      *****************************
                      * MAYER POPULATION ANALYSIS *
                      *****************************

  NA   - Mulliken gross atomic population
  ZA   - Total nuclear charge
  QA   - Mulliken gross atomic charge
  VA   - Mayer's total valence
  BVA  - Mayer's bonded valence
  FA   - Mayer's free valence

  ATOM       NA         ZA         QA         VA         BVA        FA
  0 C      6.5173     6.0000    -0.5173     3.7939     3.7939     0.0000
  1 C      6.2221     6.0000    -0.2221     3.6468     3.6468     0.0000
  2 C      6.3693     6.0000    -0.3693     3.8199     3.8199     0.0000
  3 C      5.5366     6.0000     0.4634     3.7142     3.7142     0.0000
  4 O      8.5223     8.0000    -0.5223     1.8750     1.8750    -0.0000
  5 O      8.2014     8.0000    -0.2014     1.9362     1.9362     0.0000
  6 C      6.1430     6.0000    -0.1430     3.6498     3.6498    -0.0000
  7 C      6.4939     6.0000    -0.4939     3.8149     3.8149     0.0000
  8 H      0.8383     1.0000     0.1617     0.9575     0.9575    -0.0000
  9 H      0.8419     1.0000     0.1581     0.9597     0.9597     0.0000
 10 H      0.8407     1.0000     0.1593     0.9596     0.9596    -0.0000
 11 H      0.8410     1.0000     0.1590     0.9580     0.9580     0.0000
 12 H      0.8447     1.0000     0.1553     0.9580     0.9580     0.0000
 13 H      0.8231     1.0000     0.1769     0.9570     0.9570     0.0000
 14 H      0.8138     1.0000     0.1862     0.9516     0.9516     0.0000
 15 H      0.8264     1.0000     0.1736     0.9469     0.9469     0.0000
 16 H      0.8283     1.0000     0.1717     0.9564     0.9564    -0.0000
 17 H      0.8316     1.0000     0.1684     0.9574     0.9574    -0.0000
 18 H      0.8345     1.0000     0.1655     0.9583     0.9583     0.0000
 19 H      0.8299     1.0000     0.1701     0.9582     0.9582     0.0000

  Mayer bond orders larger than 0.100000
B(  0-C ,  1-C ) :   0.8870 B(  0-C ,  8-H ) :   0.9695 B(  0-C ,  9-H ) :   0.9796 
B(  0-C , 10-H ) :   0.9841 B(  1-C ,  2-C ) :   0.9119 B(  1-C , 11-H ) :   0.9640 
B(  1-C , 12-H ) :   0.9556 B(  2-C ,  3-C ) :   0.9599 B(  2-C , 13-H ) :   0.9770 
B(  2-C , 14-H ) :   0.9593 B(  3-C ,  4-O ) :   1.7519 B(  3-C ,  5-O ) :   1.0733 
B(  5-O ,  6-C ) :   0.8034 B(  6-C ,  7-C ) :   0.9357 B(  6-C , 15-H ) :   0.9516 
B(  6-C , 16-H ) :   0.9634 B(  7-C , 17-H ) :   0.9692 B(  7-C , 18-H ) :   0.9694 
B(  7-C , 19-H ) :   0.9600 

-------
TIMINGS
-------

Total SCF time: 0 days 0 hours 0 min 33 sec 

Total time                  ....      33.400 sec
Sum of individual times     ....      32.881 sec  ( 98.4%)

SCF preparation             ....       0.380 sec  (  1.1%)
Fock matrix formation       ....      31.282 sec  ( 93.7%)
  Startup                   ....       0.072 sec  (  0.2% of F)
  Split-RI-J                ....       5.225 sec  ( 16.7% of F)
  XC integration            ....      19.679 sec  ( 62.9% of F)
    Basis function eval.    ....       3.615 sec  ( 18.4% of XC)
    Density eval.           ....       5.881 sec  ( 29.9% of XC)
    XC-Functional eval.     ....       2.661 sec  ( 13.5% of XC)
    XC-Potential eval.      ....       6.427 sec  ( 32.7% of XC)
  CPCM terms                ....       5.684 sec  ( 18.2% of F)
Diagonalization             ....       0.000 sec  (  0.0%)
Density matrix formation    ....       0.301 sec  (  0.9%)
Total Energy calculation    ....       0.063 sec  (  0.2%)
Population analysis         ....       0.149 sec  (  0.4%)
Orbital Transformation      ....       0.081 sec  (  0.2%)
Orbital Orthonormalization  ....       0.000 sec  (  0.0%)
DIIS solution               ....       0.570 sec  (  1.7%)
  MO trafo                  ....       0.000 sec  (  0.0 % of DIIS)
  Orb grad                  ....       0.000 sec  (  0.0 % of DIIS)
  Energy W gradient         ....       0.000 sec  (  0.0 % of DIIS)
  DIIS error                ....       0.033 sec  (  5.9 % of DIIS)
  DIIS work                 ....       0.457 sec  ( 80.1 % of DIIS)
  Form Q                    ....       0.000 sec  (  0.0 % of DIIS)
  Form QpQm                 ....       0.000 sec  (  0.0 % of DIIS)
  Exp/Cayley                ....       0.000 sec  (  0.0 % of DIIS)
  Orb update                ....       0.000 sec  (  0.0 % of DIIS)
  Wake-sleep                ....       0.030 sec  (  5.3 % of DIIS)
SOSCF solution              ....       0.056 sec  (  0.2%)
  MO trafo                  ....       0.042 sec  ( 74.9 % of SOSCF)
  Orb grad                  ....       0.001 sec  (  1.6 % of SOSCF)
  Rot update                ....       0.000 sec  (  0.1 % of SOSCF)
  Step                      ....       0.013 sec  ( 23.2 % of SOSCF)
Finished LeanSCF after  33.5 sec

Maximum memory used throughout the entire LEANSCF-calculation: 30.0 MB


-------------------------------------------------------------------------------
                          DFT DISPERSION CORRECTION                            
                                                                               
                                DFTD4 V3.4.0                                   
-------------------------------------------------------------------------------
The R2SCAN3C composite method is recognized
Using three-body term ABC
Active option DFTDOPT                   ...         5   

-------------------------   ----------------
Dispersion correction           -0.004928731
-------------------------   ----------------

------------------   -----------------
gCP correction             0.011688957
------------------   -----------------

-------------------------   --------------------
FINAL SINGLE POINT ENERGY      -386.240713247651
-------------------------   --------------------


------------------------------------------------------------------------------
                              ORCA PROPERTY CALCULATIONS
------------------------------------------------------------------------------

GBWName                                 ... sp_solv.gbw
Number of atoms                         ...     20
Number of basis functions               ...    222
Max core memory                         ...   1024 MB

Electric properties:
Dipole moment                           ... YES
Quadrupole moment                       ...  NO
Static polarizability (Dipole/Dipole)   ...  NO
Static polarizability (Dipole/Quad.)    ...  NO
Static polarizability (Quad./Quad.)     ...  NO
Static polarizability (Velocity)        ...  NO

Atomic electric properties:
Dipole moment                           ...  NO
Quadrupole moment                       ...  NO
Static polarizability                   ...  NO

Choice of electric origin               ... Center of mass
Position of electric origin             ...    -0.000014    -0.000005     0.000009

General magnetic properties:
Magnetizability                         ...  NO

EPR properties:
g-Tensor (aka g-matrix)                 ...  NO
Zero-Field splitting spin-orbit         ...  NO
Zero-field splitting spin-spin          ...  NO
Hyperfine couplings                     ...  NO (   0 nuclei)
Quadrupole couplings                    ...  NO (   0 nuclei)
Contact density                         ...  NO (   0 nuclei)

NMR properties:
Chemical shifts                         ...  NO (   0 nuclei)
Spin-rotation constants                 ...  NO (   0 nuclei)
Spin-spin couplings                     ...  NO (   0 nuclei,    0 pairs)

Choice of magnetic origin               ... GIAO
Position of magnetic origin             ...     0.000000     0.000000     0.000000

Properties with geometric perturbations:
SCF Hessian                             ...  NO
IR spectrum                             ...  NO
VCD spectrum                            ...  NO
X-ray spectroscopy properties:
SCF XES/XAS/RIXS spectra                ...  NO


-------------
DIPOLE MOMENT
-------------

Method             : SCF
Type of density    : Electron Density
Multiplicity       :   1
Irrep              :   0
Energy             :  -386.2474734738966617 Eh
Relativity type    : 
Basis              : AO
                                X                 Y                 Z
Electronic contribution:      3.513945367       0.731755245      -1.539240880
Nuclear contribution   :     -3.321798161      -1.445454950       2.348243735
                        -----------------------------------------
Total Dipole Moment    :      0.192147205      -0.713699706       0.809002855
                        -----------------------------------------
Magnitude (a.u.)       :      1.095798082
Magnitude (Debye)      :      2.785297374



--------------------
Rotational spectrum 
--------------------
 
Rotational constants in cm-1:             0.202004             0.028726             0.027416 
Rotational constants in MHz :          6055.929452           861.193869           821.916075 

Dipole components along the rotational axes: 
x,y,z [a.u.] :     0.115459    -1.089587     0.015598 
x,y,z [Debye]:     0.293475    -2.769509     0.039648 

 

Dipole moment calculation done in   0.0 sec 

Maximum memory used throughout the entire PROP-calculation: 13.6 MB

--------------------------------
SUGGESTED CITATIONS FOR THIS RUN
--------------------------------

Below you find a list of papers that are relevant to this ORCA run
We neither can nor want to force you to cite these papers, but we appreciate if you do
You receive ORCA, which is the product of decades of hard work by many enthusiastic individuals, for free
The only thing we kindly ask in return is that you cite our papers,
We deeply appreciate it, if you show your appreciation for ORCA by not just citing the generic ORCA reference.

Please note that relegating all ORCA citations to the supporting information does *not* help us.
SI sections are not indexed - citations you put there will not count into any citation statistics
But we need these citations in order to attract the funding resources that allow us to do what we are doing

Therefore, if you are a happy ORCA user, please consider citing a few of the papers listed below in the main body of your paper

In addition to the list printed below, the program has created the file sp_solv.bibtex that contains the list in bibtex format
You can import this file easily into all common literature databanks and citation aid programs


List of essential papers. We consider these as the minimum necessary citations

  1. Neese,F.
     Software update: the ORCA program system, version 5.0
     WIRES Comput. Molec. Sci., 2022 12(1)e1606
     doi.org/10.1002/wcms.1606
  2. Grimme,S.; Hansen,A.; Ehlert,S.; Mewes,J.
     r2SCAN-3c: A 'Swiss army knife' composite electronic-structure method
     J. Chem. Phys., 2021 154 064103
     doi.org/10.1063/5.0040021

List of papers to cite with high priority. The work reported in these papers was absolutely
necessary for this run to complete.
Our perspective: the developers of density functionals and basis sets usually get cited in chemistry papers
Good! But without the algorithms to do something with them, the functionals or basis sets would not do anything.
Hence, in our opinion, the algorithm design and method developments papers are equally worthy of getting cited

  1. Neese,F.
     An improvement of the resolution of the identity approximation for the formation of the Coulomb matrix
     J. Comp. Chem., 2003 24(14)1740-1747
     doi.org/10.1002/jcc.10318
  2. Garcia-Rates,M.; Neese,F.
     Effect of the Solute Cavity on the Solvation Energy and its Derivatives within the Framework of the Gaussian Charge Scheme
     J. Comput. Chem., 2020 41 922-939
     doi.org/10.1002/jcc.26139
  3. Neese,F.
     The SHARK Integral Generation and Digestion System
     J. Comp. Chem., 2022  1-16
     doi.org/10.1002/jcc.26942
  4. Lehtola,S.; Steigemann,C.; Oliveira,M.; Marques,M.
     Recent developments in Libxc - A comprehensive library of functionals for density functional theory
     Software X, 2018 7 
     doi.org/10.1016/j.softx.2017.11.002
  5. Caldeweyher,E.; Bannwarth,C.; Grimme,S.
     Extension of the D3 dispersion coefficient model
     J. Chem. Phys., 2017 147 034112-XXXX
     doi.org/10.1063/1.4993215
  6. Caldeweyher,E.; Ehlert,S.; Hansen,A.; Neugebauer,H.; Spicher,S.; Bannwarth,C.; Grimme,S.
     A generally applicable atomic-charge dependent London dispersion correction
     J. Chem. Phys., 2019 150 154122-XXXX
     doi.org/10.1063/1.5090222
  7. Caldeweyher,E.; Mewes,J.; Ehlert,S.; Grimme,S.
     Extension and evaluation of the D4 London-dispersion model for periodic systems
     Phys. Chem. Chem. Phys., 2020 22(16)8499-8512
     doi.org/10.1039/D0CP00502A

List of suggested additional citations. These are papers that are important in the 'surrounding' of 
of this run, or papers that preceded the highly important papers. If you like your results we are grateful for a citation.

  1. Neese,F.
     The ORCA program system
     WIRES Comput. Molec. Sci., 2012 2(1)73-78
     doi.org/10.1002/wcms.81
  2. Neese,F.
     Software update: the ORCA program system, version 4.0
     WIRES Comput. Molec. Sci., 2018 8(1)1-6
     doi.org/10.1002/wcms.1327
  3. Neese,F.; Wennmohs,F.; Becker,U.; Riplinger,C.
     The ORCA quantum chemistry program package
     J. Chem. Phys., 2020 152 Art. No. L224108
     doi.org/10.1063/5.0004608

List of optional additional citations

  1. Neese,F.
     Approximate second-order SCF convergence for spin unrestricted wavefunctions
     Chem. Phys. Lett., 2000 325(1-3)93-98
     doi.org/10.1016/s0009-2614(00)00662-x

Timings for individual modules:

Sum of individual times          ...       35.426 sec (=   0.590 min)
Startup calculation              ...        1.401 sec (=   0.023 min)   4.0 %
SCF iterations                   ...       33.895 sec (=   0.565 min)  95.7 %
Property calculations            ...        0.130 sec (=   0.002 min)   0.4 %
                             ****ORCA TERMINATED NORMALLY****
TOTAL RUN TIME: 0 days 0 hours 0 minutes 36 seconds 244 msec
