
                                 *****************
                                 * O   R   C   A *
                                 *****************

                                            #,                                       
                                            ###                                      
                                            ####                                     
                                            #####                                    
                                            ######                                   
                                           ########,                                 
                                     ,,################,,,,,                         
                               ,,#################################,,                 
                          ,,##########################################,,             
                       ,#########################################, ''#####,          
                    ,#############################################,,   '####,        
                  ,##################################################,,,,####,       
                ,###########''''           ''''###############################       
              ,#####''   ,,,,##########,,,,          '''####'''          '####       
            ,##' ,,,,###########################,,,                        '##       
           ' ,,###''''                  '''############,,,                           
         ,,##''                                '''############,,,,        ,,,,,,###''
      ,#''                                            '''#######################'''  
     '                                                          ''''####''''         
             ,#######,   #######,   ,#######,      ##                                
            ,#'     '#,  ##    ##  ,#'     '#,    #''#        ,####,   ,####,        
            ##       ##  ##   ,#'  ##            #'  '#       #'       #'  '#        
            ##       ##  #######   ##           ,######,      #####,   #    #        
            '#,     ,#'  ##    ##  '#,     ,#' ,#      #,     #,   #   #,  ,#        
             '#######'   ##     ##  '#######'  #'      '#     '####' # '####'        



                #########################################################
                #                        -***-                          #
                #          Department of theory and spectroscopy        #
                #                                                       #
                #                      Frank Neese                      #
                #                                                       #
                #     Directorship, Architecture, Infrastructure        #
                #                    SHARK, DRIVERS                     #
                #        Core code/Algorithms in most modules           #
                #                                                       #
                #        Max Planck Institute fuer Kohlenforschung      #
                #                Kaiser Wilhelm Platz 1                 #
                #                 D-45470 Muelheim/Ruhr                 #
                #                      Germany                          #
                #                                                       #
                #                  All rights reserved                  #
                #                        -***-                          #
                #########################################################


                         Program Version 6.0.0  -   RELEASE  -


 With contributions from (in alphabetic order):
   Daniel Aravena         : Magnetic Suceptibility
   Michael Atanasov       : Ab Initio Ligand Field Theory (pilot matlab implementation)
   Alexander A. Auer      : GIAO ZORA, VPT2 properties, NMR spectrum
   Ute Becker             : All parallelization in ORCA, NUMFREQ, NUMCALC
   Giovanni Bistoni       : ED, misc. LED, open-shell LED, HFLD
   Martin Brehm           : Molecular dynamics
   Dmytro Bykov           : pre 5.0 version of the SCF Hessian
   Marcos Casanova-Páez   : Triplet and SCS-CIS(D). UHF-(DLPNO)-IP/EA/STEOM-CCSD. UHF-CVS-IP/STEOM-CCSD
   Vijay G. Chilkuri      : MRCI spin determinant printing, contributions to CSF-ICE
   Pauline Colinet        : FMM embedding
   Dipayan Datta          : RHF DLPNO-CCSD density
   Achintya Kumar Dutta   : EOM-CC, STEOM-CC
   Nicolas Foglia         : Exact transition moments, OPA infrastructure, MCD improvements
   Dmitry Ganyushin       : Spin-Orbit,Spin-Spin,Magnetic field MRCI
   Miquel Garcia          : C-PCM and meta-GGA Hessian, CCSD/C-PCM, Gaussian charge scheme
   Tiago L. C. Gouveia    : GS-ROHF, GS-ROCIS
   Yang Guo               : DLPNO-NEVPT2, F12-NEVPT2, CIM, IAO-localization
   Andreas Hansen         : Spin unrestricted coupled pair/coupled cluster methods
   Ingolf Harden          : AUTO-CI MPn and infrastructure 
   Benjamin Helmich-Paris : MC-RPA, TRAH-(SCF,CASSCF), AVAS, COSX integrals, SCF dyn. polar.
   Lee Huntington         : MR-EOM, pCC
   Robert Izsak           : Overlap fitted RIJCOSX, COSX-SCS-MP3, EOM
   Riya Kayal             : Wick's Theorem for AUTO-CI, AUTO-CI UHF-CCSDT
   Emily Kempfer          : AUTO-CI, RHF CISDT and CCSDT
   Christian Kollmar      : KDIIS, OOCD, Brueckner-CCSD(T), CCSD density, CASPT2, CASPT2-K, improved NEVPT2
   Axel Koslowski         : Symmetry handling
   Simone Kossmann        : Meta GGA functionals, TD-DFT gradient, OOMP2, (MP2 Hessian; deprecated post 5.0)
   Lucas Lang             : DCDCAS
   Marvin Lechner         : AUTO-CI (C++ implementation), FIC-MRCC
   Spencer Leger          : CASSCF response
   Dagmar Lenk            : GEPOL surface, SMD, ORCA-2-JSON
   Dimitrios Liakos       : Extrapolation schemes; Compound Job, initial MDCI parallelization
   Dimitrios Manganas     : Further ROCIS development; embedding schemes. LFT, Crystal Embedding
   Dimitrios Pantazis     : SARC Basis sets
   Anastasios Papadopoulos: AUTO-CI, single reference methods and gradients
   Taras Petrenko         : pre 6.0 DFT Hessian and TD-DFT gradient, (ASA, deprecated), ECA, 1-Electron XAS/XES, NRVS
   Peter Pinski           : DLPNO-MP2, DLPNO-MP2 Gradient
   Christoph Reimann      : Effective Core Potentials
   Marius Retegan         : Local ZFS, SOC
   Christoph Riplinger    : Optimizer, TS searches, QM/MM, DLPNO-CCSD(T), (RO)-DLPNO pert. Triples
   Michael Roemelt        : Original ROCIS implementation
   Masaaki Saitow         : Open-shell DLPNO-CCSD energy and density
   Barbara Sandhoefer     : DKH picture change effects
   Kantharuban Sivalingam : CASSCF convergence/infrastructure, NEVPT2 and variants, FIC-MRCI
   Bernardo de Souza      : ESD, SOC TD-DFT
   Georgi Stoychev        : AutoAux, RI-MP2 NMR, DLPNO-MP2 response, X2C
   Van Anh Tran           : RI-MP2 g-tensors
   Willem Van den Heuvel  : Paramagnetic NMR
   Zikuan Wang            : NOTCH, Electric field optimization 
   Frank Wennmohs         : Technical directorship and infrastructure
   Hang Xu                : AUTO-CI-Response properties 


 We gratefully acknowledge several colleagues who have allowed us to
 interface, adapt or use parts of their codes:
   Stefan Grimme, W. Hujo, H. Kruse, P. Pracht,  : VdW corrections, initial TS optimization,
                  C. Bannwarth, S. Ehlert,         DFT functionals, gCP, sTDA/sTD-DF
                  L. Wittmann, M. Mueller
   Ed Valeev, F. Pavosevic, A. Kumar             : LibInt (2-el integral package), F12 methods
   Garnet Chan, S. Sharma, J. Yang, R. Olivares  : DMRG
   Ulf Ekstrom                                   : XCFun DFT Library
   Mihaly Kallay                                 : mrcc  (arbitrary order and MRCC methods)
   Frank Weinhold                                : gennbo (NPA and NBO analysis)
   Simon Mueller                                 : openCOSMO-RS
   Christopher J. Cramer and Donald G. Truhlar   : smd solvation model
   Lars Goerigk                                  : TD-DFT with DH, B97 family of functionals
   V. Asgeirsson, H. Jonsson                     : NEB implementation
   FAccTs GmbH                                   : IRC, NEB, NEB-TS, DLPNO-Multilevel, CI-OPT
                                                   MM, QMMM, 2- and 3-layer-ONIOM, Crystal-QMMM,
                                                   LR-CPCM, SF, NACMEs, symmetry and pop. for TD-DFT,
                                                   nearIR, NL-DFT gradient (VV10), updates on ESD,
                                                   ML-optimized integration grids, MBIS, APM,
                                                   GOAT, DOCKER, SOLVATOR, interface openCOSMO-RS
   S Lehtola, MJT Oliveira, MAL Marques          : LibXC Library
   Liviu Ungur et al                             : ANISO software


 Your calculation uses the libint2 library for the computation of 2-el integrals
 For citations please refer to: http://libint.valeyev.net

 Your ORCA version has been built with support for libXC version: 6.2.2
 For citations please refer to: https://libxc.gitlab.io

 This ORCA versions uses:
   CBLAS   interface :  Fast vector & matrix operations
   LAPACKE interface :  Fast linear algebra routines
   SCALAPACK package :  Parallel linear algebra routines
   Shared memory     :  Shared parallel matrices
   BLAS/LAPACK       :  OpenBLAS 0.3.27  USE64BITINT DYNAMIC_ARCH NO_AFFINITY SkylakeX SINGLE_THREADED
        Core in use  :  SkylakeX
   Copyright (c) 2011-2014, The OpenBLAS Project


Your calculation utilizes the geometrical counterpoise correction gCP
Please cite in your paper:
H.Kruse, S. Grimme J.Chem.Phys., 136, (2012), 154101 
   

Your calculation utilizes the atom-pairwise dispersion correction
based on EEQ partial charges (D4)


Your calculation utilizes the SMD solvation module
Please cite in your paper:
A.V. Marenich, C.J. Cramer, D.G. Truhlar J. Phys. Chem. B, 113, (2009), 6378 

================================================================================

----- Orbital basis set information -----
Your calculation utilizes the basis: def2-mTZVPP
   Stefan Grimme, Andreas Hansen, Sebastian Ehlert, and Jan-Michael Mewes 
   J. Chem. Phys. 154, 064103 (2021). DOI: 10.1063/5.0040021

----- AuxJ basis set information -----
Your calculation utilizes the auxiliary basis: def2/J
   F. Weigend, Phys. Chem. Chem. Phys. 8, 1057 (2006).

================================================================================
                                        WARNINGS
                       Please study these warnings very carefully!
================================================================================

Using LibXC functional ID 497 : Re-regularized SCAN exchange by Furness et al
[ 1]  J. W. Furness, A. D. Kaplan, J. Ning, J. P. Perdew, and J. Sun.,  J. Phys. Chem. Lett. 11, 8208-8215 (2020)
[ 2]  J. W. Furness, A. D. Kaplan, J. Ning, J. P. Perdew, and J. Sun.,  J. Phys. Chem. Lett. 11, 9248-9248 (2020)
Using LibXC functional ID 498 : Re-regularized SCAN correlation by Furness et al
[ 1]  J. W. Furness, A. D. Kaplan, J. Ning, J. P. Perdew, and J. Sun.,  J. Phys. Chem. Lett. 11, 8208-8215 (2020)
[ 2]  J. W. Furness, A. D. Kaplan, J. Ning, J. P. Perdew, and J. Sun.,  J. Phys. Chem. Lett. 11, 9248-9248 (2020)
Using LibXC functional ID 497 : Re-regularized SCAN exchange by Furness et al
[ 1]  J. W. Furness, A. D. Kaplan, J. Ning, J. P. Perdew, and J. Sun.,  J. Phys. Chem. Lett. 11, 8208-8215 (2020)
[ 2]  J. W. Furness, A. D. Kaplan, J. Ning, J. P. Perdew, and J. Sun.,  J. Phys. Chem. Lett. 11, 9248-9248 (2020)
Using LibXC functional ID 498 : Re-regularized SCAN correlation by Furness et al
[ 1]  J. W. Furness, A. D. Kaplan, J. Ning, J. P. Perdew, and J. Sun.,  J. Phys. Chem. Lett. 11, 8208-8215 (2020)
[ 2]  J. W. Furness, A. D. Kaplan, J. Ning, J. P. Perdew, and J. Sun.,  J. Phys. Chem. Lett. 11, 9248-9248 (2020)

================================================================================
                                       INPUT FILE
================================================================================
NAME = sp_solv.inp
|  1> ! r2scan-3c def2/J RI DEFGRID2 scfconv6 printgap
|  2> %output
|  3>     printlevel normal
|  4> end
|  5> %cpcm
|  6>     smd true
|  7>     smdsolvent "water"
|  8> end
|  9> * xyz 0 1
| 10> C -2.8303247843 -1.1062265154 -0.1168616604
| 11> C -2.5178084868 0.3845037851 -0.0637993202
| 12> C -1.2195035918 0.6626304964 0.6930226772
| 13> C -0.0063267259 0.1815861352 -0.061697768
| 14> O 0.0931430067 0.1266418713 -1.2689472997
| 15> O 0.9672237224 -0.1714721264 0.7723250219
| 16> C 2.2220937005 -0.5994397057 0.2170189935
| 17> C 3.1159939087 0.5878569175 -0.1067921827
| 18> H -2.9205017209 -1.5153219271 0.8867191562
| 19> H -3.7631766137 -1.2791970655 -0.6465831801
| 20> H -2.0375718551 -1.6387249745 -0.6385371796
| 21> H -3.3347761722 0.9124640494 0.4285895869
| 22> H -2.4195745264 0.7707601007 -1.0798997625
| 23> H -1.220968832 0.1940704096 1.6770476342
| 24> H -1.0929287285 1.739288167 0.8294642473
| 25> H 2.6623108336 -1.2290528204 0.990628869
| 26> H 2.0222793116 -1.1873062181 -0.6841198374
| 27> H 4.0783530379 0.2286014266 -0.4563412453
| 28> H 2.6612497061 1.1943734973 -0.8869333197
| 29> H 3.2608060519 1.1999687653 0.7792901641
| 30> *
| 31> 
| 32>                          ****END OF INPUT****
================================================================================

                       ****************************
                       * Single Point Calculation *
                       ****************************

---------------------------------
CARTESIAN COORDINATES (ANGSTROEM)
---------------------------------
  C     -2.830325   -1.106227   -0.116862
  C     -2.517808    0.384504   -0.063799
  C     -1.219504    0.662630    0.693023
  C     -0.006327    0.181586   -0.061698
  O      0.093143    0.126642   -1.268947
  O      0.967224   -0.171472    0.772325
  C      2.222094   -0.599440    0.217019
  C      3.115994    0.587857   -0.106792
  H     -2.920502   -1.515322    0.886719
  H     -3.763177   -1.279197   -0.646583
  H     -2.037572   -1.638725   -0.638537
  H     -3.334776    0.912464    0.428590
  H     -2.419575    0.770760   -1.079900
  H     -1.220969    0.194070    1.677048
  H     -1.092929    1.739288    0.829464
  H      2.662311   -1.229053    0.990629
  H      2.022279   -1.187306   -0.684120
  H      4.078353    0.228601   -0.456341
  H      2.661250    1.194373   -0.886933
  H      3.260806    1.199969    0.779290

----------------------------
CARTESIAN COORDINATES (A.U.)
----------------------------
  NO LB      ZA    FRAG     MASS         X           Y           Z
   0 C     6.0000    0    12.011   -5.348539   -2.090465   -0.220837
   1 C     6.0000    0    12.011   -4.757968    0.726607   -0.120563
   2 C     6.0000    0    12.011   -2.304528    1.252190    1.309623
   3 C     6.0000    0    12.011   -0.011956    0.343148   -0.116592
   4 O     8.0000    0    15.999    0.176015    0.239318   -2.397963
   5 O     8.0000    0    15.999    1.827788   -0.324035    1.459483
   6 C     6.0000    0    12.011    4.199149   -1.132777    0.410106
   7 C     6.0000    0    12.011    5.888375    1.110889   -0.201808
   8 H     1.0000    0     1.008   -5.518948   -2.863543    1.675656
   9 H     1.0000    0     1.008   -7.111373   -2.417332   -1.221865
  10 H     1.0000    0     1.008   -3.850453   -3.096741   -1.206660
  11 H     1.0000    0     1.008   -6.301814    1.724307    0.809917
  12 H     1.0000    0     1.008   -4.572333    1.456526   -2.040715
  13 H     1.0000    0     1.008   -2.307297    0.366740    3.169161
  14 H     1.0000    0     1.008   -2.065336    3.286778    1.567460
  15 H     1.0000    0     1.008    5.031038   -2.322573    1.872017
  16 H     1.0000    0     1.008    3.821554   -2.243684   -1.292799
  17 H     1.0000    0     1.008    7.706970    0.431994   -0.862360
  18 H     1.0000    0     1.008    5.029033    2.257039   -1.676061
  19 H     1.0000    0     1.008    6.162030    2.267612    1.472645

--------------------------------
INTERNAL COORDINATES (ANGSTROEM)
--------------------------------
 C      0   0   0     0.000000000000     0.00000000     0.00000000
 C      1   0   0     1.524059997828     0.00000000     0.00000000
 C      2   1   0     1.528309393961   111.68107008     0.00000000
 C      3   2   1     1.507582414265   112.18732835    69.30776186
 O      4   3   2     1.212585886290   125.37203390    30.55497405
 O      4   3   2     1.329678391771   111.09454689   209.97444353
 C      6   4   3     1.437435110204   118.41928077   182.72873369
 C      7   6   4     1.521047182540   111.27759803    84.17260762
 H      1   2   3     1.087504202850   110.66022261    58.95289572
 H      1   2   3     1.086616876019   110.40858729   179.20704145
 H      1   2   3     1.088189856152   110.23973074   298.81466341
 H      2   1   3     1.090240833716   109.61735684   239.15195049
 H      2   1   3     1.091468717444   109.40178997   120.35020429
 H      3   2   1     1.089887984093   111.57522978   307.42874632
 H      3   2   1     1.092624930034   109.85084634   187.53666027
 H      7   6   4     1.090264205570   104.49575134   204.48755761
 H      7   6   4     1.094332682034   108.58160347   322.25648252
 H      8   7   6     1.085073337826   109.35155335   175.99463657
 H      8   7   6     1.087784374318   110.01256071   295.58300201
 H      8   7   6     1.086643178024   110.14687260    55.82720653

---------------------------
INTERNAL COORDINATES (A.U.)
---------------------------
 C      0   0   0     0.000000000000     0.00000000     0.00000000
 C      1   0   0     2.880056007560     0.00000000     0.00000000
 C      2   1   0     2.888086202485   111.68107008     0.00000000
 C      3   2   1     2.848917887276   112.18732835    69.30776186
 O      4   3   2     2.291455238946   125.37203390    30.55497405
 O      4   3   2     2.512728006639   111.09454689   209.97444353
 C      6   4   3     2.716358693568   118.41928077   182.72873369
 C      7   6   4     2.874362611774   111.27759803    84.17260762
 H      1   2   3     2.055085112875   110.66022261    58.95289572
 H      1   2   3     2.053408308174   110.40858729   179.20704145
 H      1   2   3     2.056380809838   110.23973074   298.81466341
 H      2   1   3     2.060256595742   109.61735684   239.15195049
 H      2   1   3     2.062576959712   109.40178997   120.35020429
 H      3   2   1     2.059589806587   111.57522978   307.42874632
 H      3   2   1     2.064761884860   109.85084634   187.53666027
 H      7   6   4     2.060300762145   104.49575134   204.48755761
 H      7   6   4     2.067989068445   108.58160347   322.25648252
 H      8   7   6     2.050491443711   109.35155335   175.99463657
 H      8   7   6     2.055614560220   110.01256071   295.58300201
 H      8   7   6     2.053458011759   110.14687260    55.82720653

---------------------
BASIS SET INFORMATION
---------------------
There are 3 groups of distinct atoms

 Group   1 Type C   : 11s6p1d contracted to 5s3p1d pattern {62111/411/1}
 Group   2 Type O   : 11s6p2d contracted to 5s3p2d pattern {62111/411/11}
 Group   3 Type H   : 4s1p contracted to 2s1p pattern {31/1}

Atom   0C    basis set group =>   1
Atom   1C    basis set group =>   1
Atom   2C    basis set group =>   1
Atom   3C    basis set group =>   1
Atom   4O    basis set group =>   2
Atom   5O    basis set group =>   2
Atom   6C    basis set group =>   1
Atom   7C    basis set group =>   1
Atom   8H    basis set group =>   3
Atom   9H    basis set group =>   3
Atom  10H    basis set group =>   3
Atom  11H    basis set group =>   3
Atom  12H    basis set group =>   3
Atom  13H    basis set group =>   3
Atom  14H    basis set group =>   3
Atom  15H    basis set group =>   3
Atom  16H    basis set group =>   3
Atom  17H    basis set group =>   3
Atom  18H    basis set group =>   3
Atom  19H    basis set group =>   3
---------------------------------
AUXILIARY/J BASIS SET INFORMATION
---------------------------------
There are 3 groups of distinct atoms

 Group   1 Type C   : 12s5p4d2f1g contracted to 6s4p3d1f1g pattern {711111/2111/211/2/1}
 Group   2 Type O   : 12s5p4d2f1g contracted to 6s4p3d1f1g pattern {711111/2111/211/2/1}
 Group   3 Type H   : 5s2p1d contracted to 3s1p1d pattern {311/2/1}

Atom   0C    basis set group =>   1
Atom   1C    basis set group =>   1
Atom   2C    basis set group =>   1
Atom   3C    basis set group =>   1
Atom   4O    basis set group =>   2
Atom   5O    basis set group =>   2
Atom   6C    basis set group =>   1
Atom   7C    basis set group =>   1
Atom   8H    basis set group =>   3
Atom   9H    basis set group =>   3
Atom  10H    basis set group =>   3
Atom  11H    basis set group =>   3
Atom  12H    basis set group =>   3
Atom  13H    basis set group =>   3
Atom  14H    basis set group =>   3
Atom  15H    basis set group =>   3
Atom  16H    basis set group =>   3
Atom  17H    basis set group =>   3
Atom  18H    basis set group =>   3
Atom  19H    basis set group =>   3

Checking for AutoStart:
The File: sp_solv.gbw exists
Trying to determine its content:
     ... Fine, the file contains calculation information
     ... Fine, the calculation information was read
     ... Fine, the file contains a basis set
     ... Fine, the basis set was read
     ... Fine, the file contains a geometry
     ... Fine, the geometry was read
     ... Fine, the file contains a set of orbitals
     ... Fine, the orbitals can be read
     => possible old guess file was deleted
     => GBW file was renamed to GES file
     => GES file is set as startup file
     => Guess is set to MORead
     ... now leaving AutoStart

------------------------------------------------------------------------------
                             ORCA STARTUP CALCULATIONS
                           -- RI-GTO INTEGRALS CHOSEN --
------------------------------------------------------------------------------
------------------------------------------------------------------------------
                   ___                                                        
                  /   \      - P O W E R E D   B Y -                         
                 /     \                                                     
                 |  |  |   _    _      __       _____    __    __             
                 |  |  |  | |  | |    /  \     |  _  \  |  |  /  |          
                  \  \/   | |  | |   /    \    | | | |  |  | /  /          
                 / \  \   | |__| |  /  /\  \   | |_| |  |  |/  /          
                |  |  |   |  __  | /  /__\  \  |    /   |      \           
                |  |  |   | |  | | |   __   |  |    \   |  |\   \          
                \     /   | |  | | |  |  |  |  | |\  \  |  | \   \       
                 \___/    |_|  |_| |__|  |__|  |_| \__\ |__|  \__/        
                                                                              
                      - O R C A' S   B I G   F R I E N D -                    
                                      &                                       
                       - I N T E G R A L  F E E D E R -                       
                                                                              
 v1 FN, 2020, v2 2021, v3 2022-2024                                           
------------------------------------------------------------------------------


----------------------
SHARK INTEGRAL PACKAGE
----------------------

Number of atoms                             ...     20
Number of basis functions                   ...    222
Number of shells                            ...    110
Maximum angular momentum                    ...      2
Integral batch strategy                     ... SHARK/LIBINT Hybrid
RI-J (if used) integral strategy            ... SPLIT-RIJ (Revised 2003 algorithm where possible)
Printlevel                                  ...      1
Contraction scheme used                     ... SEGMENTED contraction
Prescreening option                         ... SCHWARTZ
   Thresh                                   ... 1.000e-10
   Tcut                                     ... 1.000e-11
   Tpresel                                  ... 1.000e-11 
Coulomb Range Separation                    ... NOT USED
Exchange Range Separation                   ... NOT USED
Multipole approximations                    ... NOT USED
Finite Nucleus Model                        ... NOT USED
CABS basis                                  ... NOT available
Auxiliary Coulomb fitting basis             ... AVAILABLE
   # of basis functions in Aux-J            ...    524
   # of shells in Aux-J                     ...    180
   Maximum angular momentum in Aux-J        ...      4
Auxiliary J/K fitting basis                 ... NOT available
Auxiliary Correlation fitting basis         ... NOT available
Auxiliary 'external' fitting basis          ... NOT available

Checking pre-screening integrals            ... done (  0.0 sec) Dimension = 110
Check shell pair data                       ... done (  0.0 sec)
Shell pair information
Shell pair cut-off parameter TPreSel        ...   1.0e-11
Total number of shell pairs                 ...      6105
Shell pairs after pre-screening             ...      5285
Total number of primitive shell pairs       ...     21533
Primitive shell pairs kept                  ...     13167
          la=0 lb=0:   1772 shell pairs
          la=1 lb=0:   1991 shell pairs
          la=1 lb=1:    579 shell pairs
          la=2 lb=0:    571 shell pairs
          la=2 lb=1:    321 shell pairs
          la=2 lb=2:     51 shell pairs

Calculating one electron integrals          ... done (  0.0 sec)
Calculating RI/J V-Matrix + Cholesky decomp.... done (  0.1 sec)
Calculating Nuclear repulsion               ... done (  0.0 sec) ENN=    394.515860944312 Eh

Diagonalization of the overlap matrix:
Smallest eigenvalue                        ... 1.539e-04
Time for diagonalization                   ...    0.012 sec
Threshold for overlap eigenvalues          ... 1.000e-07
Number of eigenvalues below threshold      ... 0
Time for construction of square roots      ...    0.020 sec
Total time needed                          ...    0.050 sec

-------------------
DFT GRID GENERATION
-------------------

General Integration Accuracy     IntAcc      ... 4.388
Radial Grid Type                 RadialGrid  ... OptM3 with GC (2021)
Angular Grid (max. ang.)         AngularGrid ... 4 (Lebedev-302)
Angular grid pruning method      GridPruning ... 4 (adaptive)
Weight generation scheme         WeightScheme... mBecke (2022)
Basis function cutoff            BFCut       ... 1.0000e-10
Integration weight cutoff        WCut        ... 1.0000e-14
Partially contracted basis set               ... off
Rotationally invariant grid construction     ... off
Angular grids for H and He will be reduced by one unit
Diffuse basis detected: some atoms will have their outermost
                        angular grid increased by 1.

Total number of grid points                  ...    87377
Total number of batches                      ...     1375
Average number of points per batch           ...       63
Average number of grid points per atom       ...     4369
Initializing property integral containers    ... done (  0.0 sec)

SHARK setup successfully completed in   1.5 seconds

Maximum memory used throughout the entire STARTUP-calculation: 39.2 MB
-------------------------------------------------------------------------------
                                 ORCA GUESS
                   Start orbitals & Density for SCF / CASSCF
-------------------------------------------------------------------------------

------------
SCF SETTINGS
------------
Hamiltonian:
 Density Functional     Method          .... DFT(GTOs)
  Functional kind                       .... Exchange
  Functional name                       .... Re-regularized SCAN exchange by Furness et al
  Functional family                     .... MGGA
  Functional refs                              
    [ 0] J. W. Furness, A. D. Kaplan, J. Ning, J. P. Perdew, and J. Sun.,  J. Phys. Chem. Lett. 11, 8208-8215 (2020), doi: 10.1021/acs.jpclett.0c02405
    [ 1] J. W. Furness, A. D. Kaplan, J. Ning, J. P. Perdew, and J. Sun.,  J. Phys. Chem. Lett. 11, 9248-9248 (2020), doi: 10.1021/acs.jpclett.0c03077
  Functional external parameters        .... 6
    Parameter  0 _c1        =  6.670000e-01 : c1 parameter        
    Parameter  1 _c2        =  8.000000e-01 : c2 parameter        
    Parameter  2 _d         =  1.240000e+00 : d parameter         
    Parameter  3 _k1        =  6.500000e-02 : k1 parameter        
    Parameter  4 _eta       =  1.000000e-03 : eta parameter       
    Parameter  5 _dp2       =  3.610000e-01 : dp2 parameter       
  Functional kind                       .... Correlation
  Functional name                       .... Re-regularized SCAN correlation by Furness et al
  Functional family                     .... MGGA
  Functional refs                              
    [ 0] J. W. Furness, A. D. Kaplan, J. Ning, J. P. Perdew, and J. Sun.,  J. Phys. Chem. Lett. 11, 8208-8215 (2020), doi: 10.1021/acs.jpclett.0c02405
    [ 1] J. W. Furness, A. D. Kaplan, J. Ning, J. P. Perdew, and J. Sun.,  J. Phys. Chem. Lett. 11, 9248-9248 (2020), doi: 10.1021/acs.jpclett.0c03077
  Functional external parameters        .... 1
    Parameter  0 _eta       =  1.000000e-03 : Regularization parameter
 Gradients option       PostSCFGGA      .... off
 RI-approximation to the Coulomb term is turned on
   Number of AuxJ basis functions       .... 524


General Settings:
 Integral files         IntName         .... sp_solv
 Hartree-Fock type      HFTyp           .... RHF
 Total Charge           Charge          ....    0
 Multiplicity           Mult            ....    1
 Number of Electrons    NEL             ....   64
 Basis Dimension        Dim             ....  222
 Nuclear Repulsion      ENuc            ....    394.5158609443 Eh

Convergence Acceleration:
 AO-DIIS                CNVDIIS         .... on
   Start iteration      DIISMaxIt       ....    12
   Startup error        DIISStart       ....  0.200000
   # of expansion vecs  DIISMaxEq       ....     5
   Bias factor          DIISBfac        ....   1.050
   Max. coefficient     DIISMaxC        ....  10.000
 MO-DIIS                CNVKDIIS        .... off
 Trust-Rad. Augm. Hess. CNVTRAH         .... auto
   Auto Start mean grad. ratio tolernc. ....  1.125000
   Auto Start start iteration           ....     1
   Auto Start num. interpolation iter.  ....    10
   Max. Number of Micro iterations      ....    24
   Max. Number of Macro iterations      .... Maxiter - #DIIS iter
   Number of Davidson start vectors     ....     2
   Converg. threshold    (grad. norm)   ....   3.330e-04
   Grad. Scal. Fac. for Micro threshold ....   0.100
   Minimum threshold for Micro iter.    ....   1.000e-02
   NR start threshold (gradient norm)   ....   1.000e-04
   Initial trust radius                 ....   0.400
   Minimum AH scaling param. (alpha)    ....   1.000
   Maximum AH scaling param. (alpha)    .... 1000.000
   Quad. conv. algorithm                .... NR
   White noise on init. David. guess    .... on
   Maximum white noise                  ....   0.010
   Pseudo random numbers                .... off
   Inactive MOs                         .... canonical
   Orbital update algorithm             .... Taylor
   Preconditioner                       .... Diag
   Full preconditioner red. dimension   ....   250
   COSX micro iterations for RIJONX calc.... off
 SOSCF                  CNVSOSCF        .... on
   Start iteration      SOSCFMaxIt      ....   150
   Startup grad/error   SOSCFStart      ....  0.003300
   Hessian update       SOSCFHessUp     .... L-BFGS
 Level Shifting         CNVShift        .... on
   Level shift para.    LevelShift      ....    0.2500
   Turn off err/grad.   ShiftErr        ....    0.0010
 Zerner damping         CNVZerner       .... off
 Static damping         CNVDamp         .... on
   Fraction old density DampFac         ....    0.7000
   Max. Damping (<1)    DampMax         ....    0.9800
   Min. Damping (>=0)   DampMin         ....    0.0000
   Turn off err/grad.   DampErr         ....    0.1000

SCF Procedure:
 Maximum # iterations   MaxIter         ....   125
 SCF integral mode      SCFMode         .... Direct
   Integral package                     .... SHARK and LIBINT hybrid scheme
 Reset frequency        DirectResetFreq ....    20
 Integral Threshold     Thresh          ....  1.000e-10 Eh
 Primitive CutOff       TCut            ....  1.000e-11 Eh

Convergence Tolerance:
 Convergence Check Mode ConvCheckMode   .... Total+1el-Energy
 Convergence forced     ConvForced      .... 0
 Energy Change          TolE            ....  1.000e-06 Eh
 1-El. energy change                    ....  1.000e-03 Eh
 Orbital Gradient       TolG            ....  3.330e-04
 Orbital Rotation angle TolX            ....  3.330e-04
 DIIS Error             TolErr          ....  1.000e-06

---------------------
INITIAL GUESS: MOREAD
---------------------
Guess MOs are being read from file: sp_solv.ges
Input Geometry matches current geometry (good)
Atom 0: N(Shells)= 9 and 6 - projection required
Input basis set needs projection
NBasis(read)= 136
NBasis(calc)= 222
Basis set overlap was calculated
Using GuessMode=FMatrix for the initial guess
C*T matrix was formed
Effective Fockian was calculated
Effective Fockian was diagonalized
Initial density was built
                      ------------------
                      INITIAL GUESS DONE (   0.1 sec)
                      ------------------
             **** ENERGY FILE WAS UPDATED (sp_solv.en.tmp) ****
Finished Guess after   0.4 sec
Maximum memory used throughout the entire GUESS-calculation: 15.1 MB

-------------------------------------------------------------------------------------------
                                      ORCA LEAN-SCF
                              memory conserving SCF solver
-------------------------------------------------------------------------------------------

--------------------
CPCM SOLVATION MODEL
--------------------
CPCM parameters:
  Epsilon                                         ...      78.3550
  Refrac                                          ...       1.3328
  Rsolv                                           ...       1.3000
  Surface type                                    ... GAUSSIAN VDW
  Discretization scheme                           ... Constant charge density
    Threshold for H atoms                         ...       5.0000 (charges/Ang^2)
    Threshold for non-H atoms                     ...       5.0000 (charges/Ang^2)
  Epsilon function type                           ...         CPCM
Solvent:                                          ... WATER
SMD-CDS solvent descriptors:
  Soln                                            ...       1.3328
  Soln25                                          ...       1.3323
  Sola                                            ...       0.0000
  Solb                                            ...       0.0000
  Solg                                            ...       0.0000
  Solc                                            ...       0.0000
  Solh                                            ...       0.0000
Radii:
  Scheme                                          ... Element-dependent radii
  Radius for C  used is    3.4960 Bohr (=   1.8500 Ang.)
  Radius for O  used is    2.8724 Bohr (=   1.5200 Ang.)
  Radius for H  used is    2.2677 Bohr (=   1.2000 Ang.)
Calculating surface                               ...        done! (  0.0s)
Cavity surface points                             ...         1510
Cavity Volume                                     ...     880.2321
Cavity Surface-area                               ...     587.9840
Calculating surface distance matrix               ...        done! (  0.0s)
Performing Cholesky decomposition & store         ...        done! (  0.1s)
Overall time for CPCM initialization              ...                 0.2s

----------------------------------------D-I-I-S--------------------------------------------
Iteration    Energy (Eh)           Delta-E    RMSDP     MaxDP     DIISErr   Damp  Time(sec)
-------------------------------------------------------------------------------------------
               ***  Starting incremental Fock matrix formation  ***
    1    -386.0570840032381739     0.00e+00  3.80e-03  1.36e-01  6.27e-01  0.700   3.8
    2    -386.1162023570643669    -5.91e-02  3.08e-03  1.01e-01  4.42e-01  0.700   3.7
    3    -386.1580044051167988    -4.18e-02  2.25e-03  7.11e-02  3.10e-01  0.700   3.4
    4    -386.1873759387460723    -2.94e-02  1.61e-03  5.01e-02  2.17e-01  0.700   3.5
                               ***Turning on AO-DIIS***
    5    -386.2079957193542441    -2.06e-02  1.17e-03  3.59e-02  1.52e-01  0.700   3.4
    6    -386.2224508229139701    -1.45e-02  8.31e-04  2.54e-02  1.06e-01  0.700   3.3
    7    -386.2325968412168322    -1.01e-02  5.86e-04  1.79e-02  7.43e-02  0.700   3.3
    8    -386.2397074158216128    -7.11e-03  1.38e-03  4.17e-02  5.22e-02  0.000   3.2
                              *** Initializing SOSCF ***
---------------------------------------S-O-S-C-F--------------------------------------
Iteration    Energy (Eh)           Delta-E    RMSDP     MaxDP     MaxGrad    Time(sec)
--------------------------------------------------------------------------------------
    9    -386.2563303410163371    -1.66e-02  1.21e-05  5.09e-04  1.96e-04     3.5
               *** Restarting incremental Fock matrix formation ***
   10    -386.2563305214222282    -1.80e-07  6.54e-06  1.93e-04  4.42e-05     3.7
                  *** Gradient check signals convergence ***

               *****************************************************
               *                     SUCCESS                       *
               *           SCF CONVERGED AFTER  10 CYCLES          *
               *****************************************************


SMD CDS free energy correction energy :                 4.91337     Kcal/mol
Total Energy after SMD CDS correction =              -386.248500574 Eh
             **** ENERGY FILE WAS UPDATED (sp_solv.en.tmp) ****

----------------
TOTAL SCF ENERGY
----------------

Total Energy       :       -386.24850057412215 Eh          -10510.35604 eV

Components:
Nuclear Repulsion  :        394.51586094431184 Eh           10735.32235 eV
Electronic Energy  :       -780.75708407480317 Eh          -21245.48036 eV
One Electron Energy:      -1306.47063464243115 Eh          -35550.87334 eV
Two Electron Energy:        525.71355056762798 Eh           14305.39298 eV
CPCM Dielectric    :         -0.01510739093086 Eh              -0.41109 eV
SMD CDS (Gcds)     :          0.00782994730007 Eh               0.21306 eV

Virial components:
Potential Energy   :       -770.88756888786406 Eh          -20976.91720 eV
Kinetic Energy     :        384.63906831374197 Eh           10466.56116 eV
Virial Ratio       :          2.00418426621985

DFT components:
N(Alpha)           :       32.000025774378 electrons
N(Beta)            :       32.000025774378 electrons
N(Total)           :       64.000051548756 electrons
E(X)               :      -52.083910267379 Eh       
E(C)               :       -2.038312817069 Eh       
E(XC)              :      -54.122223084448 Eh       

CPCM Solvation Model Properties:
Surface-charge          :         -0.04711483220805
Corrected charge        :         -0.00000000000000
Outlying charge corr.   :          0.00016731512560 Eh               0.00455 eV
Free-energy (cav+disp)  :          0.00782994730007 Eh               0.21306 eV

---------------
SCF CONVERGENCE
---------------

  Last Energy change         ...    1.8041e-07  Tolerance :   1.0000e-06
  Last MAX-Density change    ...    1.9305e-04  Tolerance :   1.0000e-05
  Last RMS-Density change    ...    6.5447e-06  Tolerance :   1.0000e-06
  Last DIIS Error            ...    1.9555e-04  Tolerance :   1.0000e-06
  Last Orbital Gradient      ...    4.4165e-05  Tolerance :   3.3300e-04
  Last Orbital Rotation      ...    1.0453e-04  Tolerance :   3.3300e-04


----------------
ORBITAL ENERGIES
----------------

  NO   OCC          E(Eh)            E(eV) 
   0   2.0000     -19.001358      -517.0532 
   1   2.0000     -18.943770      -515.4862 
   2   2.0000     -10.162228      -276.5283 
   3   2.0000     -10.082931      -274.3705 
   4   2.0000     -10.035353      -273.0758 
   5   2.0000     -10.025289      -272.8020 
   6   2.0000     -10.018047      -272.6049 
   7   2.0000     -10.010323      -272.3947 
   8   2.0000      -1.077796       -29.3283 
   9   2.0000      -0.988989       -26.9118 
  10   2.0000      -0.767551       -20.8861 
  11   2.0000      -0.732766       -19.9396 
  12   2.0000      -0.672817       -18.3083 
  13   2.0000      -0.618670       -16.8349 
  14   2.0000      -0.558891       -15.2082 
  15   2.0000      -0.516112       -14.0441 
  16   2.0000      -0.474443       -12.9102 
  17   2.0000      -0.460295       -12.5253 
  18   2.0000      -0.444487       -12.0951 
  19   2.0000      -0.421462       -11.4686 
  20   2.0000      -0.404339       -11.0026 
  21   2.0000      -0.384773       -10.4702 
  22   2.0000      -0.373127       -10.1533 
  23   2.0000      -0.359128        -9.7724 
  24   2.0000      -0.348421        -9.4810 
  25   2.0000      -0.339421        -9.2361 
  26   2.0000      -0.309379        -8.4186 
  27   2.0000      -0.305642        -8.3169 
  28   2.0000      -0.302086        -8.2202 
  29   2.0000      -0.301383        -8.2011 
  30   2.0000      -0.277959        -7.5637 
  31   2.0000      -0.252284        -6.8650 
  32   0.0000      -0.021929        -0.5967 
  33   0.0000       0.077498         2.1088 
  34   0.0000       0.097629         2.6566 
  35   0.0000       0.118540         3.2256 
  36   0.0000       0.128989         3.5100 
  37   0.0000       0.135011         3.6738 
  38   0.0000       0.140134         3.8132 
  39   0.0000       0.146333         3.9819 
  40   0.0000       0.154937         4.2160 
  41   0.0000       0.161987         4.4079 
  42   0.0000       0.178503         4.8573 
*Only the first 10 virtual orbitals were printed.

                    ********************************
                    * MULLIKEN POPULATION ANALYSIS *
                    ********************************

-----------------------
MULLIKEN ATOMIC CHARGES
-----------------------
   0 C :   -0.530814
   1 C :   -0.217218
   2 C :   -0.310754
   3 C :    0.385813
   4 O :   -0.512905
   5 O :   -0.196244
   6 C :   -0.141673
   7 C :   -0.497786
   8 H :    0.158436
   9 H :    0.159989
  10 H :    0.160961
  11 H :    0.160103
  12 H :    0.149099
  13 H :    0.183573
  14 H :    0.199724
  15 H :    0.173592
  16 H :    0.171173
  17 H :    0.170181
  18 H :    0.169133
  19 H :    0.165618
Sum of atomic charges:   -0.0000000

--------------------------------
MULLIKEN REDUCED ORBITAL CHARGES
--------------------------------
  0 C s       :     3.349678  s :     3.349678
      pz      :     1.098884  p :     3.154124
      px      :     1.106049
      py      :     0.949191
      dz2     :     0.004518  d :     0.027012
      dxz     :     0.004538
      dyz     :     0.005979
      dx2y2   :     0.006328
      dxy     :     0.005649

  1 C s       :     3.181672  s :     3.181672
      pz      :     1.056159  p :     2.998900
      px      :     0.989588
      py      :     0.953153
      dz2     :     0.006851  d :     0.036646
      dxz     :     0.006457
      dyz     :     0.006661
      dx2y2   :     0.008598
      dxy     :     0.008079

  2 C s       :     3.223709  s :     3.223709
      pz      :     1.001533  p :     3.052129
      px      :     0.928536
      py      :     1.122059
      dz2     :     0.006975  d :     0.034916
      dxz     :     0.009095
      dyz     :     0.004222
      dx2y2   :     0.008944
      dxy     :     0.005680

  3 C s       :     3.158276  s :     3.158276
      pz      :     0.751403  p :     2.331014
      px      :     0.844783
      py      :     0.734828
      dz2     :     0.027432  d :     0.124897
      dxz     :     0.049894
      dyz     :     0.028998
      dx2y2   :     0.009426
      dxy     :     0.009146

  4 O s       :     3.834904  s :     3.834904
      pz      :     1.328109  p :     4.653993
      px      :     1.787163
      py      :     1.538721
      dz2     :     0.009997  d :     0.024009
      dxz     :     0.003063
      dyz     :     0.006276
      dx2y2   :     0.002025
      dxy     :     0.002648

  5 O s       :     3.705461  s :     3.705461
      pz      :     1.619675  p :     4.455498
      px      :     1.170578
      py      :     1.665244
      dz2     :     0.008206  d :     0.035285
      dxz     :     0.006748
      dyz     :     0.009785
      dx2y2   :     0.004584
      dxy     :     0.005961

  6 C s       :     3.262806  s :     3.262806
      pz      :     1.075786  p :     2.825748
      px      :     0.764751
      py      :     0.985212
      dz2     :     0.006399  d :     0.053118
      dxz     :     0.010778
      dyz     :     0.011109
      dx2y2   :     0.011507
      dxy     :     0.013326

  7 C s       :     3.338114  s :     3.338114
      pz      :     1.095960  p :     3.134142
      px      :     1.044729
      py      :     0.993453
      dz2     :     0.003505  d :     0.025531
      dxz     :     0.003489
      dyz     :     0.008210
      dx2y2   :     0.003655
      dxy     :     0.006671

  8 H s       :     0.823308  s :     0.823308
      pz      :     0.009881  p :     0.018256
      px      :     0.003706
      py      :     0.004669

  9 H s       :     0.821655  s :     0.821655
      pz      :     0.005442  p :     0.018356
      px      :     0.009108
      py      :     0.003806

 10 H s       :     0.820759  s :     0.820759
      pz      :     0.005359  p :     0.018280
      px      :     0.007533
      py      :     0.005387

 11 H s       :     0.821919  s :     0.821919
      pz      :     0.004963  p :     0.017978
      px      :     0.007759
      py      :     0.005256

 12 H s       :     0.832848  s :     0.832848
      pz      :     0.010225  p :     0.018053
      px      :     0.003481
      py      :     0.004347

 13 H s       :     0.798455  s :     0.798455
      pz      :     0.010002  p :     0.017973
      px      :     0.003137
      py      :     0.004833

 14 H s       :     0.781981  s :     0.781981
      pz      :     0.003705  p :     0.018295
      px      :     0.003553
      py      :     0.011037

 15 H s       :     0.808885  s :     0.808885
      pz      :     0.007199  p :     0.017524
      px      :     0.003972
      py      :     0.006352

 16 H s       :     0.811004  s :     0.811004
      pz      :     0.009416  p :     0.017823
      px      :     0.002677
      py      :     0.005729

 17 H s       :     0.811304  s :     0.811304
      pz      :     0.004518  p :     0.018515
      px      :     0.009746
      py      :     0.004251

 18 H s       :     0.812591  s :     0.812591
      pz      :     0.007497  p :     0.018276
      px      :     0.004823
      py      :     0.005955

 19 H s       :     0.816102  s :     0.816102
      pz      :     0.008527  p :     0.018280
      px      :     0.003677
      py      :     0.006075


------------------------
MULLIKEN OVERLAP CHARGES
------------------------
B(  0-C ,  1-C ) :   0.4683 B(  0-C ,  2-C ) :  -0.2327 B(  0-C ,  3-C ) :   0.0558 
B(  0-C ,  8-H ) :   0.8477 B(  0-C ,  9-H ) :   0.7948 B(  0-C , 10-H ) :   0.8495 
B(  0-C , 12-H ) :  -0.0597 B(  1-C ,  2-C ) :   0.3934 B(  1-C ,  3-C ) :  -0.1099 
B(  1-C ,  8-H ) :  -0.0942 B(  1-C ,  9-H ) :  -0.0734 B(  1-C , 10-H ) :  -0.0872 
B(  1-C , 11-H ) :   0.8215 B(  1-C , 12-H ) :   0.8372 B(  1-C , 13-H ) :  -0.0855 
B(  1-C , 14-H ) :  -0.0532 B(  2-C ,  3-C ) :   0.3376 B(  2-C ,  4-O ) :  -0.1887 
B(  2-C ,  5-O ) :  -0.1001 B(  2-C , 11-H ) :  -0.0981 B(  2-C , 12-H ) :  -0.0591 
B(  2-C , 13-H ) :   0.8848 B(  2-C , 14-H ) :   0.7249 B(  3-C ,  4-O ) :   0.9693 
B(  3-C ,  5-O ) :   0.4323 B(  3-C ,  6-C ) :  -0.1936 B(  3-C , 13-H ) :  -0.1288 
B(  4-O ,  5-O ) :  -0.2141 B(  5-O ,  6-C ) :   0.3072 B(  5-O ,  7-C ) :  -0.1061 
B(  5-O , 15-H ) :  -0.0869 B(  5-O , 16-H ) :  -0.0676 B(  6-C ,  7-C ) :   0.5338 
B(  6-C , 15-H ) :   0.7990 B(  6-C , 16-H ) :   0.8577 B(  6-C , 17-H ) :  -0.0667 
B(  6-C , 18-H ) :  -0.0861 B(  6-C , 19-H ) :  -0.0686 B(  7-C , 16-H ) :  -0.0816 
B(  7-C , 17-H ) :   0.8040 B(  7-C , 18-H ) :   0.8422 B(  7-C , 19-H ) :   0.8292 



                     *******************************
                     * LOEWDIN POPULATION ANALYSIS *
                     *******************************

----------------------
LOEWDIN ATOMIC CHARGES
----------------------
   0 C :   -0.424392
   1 C :   -0.298867
   2 C :   -0.229535
   3 C :    0.369641
   4 O :   -0.498187
   5 O :   -0.600259
   6 C :    0.030905
   7 C :   -0.393812
   8 H :    0.154820
   9 H :    0.155453
  10 H :    0.156377
  11 H :    0.159967
  12 H :    0.164480
  13 H :    0.187612
  14 H :    0.195747
  15 H :    0.188941
  16 H :    0.189019
  17 H :    0.167627
  18 H :    0.162577
  19 H :    0.161888

-------------------------------
LOEWDIN REDUCED ORBITAL CHARGES
-------------------------------
  0 C s       :     2.971505  s :     2.971505
      pz      :     1.160338  p :     3.390093
      px      :     1.150336
      py      :     1.079418
      dz2     :     0.011260  d :     0.062795
      dxz     :     0.011363
      dyz     :     0.012848
      dx2y2   :     0.015132
      dxy     :     0.012192

  1 C s       :     2.934102  s :     2.934102
      pz      :     1.128056  p :     3.285476
      px      :     1.071956
      py      :     1.085464
      dz2     :     0.015724  d :     0.079289
      dxz     :     0.014759
      dyz     :     0.013498
      dx2y2   :     0.018707
      dxy     :     0.016601

  2 C s       :     2.921001  s :     2.921001
      pz      :     1.092193  p :     3.235122
      px      :     1.017875
      py      :     1.125053
      dz2     :     0.015265  d :     0.073412
      dxz     :     0.019132
      dyz     :     0.009228
      dx2y2   :     0.019796
      dxy     :     0.009991

  3 C s       :     2.737894  s :     2.737894
      pz      :     0.988126  p :     2.621170
      px      :     0.907064
      py      :     0.725980
      dz2     :     0.068210  d :     0.271295
      dxz     :     0.111094
      dyz     :     0.056062
      dx2y2   :     0.018373
      dxy     :     0.017556

  4 O s       :     3.542092  s :     3.542092
      pz      :     1.491628  p :     4.728743
      px      :     1.727033
      py      :     1.510082
      dz2     :     0.082818  d :     0.227352
      dxz     :     0.071645
      dyz     :     0.044054
      dx2y2   :     0.012046
      dxy     :     0.016789

  5 O s       :     3.465901  s :     3.465901
      pz      :     1.635500  p :     4.659767
      px      :     1.365413
      py      :     1.658854
      dz2     :     0.086968  d :     0.474591
      dxz     :     0.122621
      dyz     :     0.054746
      dx2y2   :     0.100192
      dxy     :     0.110065

  6 C s       :     2.871129  s :     2.871129
      pz      :     1.072786  p :     2.978775
      px      :     0.861200
      py      :     1.044788
      dz2     :     0.014466  d :     0.119191
      dxz     :     0.024960
      dyz     :     0.025784
      dx2y2   :     0.023294
      dxy     :     0.030687

  7 C s       :     2.974297  s :     2.974297
      pz      :     1.153014  p :     3.359595
      px      :     1.105961
      py      :     1.100620
      dz2     :     0.008191  d :     0.059920
      dxz     :     0.008100
      dyz     :     0.019669
      dx2y2   :     0.008646
      dxy     :     0.015315

  8 H s       :     0.801417  s :     0.801417
      pz      :     0.024701  p :     0.043764
      px      :     0.008250
      py      :     0.010812

  9 H s       :     0.800642  s :     0.800642
      pz      :     0.012814  p :     0.043904
      px      :     0.022471
      py      :     0.008620

 10 H s       :     0.799428  s :     0.799428
      pz      :     0.012703  p :     0.044195
      px      :     0.018664
      py      :     0.012829

 11 H s       :     0.796378  s :     0.796378
      pz      :     0.012163  p :     0.043655
      px      :     0.018847
      py      :     0.012646

 12 H s       :     0.791566  s :     0.791566
      pz      :     0.025569  p :     0.043954
      px      :     0.007960
      py      :     0.010425

 13 H s       :     0.767857  s :     0.767857
      pz      :     0.025347  p :     0.044532
      px      :     0.007171
      py      :     0.012014

 14 H s       :     0.759020  s :     0.759020
      pz      :     0.008627  p :     0.045233
      px      :     0.008593
      py      :     0.028012

 15 H s       :     0.770515  s :     0.770515
      pz      :     0.018265  p :     0.040545
      px      :     0.007977
      py      :     0.014303

 16 H s       :     0.768207  s :     0.768207
      pz      :     0.022521  p :     0.042774
      px      :     0.006953
      py      :     0.013300

 17 H s       :     0.787779  s :     0.787779
      pz      :     0.010382  p :     0.044595
      px      :     0.024167
      py      :     0.010046

 18 H s       :     0.793208  s :     0.793208
      pz      :     0.018470  p :     0.044215
      px      :     0.011542
      py      :     0.014203

 19 H s       :     0.794216  s :     0.794216
      pz      :     0.021381  p :     0.043896
      px      :     0.008108
      py      :     0.014408


---------------------------------
LOEWDIN BOND ORDERS (THRESH 0.050000)
---------------------------------
B(  0-C ,  1-C ) :   1.1412 B(  0-C ,  2-C ) :   0.0669 B(  0-C ,  8-H ) :   0.9282 
B(  0-C ,  9-H ) :   0.9288 B(  0-C , 10-H ) :   0.9211 B(  1-C ,  2-C ) :   1.0904 
B(  1-C ,  3-C ) :   0.0685 B(  1-C , 11-H ) :   0.8914 B(  1-C , 12-H ) :   0.8852 
B(  2-C ,  3-C ) :   0.9282 B(  2-C ,  4-O ) :   0.1797 B(  2-C ,  5-O ) :   0.1886 
B(  2-C , 13-H ) :   0.8580 B(  2-C , 14-H ) :   0.8518 B(  3-C ,  4-O ) :   2.1347 
B(  3-C ,  5-O ) :   1.4628 B(  3-C ,  6-C ) :   0.0837 B(  4-O ,  5-O ) :   0.4527 
B(  4-O ,  6-C ) :   0.0641 B(  5-O ,  6-C ) :   1.3067 B(  5-O ,  7-C ) :   0.1560 
B(  5-O , 15-H ) :   0.0974 B(  5-O , 16-H ) :   0.0922 B(  6-C ,  7-C ) :   1.0838 
B(  6-C , 15-H ) :   0.8285 B(  6-C , 16-H ) :   0.8169 B(  7-C , 17-H ) :   0.9152 
B(  7-C , 18-H ) :   0.9197 B(  7-C , 19-H ) :   0.9231 

------------------------------------------
LOEWDIN REDUCED ORBITAL POPULATIONS PER MO
-------------------------------------------
THRESHOLD FOR PRINTING IS 0.1%%
                      0         1         2         3         4         5   
                 -19.00136 -18.94377 -10.16223 -10.08293 -10.03535 -10.02529
                   2.00000   2.00000   2.00000   2.00000   2.00000   2.00000
                  --------  --------  --------  --------  --------  --------
 1 C  s               0.0       0.0       0.0       0.0       0.0      99.7
 2 C  s               0.0       0.0       0.0       0.0      99.7       0.0
 3 C  s               0.0       0.0      98.9       0.0       0.0       0.0
 4 O  s               0.0      99.9       0.0       0.0       0.0       0.0
 4 O  pz              0.0       0.0       0.2       0.0       0.0       0.0
 4 O  dz2             0.0       0.0       0.3       0.0       0.0       0.0
 5 O  s              99.9       0.0       0.0       0.0       0.0       0.0
 5 O  dxz             0.0       0.0       0.2       0.1       0.0       0.0
 6 C  s               0.0       0.0       0.0      99.4       0.0       0.0

                      6         7         8         9        10        11   
                 -10.01805 -10.01032  -1.07780  -0.98899  -0.76755  -0.73277
                   2.00000   2.00000   2.00000   2.00000   2.00000   2.00000
                  --------  --------  --------  --------  --------  --------
 0 C  s               0.0      99.7       0.0       0.0       7.5       6.1
 0 C  px              0.0       0.0       0.0       0.0       0.3       0.0
 0 C  py              0.0       0.0       0.0       0.0       2.0       0.8
 1 C  s               0.0       0.0       0.1       0.0      17.6       8.2
 1 C  pz              0.0       0.0       0.0       0.0       0.5       0.0
 1 C  px              0.0       0.0       0.3       0.1       1.3       0.0
 1 C  py              0.0       0.1       0.0       0.0       0.2       0.4
 2 C  s               0.0       0.0       1.0       0.1      21.0       1.2
 2 C  pz              0.0       0.0       0.3       0.4       0.6       0.3
 2 C  px              0.0       0.0       1.5       0.0       0.4       2.7
 2 C  py              0.0       0.0       0.2       0.0       0.3       0.0
 3 C  s               0.0       0.0      17.1       3.0       3.1       1.1
 3 C  pz              0.0       0.0       0.1      21.7       4.8       1.4
 3 C  px              0.0       0.0       4.1       1.8       4.9       0.8
 3 C  py              0.0       0.0       0.6       0.2       0.5       0.1
 3 C  dz2             0.0       0.0       0.5       1.3       0.0       0.0
 3 C  dxz             0.0       0.0       0.3       0.4       0.0       0.1
 3 C  dx2y2           0.0       0.0       0.2       0.1       0.0       0.0
 3 C  dxy             0.0       0.0       0.1       0.0       0.0       0.0
 4 O  s               0.0       0.0      15.0      40.0       1.6       0.1
 4 O  pz              0.0       0.0       3.4       3.0       0.4       0.1
 4 O  px              0.0       0.0       0.0       0.1       0.2       0.0
 4 O  dz2             0.0       0.0       1.2       0.1       0.3       0.2
 4 O  dxz             0.0       0.0       0.2       0.2       0.4       0.0
 5 O  s               0.0       0.0      38.7      19.5       0.0       0.9
 5 O  pz              0.0       0.0       2.6       0.4       0.0       0.1
 5 O  px              0.0       0.0       0.3       0.5       5.6      10.1
 5 O  py              0.0       0.0       0.0       0.1       0.6       0.8
 5 O  dz2             0.0       0.0       0.1       0.5       0.1       0.2
 5 O  dxz             0.0       0.0       0.3       0.7       0.3       1.0
 5 O  dx2y2           0.0       0.0       0.3       0.0       0.0       0.5
 5 O  dxy             0.0       0.0       0.2       0.0       0.1       0.1
 6 C  s               0.0       0.0       4.0       2.1       4.6      17.8
 6 C  pz              0.0       0.0       0.3       0.6       0.0       0.1
 6 C  px              0.0       0.0       4.3       1.3       0.1       1.7
 6 C  py              0.1       0.0       0.6       0.2       0.1       0.9
 6 C  dxz             0.0       0.0       0.1       0.1       0.0       0.0
 6 C  dx2y2           0.0       0.0       0.1       0.1       0.0       0.0
 7 C  s              99.7       0.0       0.3       0.2       2.4      18.0
 7 C  px              0.0       0.0       0.6       0.1       0.2       0.5
 7 C  py              0.0       0.0       0.2       0.1       0.3       1.2
 8 H  s               0.0       0.0       0.0       0.0       1.0       0.9
 9 H  s               0.0       0.0       0.0       0.0       0.9       0.9
10 H  s               0.0       0.0       0.0       0.0       1.0       0.9
11 H  s               0.0       0.0       0.0       0.0       2.3       1.3
11 H  px              0.0       0.0       0.0       0.0       0.1       0.1
12 H  s               0.0       0.0       0.0       0.0       2.2       1.2
12 H  pz              0.0       0.0       0.0       0.0       0.2       0.1
13 H  s               0.0       0.0       0.1       0.0       3.1       0.1
13 H  pz              0.0       0.0       0.0       0.0       0.3       0.0
14 H  s               0.0       0.0       0.0       0.0       2.9       0.2
14 H  py              0.0       0.0       0.0       0.0       0.3       0.0
15 H  s               0.0       0.0       0.2       0.2       0.8       3.3
15 H  pz              0.0       0.0       0.0       0.0       0.0       0.1
15 H  py              0.0       0.0       0.0       0.0       0.0       0.1
16 H  s               0.0       0.0       0.3       0.1       0.6       2.8
16 H  pz              0.0       0.0       0.0       0.0       0.0       0.2
17 H  s               0.0       0.0       0.0       0.0       0.3       2.9
17 H  px              0.0       0.0       0.0       0.0       0.0       0.2
18 H  s               0.0       0.0       0.0       0.0       0.3       2.7
18 H  pz              0.0       0.0       0.0       0.0       0.0       0.1
19 H  s               0.0       0.0       0.0       0.0       0.3       2.8
19 H  pz              0.0       0.0       0.0       0.0       0.0       0.2

                     12        13        14        15        16        17   
                  -0.67282  -0.61867  -0.55889  -0.51611  -0.47444  -0.46030
                   2.00000   2.00000   2.00000   2.00000   2.00000   2.00000
                  --------  --------  --------  --------  --------  --------
 0 C  s              18.4       7.3       7.5       0.5       0.1       0.2
 0 C  pz              0.0       0.0       0.0       0.0       1.8       0.0
 0 C  px              0.1       0.1       0.0       0.0       0.3       0.5
 0 C  py              0.1       0.8       7.5       1.1       0.3       0.5
 0 C  dx2y2           0.0       0.0       0.1       0.0       0.0       0.0
 1 C  s               3.1       1.0      13.8       1.4       0.2       0.1
 1 C  pz              0.7       0.3       0.3       0.5       8.4       0.0
 1 C  px              3.5       1.2       1.1       0.7       0.3       0.0
 1 C  py              4.1       3.3       5.5       0.2       0.1       0.3
 1 C  dx2y2           0.2       0.1       0.0       0.0       0.0       0.0
 2 C  s              10.6       3.9       1.8       1.4       2.5       0.1
 2 C  pz              0.2       0.0       0.9       1.1      15.5       0.7
 2 C  px              2.9       1.5       6.9       0.1       3.6       0.0
 2 C  py              0.3       0.6       0.2       0.5       1.4       6.2
 2 C  dxz             0.1       0.0       0.2       0.0       0.1       0.0
 3 C  s               2.7       1.5       0.9       2.5       2.7       0.7
 3 C  pz              2.3       1.4       0.4       0.5       0.3       2.8
 3 C  px              2.7       2.0       3.2       1.6       8.1       1.3
 3 C  py              1.1       0.2       0.3       1.6       0.6       7.3
 3 C  dz2             0.0       0.0       0.0       0.1       0.0       0.2
 3 C  dxz             0.1       0.1       0.1       0.0       0.0       0.1
 4 O  s               0.7       0.3       0.2       2.9       3.6       6.3
 4 O  pz              0.5       0.3       0.3       4.4       8.1      15.9
 4 O  px              0.1       0.2       0.3       0.7       8.4       0.9
 4 O  py              0.1       0.0       0.0       0.6       0.7       3.5
 4 O  dz2             0.2       0.2       0.1       0.2       0.2       0.1
 4 O  dxz             0.2       0.1       0.1       0.1       0.9       0.2
 4 O  dyz             0.1       0.0       0.0       0.1       0.1       0.4
 5 O  s               1.3       0.2       0.9       4.6       0.3       1.2
 5 O  pz              0.1       0.6       0.1      12.1       3.8      10.0
 5 O  px              1.6      13.6       0.2       9.7       0.4       9.4
 5 O  py              0.6       3.6       0.4       0.3       0.1       5.5
 5 O  dz2             0.4       0.0       0.3       0.1       0.5       0.2
 5 O  dxz             0.0       0.2       0.0       0.1       0.9       0.0
 5 O  dyz             0.0       0.2       0.0       0.2       0.1       0.3
 5 O  dx2y2           0.6       0.0       0.5       0.1       0.1       0.1
 5 O  dxy             0.1       0.5       0.9       0.4       0.0       0.0
 6 C  s               0.7       3.8       3.7       5.0       0.0       0.3
 6 C  pz              0.6       1.9       0.0       8.8       5.7       1.1
 6 C  px              2.8       3.3       0.2       1.9       0.6       3.1
 6 C  py              0.7       3.3       2.6       6.9       0.0       6.0
 6 C  dxz             0.0       0.0       0.0       0.3       0.0       0.0
 6 C  dxy             0.1       0.1       0.0       0.0       0.0       0.1
 7 C  s               9.4      13.8       1.8       1.1       0.0       0.2
 7 C  pz              0.0       0.3       0.1       0.5       1.5       0.0
 7 C  px              0.0       0.8       0.3       0.3       0.3       4.2
 7 C  py              0.0       1.2       1.8       4.9       0.0       0.5
 8 H  s               3.5       1.9       3.6       0.4       0.9       0.1
 8 H  pz              0.3       0.1       0.2       0.0       0.0       0.0
 9 H  s               4.0       2.2       2.8       0.2       0.0       0.4
 9 H  px              0.3       0.1       0.2       0.0       0.0       0.0
10 H  s               3.5       2.0       3.8       0.3       0.1       0.0
10 H  px              0.2       0.1       0.2       0.0       0.0       0.0
11 H  s               0.7       0.3       6.7       0.8       0.4       0.0
11 H  pz              0.0       0.0       0.1       0.0       0.0       0.0
11 H  px              0.0       0.0       0.3       0.0       0.0       0.0
12 H  s               0.6       0.3       5.9       0.9       2.5       0.0
12 H  pz              0.0       0.0       0.4       0.1       0.1       0.0
13 H  s               2.3       0.6       1.2       1.0       6.3       0.8
13 H  pz              0.2       0.0       0.1       0.0       0.2       0.0
13 H  py              0.0       0.0       0.0       0.0       0.2       0.0
14 H  s               2.8       1.3       0.6       1.1       3.0       2.3
14 H  py              0.3       0.1       0.1       0.1       0.1       0.1
15 H  s               0.1       1.9       2.3       1.7       1.2       3.0
15 H  pz              0.0       0.1       0.1       0.2       0.0       0.1
16 H  s               0.1       0.9       1.8       9.4       1.3       0.1
16 H  pz              0.0       0.1       0.1       0.3       0.0       0.0
16 H  py              0.0       0.0       0.0       0.1       0.0       0.0
17 H  s               2.2       4.2       0.6       0.2       0.0       1.6
17 H  px              0.1       0.3       0.0       0.0       0.0       0.0
18 H  s               1.9       4.1       1.0       0.7       0.3       0.3
18 H  pz              0.1       0.2       0.0       0.0       0.0       0.0
19 H  s               1.9       3.7       0.9       2.1       0.3       0.1
19 H  pz              0.1       0.2       0.1       0.1       0.0       0.0

                     18        19        20        21        22        23   
                  -0.44449  -0.42146  -0.40434  -0.38477  -0.37313  -0.35913
                   2.00000   2.00000   2.00000   2.00000   2.00000   2.00000
                  --------  --------  --------  --------  --------  --------
 0 C  s               0.1       0.0       0.2       0.0       0.0       0.0
 0 C  pz              1.1       5.9       3.5       5.7       9.7      11.4
 0 C  px              3.1       3.2       6.1       8.8       8.1       0.6
 0 C  py              0.0       0.3       2.3       2.1       2.3       2.2
 0 C  dz2             0.0       0.0       0.0       0.0       0.1       0.1
 1 C  s               0.1       0.0       0.3       0.0       0.1       0.0
 1 C  pz              2.4       9.5       1.6       2.1       2.9       1.6
 1 C  px              3.4       6.1       1.2       7.2       5.4       0.1
 1 C  py              1.1       0.1       5.3       0.2       0.2       2.2
 2 C  s               0.3       0.1       0.2       0.2       0.1       0.1
 2 C  pz              0.1       3.8       0.0       0.2       6.2      10.2
 2 C  px              3.2       0.7       0.3       3.4       3.6       0.1
 2 C  py              6.7       0.0      16.3       2.4       1.7       1.3
 2 C  dz2             0.0       0.0       0.0       0.0       0.1       0.2
 2 C  dxz             0.0       0.0       0.0       0.2       0.0       0.0
 2 C  dx2y2           0.0       0.0       0.1       0.1       0.0       0.0
 3 C  s               0.2       0.7       0.0       0.3       0.1       0.2
 3 C  pz              2.7       2.8       0.6       0.1       0.2       2.9
 3 C  px              1.2       1.3       0.0       5.4       0.8       0.9
 3 C  py             11.2       0.0       0.5       1.6       2.5       0.2
 3 C  dz2             0.1       0.1       0.0       0.0       0.0       0.2
 3 C  dxz             0.0       0.0       0.0       0.0       0.1       0.0
 3 C  dyz             0.0       0.0       0.0       0.0       0.1       0.0
 3 C  dx2y2           0.0       0.0       0.1       0.0       0.0       0.0
 3 C  dxy             0.0       0.0       0.2       0.0       0.0       0.1
 4 O  s               3.3       1.6       0.2       0.0       0.0       0.6
 4 O  pz             10.3      12.8       1.3       0.0       0.0       6.0
 4 O  px              0.5       0.2       0.0       2.3       0.1       0.4
 4 O  py              5.9       0.1       0.4       2.6       5.0       0.6
 4 O  dz2             0.1       0.2       0.0       0.0       0.0       0.1
 4 O  dxz             0.1       0.0       0.0       0.2       0.0       0.0
 4 O  dyz             0.7       0.0       0.0       0.1       0.1       0.0
 4 O  dx2y2           0.0       0.2       0.1       0.0       0.0       0.0
 5 O  s               0.1       0.0       0.2       0.5       1.1       0.6
 5 O  pz              2.8       0.7       0.0       5.0       1.0       3.9
 5 O  px              1.2       0.3       0.6       0.5       0.1       0.8
 5 O  py             13.8       0.2      13.6       0.5       0.5       1.5
 5 O  dz2             0.2       0.1       0.1       0.0       0.1       0.3
 5 O  dxz             0.1       0.7       0.1       0.2       0.0       0.1
 5 O  dyz             0.2       0.1       0.1       0.0       0.1       0.0
 5 O  dx2y2           0.0       0.1       0.5       0.0       0.8       0.0
 5 O  dxy             0.6       0.0       0.2       0.1       0.1       0.0
 6 C  s               0.8       0.0       0.4       0.0       0.1       0.1
 6 C  pz              0.3       9.7       0.1       3.5       0.1       0.1
 6 C  px              6.0       4.2       1.6       1.8       0.4       0.6
 6 C  py              0.0       0.3       6.9       0.1       1.4       0.4
 6 C  dxz             0.0       0.0       0.0       0.1       0.0       0.1
 6 C  dx2y2           0.1       0.0       0.1       0.0       0.0       0.0
 7 C  s               0.4       0.0       0.3       0.0       0.0       0.0
 7 C  pz              0.8       7.0       1.8      14.7       5.2       8.2
 7 C  px              0.5       2.1       9.5       1.0       7.8       2.4
 7 C  py              3.4       0.4       1.5       0.2       3.2       8.4
 7 C  dxy             0.0       0.0       0.2       0.0       0.1       0.0
 8 H  s               0.1       1.5       0.1       1.2       4.8       6.6
 8 H  pz              0.0       0.0       0.0       0.0       0.1       0.1
 9 H  s               1.5       0.0       5.0       0.5       5.9       0.2
 9 H  px              0.0       0.0       0.1       0.0       0.1       0.0
10 H  s               0.1       2.6       0.0       6.8       0.8       0.8
10 H  pz              0.0       0.0       0.0       0.0       0.1       0.0
11 H  s               0.7       4.1       0.3       2.6       0.2       0.6
12 H  s               1.2       2.7       0.7       1.0       0.5       0.2
13 H  s               0.9       0.9       0.7       0.0       4.3       6.6
14 H  s               1.6       0.0       8.0       1.6       0.1       0.2
14 H  py              0.0       0.0       0.2       0.0       0.0       0.0
15 H  s               1.9       4.5       0.1       1.2       0.1       0.2
15 H  py              0.0       0.1       0.0       0.1       0.0       0.0
16 H  s               0.0       2.3       0.3       1.4       0.1       0.2
17 H  s               0.3       0.1       4.2       0.0       6.9       5.4
17 H  px              0.0       0.0       0.1       0.0       0.1       0.1
18 H  s               1.2       2.8       0.3       5.0       0.1       0.0
18 H  px              0.0       0.0       0.1       0.0       0.0       0.0
19 H  s               0.4       1.2       0.1       3.4       2.8       7.3
19 H  pz              0.0       0.0       0.0       0.0       0.0       0.1
19 H  py              0.0       0.1       0.0       0.1       0.0       0.0

                     24        25        26        27        28        29   
                  -0.34842  -0.33942  -0.30938  -0.30564  -0.30209  -0.30138
                   2.00000   2.00000   2.00000   2.00000   2.00000   2.00000
                  --------  --------  --------  --------  --------  --------
 0 C  s               0.1       0.0       0.0       0.6       0.1       0.1
 0 C  pz              0.2       0.2       0.1       1.2      14.5       2.3
 0 C  px              2.0       4.2      12.5       2.4       0.1       4.7
 0 C  py              4.8       3.8       0.1      19.1       1.1       1.9
 0 C  dz2             0.0       0.0       0.0       0.0       0.2       0.0
 0 C  dxz             0.0       0.1       0.2       0.0       0.0       0.1
 0 C  dyz             0.0       0.0       0.0       0.0       0.5       0.1
 0 C  dx2y2           0.1       0.0       0.1       0.2       0.0       0.0
 0 C  dxy             0.0       0.1       0.2       0.0       0.0       0.2
 1 C  s               0.1       0.0       0.1       0.1       0.2       0.1
 1 C  pz              0.4       0.0       0.1       0.1      21.9       3.1
 1 C  px              0.0       0.0      11.1       1.7       0.3       8.0
 1 C  py              5.9       3.1       0.2      17.6       1.3       2.0
 1 C  dz2             0.0       0.0       0.0       0.2       0.3       0.0
 1 C  dxz             0.0       0.0       0.2       0.0       0.0       0.1
 1 C  dyz             0.0       0.0       0.0       0.0       0.5       0.1
 1 C  dx2y2           0.1       0.0       0.1       0.3       0.1       0.0
 1 C  dxy             0.0       0.0       0.2       0.1       0.0       0.3
 2 C  s               0.0       0.3       0.7       0.0       0.2       0.0
 2 C  pz              0.7       0.7       3.2       0.1       5.4       0.0
 2 C  px              0.4       1.0       5.2       2.9       4.0       2.8
 2 C  py              1.0       1.0       0.7      13.2       0.2       0.6
 2 C  dz2             0.0       0.0       0.0       0.2       0.2       0.0
 2 C  dxz             0.0       0.0       0.1       0.0       0.0       0.1
 2 C  dyz             0.0       0.0       0.0       0.1       0.1       0.0
 2 C  dx2y2           0.0       0.0       0.0       0.3       0.1       0.1
 3 C  s               0.0       0.1       0.0       0.0       0.0       0.7
 3 C  pz              0.0       1.2       0.3       0.0       0.0       2.0
 3 C  px              1.7       0.4       0.8       0.0       0.2       0.5
 3 C  py              5.7       0.5       0.5       0.7       0.1       0.1
 3 C  dz2             0.0       0.3       0.1       0.0       0.0       0.3
 3 C  dxz             0.2       0.0       0.0       0.0       0.1       0.0
 3 C  dyz             0.3       0.0       0.0       0.4       0.0       0.0
 3 C  dx2y2           0.0       0.1       0.1       0.1       0.0       0.0
 4 O  s               0.0       0.4       0.0       0.0       0.0       0.2
 4 O  pz              0.0       3.9       0.4       0.0       0.0       2.8
 4 O  px              6.6       0.0       2.4       0.0       0.3       0.3
 4 O  py             15.8       0.3       0.1      10.7       0.1       0.1
 4 O  dz2             0.0       0.2       0.0       0.0       0.0       0.3
 4 O  dyz             0.2       0.0       0.0       0.0       0.0       0.0
 4 O  dxy             0.0       0.1       0.0       0.0       0.0       0.2
 5 O  s               0.4       0.4       0.2       0.0       0.4       1.5
 5 O  pz              0.7      13.2       2.7       0.0       1.7      13.8
 5 O  px              0.0       3.9       0.3       0.0       0.4       1.5
 5 O  py              0.4       0.1       0.1       0.1       0.4       0.3
 5 O  dz2             0.0       0.0       0.0       0.0       0.0       0.7
 5 O  dxz             0.0       0.0       0.4       0.2       0.0       0.3
 5 O  dyz             0.1       0.0       0.4       0.0       0.0       0.2
 5 O  dx2y2           0.5       0.0       0.1       0.0       0.2       0.3
 5 O  dxy             1.2       0.0       0.0       0.0       0.0       0.3
 6 C  s               0.2       0.2       0.0       0.0       0.0       0.1
 6 C  pz              1.2       0.5       8.6       1.0       1.8       7.5
 6 C  px              2.1       3.2       1.8       0.3       0.0       0.3
 6 C  py             13.0       1.0       0.0       0.2       0.3       0.2
 6 C  dz2             0.0       0.1       0.0       0.0       0.0       0.1
 6 C  dxz             0.1       0.0       0.0       0.0       0.0       0.0
 6 C  dyz             0.0       0.1       0.5       0.1       0.1       0.3
 6 C  dx2y2           0.0       0.3       0.0       0.0       0.0       0.1
 6 C  dxy             0.1       0.0       0.1       0.0       0.0       0.1
 7 C  s               0.3       0.0       0.0       0.0       0.0       0.0
 7 C  pz              0.0       3.5       6.2       1.0       1.0       4.4
 7 C  px              1.2      17.6       1.2       0.5       0.0       0.1
 7 C  py             17.1       4.3       0.0       0.1       0.2       0.0
 7 C  dz2             0.1       0.0       0.0       0.0       0.0       0.0
 7 C  dxz             0.1       0.1       0.0       0.0       0.0       0.0
 7 C  dyz             0.0       0.2       0.3       0.1       0.0       0.2
 7 C  dx2y2           0.0       0.2       0.0       0.0       0.0       0.0
 7 C  dxy             0.1       0.0       0.0       0.0       0.0       0.0
 8 H  s               0.8       0.0       0.0       0.1      11.1       1.2
 8 H  px              0.0       0.0       0.1       0.0       0.0       0.0
 8 H  py              0.0       0.0       0.0       0.2       0.0       0.0
 9 H  s               0.9       0.8       6.7       3.3       2.9       0.7
 9 H  py              0.0       0.0       0.0       0.2       0.0       0.0
10 H  s               0.0       3.9       4.9       0.6       1.2       6.4
10 H  px              0.0       0.0       0.0       0.1       0.0       0.0
10 H  py              0.0       0.0       0.0       0.1       0.0       0.0
11 H  s               0.9       0.7       4.9       0.8       1.2       9.7
11 H  pz              0.0       0.0       0.1       0.0       0.1       0.0
11 H  py              0.0       0.0       0.0       0.1       0.0       0.0
12 H  s               0.0       0.1       0.0       1.6      16.3       1.5
12 H  pz              0.0       0.0       0.0       0.1       0.1       0.0
12 H  px              0.0       0.0       0.1       0.0       0.0       0.1
12 H  py              0.1       0.0       0.0       0.1       0.0       0.0
13 H  s               0.7       0.0       0.3       3.3       4.1       0.0
14 H  s               0.3       0.2       0.3      10.1       0.0       0.4
15 H  s               3.1       2.7       5.2       0.4       0.3       2.2
[...]
 4 O  px              0.9       0.1       0.2       0.2       0.0       0.0
 4 O  py              0.5       0.0       0.0       0.0       0.0       0.0
 4 O  dz2             0.0       1.9       0.0      32.5       0.0       0.0
 4 O  dxz             2.9       0.1       1.4       0.6       0.0       0.0
 4 O  dyz             1.4       0.0       0.2       0.2       0.0       0.0
 4 O  dx2y2           0.4       0.0       0.3       0.0       0.0       0.0
 4 O  dxy             0.0       0.0       0.2       0.0       0.0       0.0
 5 O  s               1.8      27.2       5.3       0.9       0.0       0.0
 5 O  pz              1.6       7.2       3.3       0.1       0.0       0.0
 5 O  px              0.0       6.4      25.1       0.6       0.0       0.0
 5 O  py              0.1       0.5       3.0       0.1       0.0       0.0
 5 O  dz2             2.6       1.2       0.5       0.1       0.0       0.0
 5 O  dxz             0.0       0.9      24.5       0.6       0.0       0.0
 5 O  dyz             0.2       0.0       3.1       0.1       0.0       0.0
 5 O  dx2y2           0.3      14.4       1.2       0.8       0.0       0.0
 5 O  dxy             0.0       8.0       0.8       0.6       0.0       0.0
 6 C  s               0.0       1.3       0.5       0.2       3.2       1.0
 6 C  pz              1.0       0.8       0.4       0.0       0.0       0.0
 6 C  px              0.3       5.5       1.6       0.3       0.0       0.0
 6 C  py              0.0       1.1       0.3       0.0       0.0       0.0
 6 C  dz2             0.5       1.3       0.5       0.1       0.0       0.0
 6 C  dxz             0.1       4.8       1.1       0.4       0.0       0.0
 6 C  dyz             2.3       0.5       0.1       0.0       0.0       0.0
 6 C  dx2y2           0.0       4.2       1.0       0.2       0.0       0.0
 6 C  dxy             0.1       2.0       0.4       0.1       0.0       0.0
 7 C  s               0.0       0.0       0.0       0.0      20.4      78.8
 7 C  pz              0.2       0.0       0.0       0.0       0.0       0.0
 7 C  px              0.0       0.1       0.0       0.0       0.0       0.0
 7 C  dz2             0.2       0.0       0.0       0.0       0.0       0.0
 7 C  dxz             0.0       0.1       0.0       0.0       0.0       0.0
 7 C  dyz             1.1       0.1       0.0       0.0       0.0       0.0
 7 C  dx2y2           0.1       0.2       0.0       0.0       0.0       0.0
 7 C  dxy             0.0       0.1       0.0       0.0       0.0       0.0
 9 H  s               0.2       0.0       0.0       0.0       0.0       0.0
 9 H  px              0.5       0.0       0.0       0.0       0.0       0.0
10 H  s               0.6       0.0       0.0       0.0       0.0       0.0
10 H  pz              0.7       0.0       0.0       0.0       0.0       0.0
10 H  px              0.4       0.0       0.0       0.0       0.0       0.0
10 H  py              0.6       0.0       0.0       0.0       0.0       0.0
11 H  s               2.6       0.0       0.0       0.0       0.0       0.0
11 H  pz              1.0       0.0       0.0       0.0       0.0       0.0
11 H  px              3.9       0.0       0.0       0.0       0.0       0.0
11 H  py              1.1       0.0       0.0       0.0       0.0       0.0
12 H  s               2.3       0.0       0.0       0.0       0.0       0.0
12 H  pz              4.4       0.0       0.0       0.0       0.0       0.0
12 H  py              1.4       0.0       0.0       0.0       0.0       0.0
13 H  s               4.0       0.0       0.1       0.0       0.0       0.0
13 H  pz              8.7       0.0       0.0       0.0       0.0       0.0
13 H  py              1.2       0.0       0.1       0.0       0.0       0.0
14 H  s               1.0       0.0       0.0       0.0       0.0       0.0
14 H  pz              0.1       0.0       0.0       0.0       0.0       0.0
14 H  py              1.7       0.0       0.0       0.1       0.0       0.0
15 H  s               0.6       0.4       0.1       0.0       0.0       0.0
15 H  pz              0.7       1.1       0.1       0.0       0.0       0.0
15 H  py              0.6       0.1       0.0       0.0       0.0       0.0
16 H  s               0.9       0.3       0.1       0.0       0.0       0.0
16 H  pz              1.3       0.3       0.0       0.0       0.0       0.0
16 H  px              0.4       0.3       0.2       0.0       0.0       0.0
16 H  py              0.6       0.1       0.0       0.0       0.0       0.0
17 H  s               0.0       0.1       0.0       0.0       0.0       0.0
17 H  px              0.0       0.2       0.0       0.0       0.0       0.0
19 H  s               0.4       0.0       0.0       0.0       0.0       0.0
19 H  pz              0.6       0.0       0.0       0.0       0.0       0.0
19 H  py              0.3       0.0       0.0       0.0       0.0       0.0

                    216       217       218       219       220       221   
                  22.03669  22.04956  22.09140  22.26472  43.69450  43.75753
                   0.00000   0.00000   0.00000   0.00000   0.00000   0.00000
                  --------  --------  --------  --------  --------  --------
 0 C  s              15.1       0.1       1.0       0.0       0.0       0.0
 1 C  s               6.5      87.0       4.9       0.0       0.0       0.0
 2 C  s              34.5      12.2      41.4       0.5       0.0       0.0
 3 C  s               0.1       0.2       0.3      98.3       0.0       0.0
 4 O  s               0.0       0.0       0.0       0.2      99.9       0.0
 4 O  pz              0.0       0.0       0.0       0.2       0.0       0.0
 5 O  s               0.0       0.0       0.1       0.1       0.0      99.9
 6 C  s              43.4       0.1      51.9       0.1       0.0       0.0
 7 C  s               0.1       0.0       0.2       0.1       0.0       0.0



                      *****************************
                      * MAYER POPULATION ANALYSIS *
                      *****************************

  NA   - Mulliken gross atomic population
  ZA   - Total nuclear charge
  QA   - Mulliken gross atomic charge
  VA   - Mayer's total valence
  BVA  - Mayer's bonded valence
  FA   - Mayer's free valence

  ATOM       NA         ZA         QA         VA         BVA        FA
  0 C      6.5308     6.0000    -0.5308     3.8158     3.8158    -0.0000
  1 C      6.2172     6.0000    -0.2172     3.6621     3.6621     0.0000
  2 C      6.3108     6.0000    -0.3108     3.6470     3.6470     0.0000
  3 C      5.6142     6.0000     0.3858     3.8371     3.8371    -0.0000
  4 O      8.5129     8.0000    -0.5129     1.8868     1.8868     0.0000
  5 O      8.1962     8.0000    -0.1962     1.9198     1.9198    -0.0000
  6 C      6.1417     6.0000    -0.1417     3.6475     3.6475    -0.0000
  7 C      6.4978     6.0000    -0.4978     3.8149     3.8149     0.0000
  8 H      0.8416     1.0000     0.1584     0.9600     0.9600    -0.0000
  9 H      0.8400     1.0000     0.1600     0.9583     0.9583    -0.0000
 10 H      0.8390     1.0000     0.1610     0.9608     0.9608    -0.0000
 11 H      0.8399     1.0000     0.1601     0.9569     0.9569    -0.0000
 12 H      0.8509     1.0000     0.1491     0.9637     0.9637     0.0000
 13 H      0.8164     1.0000     0.1836     0.9567     0.9567     0.0000
 14 H      0.8003     1.0000     0.1997     0.9454     0.9454     0.0000
 15 H      0.8264     1.0000     0.1736     0.9470     0.9470    -0.0000
 16 H      0.8288     1.0000     0.1712     0.9563     0.9563     0.0000
 17 H      0.8298     1.0000     0.1702     0.9583     0.9583     0.0000
 18 H      0.8309     1.0000     0.1691     0.9570     0.9570    -0.0000
 19 H      0.8344     1.0000     0.1656     0.9582     0.9582    -0.0000

  Mayer bond orders larger than 0.100000
B(  0-C ,  1-C ) :   0.9079 B(  0-C ,  8-H ) :   0.9776 B(  0-C ,  9-H ) :   0.9676 
B(  0-C , 10-H ) :   0.9741 B(  1-C ,  2-C ) :   0.8896 B(  1-C , 11-H ) :   0.9591 
B(  1-C , 12-H ) :   0.9683 B(  2-C ,  3-C ) :   0.9630 B(  2-C , 13-H ) :   0.9835 
B(  2-C , 14-H ) :   0.9099 B(  3-C ,  4-O ) :   1.7784 B(  3-C ,  5-O ) :   1.0808 
B(  5-O ,  6-C ) :   0.8018 B(  6-C ,  7-C ) :   0.9347 B(  6-C , 15-H ) :   0.9522 
B(  6-C , 16-H ) :   0.9639 B(  7-C , 17-H ) :   0.9600 B(  7-C , 18-H ) :   0.9697 
B(  7-C , 19-H ) :   0.9695 

-------
TIMINGS
-------

Total SCF time: 0 days 0 hours 0 min 35 sec 

Total time                  ....      35.477 sec
Sum of individual times     ....      34.556 sec  ( 97.4%)

SCF preparation             ....       0.457 sec  (  1.3%)
Fock matrix formation       ....      32.761 sec  ( 92.3%)
  Startup                   ....       0.077 sec  (  0.2% of F)
  Split-RI-J                ....       5.392 sec  ( 16.5% of F)
  XC integration            ....      20.494 sec  ( 62.6% of F)
    XC Preparation          ....       0.000 sec  (  0.0% of XC)
    Basis function eval.    ....       3.607 sec  ( 17.6% of XC)
    Density eval.           ....       5.918 sec  ( 28.9% of XC)
    XC-Functional eval.     ....       2.582 sec  ( 12.6% of XC)
    XC-Potential eval.      ....       6.624 sec  ( 32.3% of XC)
  CPCM terms                ....       6.081 sec  ( 18.6% of F)
Diagonalization             ....       0.000 sec  (  0.0%)
Density matrix formation    ....       0.318 sec  (  0.9%)
Total Energy calculation    ....       0.065 sec  (  0.2%)
Population analysis         ....       0.165 sec  (  0.5%)
Orbital Transformation      ....       0.074 sec  (  0.2%)
Orbital Orthonormalization  ....       0.000 sec  (  0.0%)
DIIS solution               ....       0.655 sec  (  1.8%)
  MO trafo                  ....       0.000 sec  (  0.0 % of DIIS)
  Orb grad                  ....       0.000 sec  (  0.0 % of DIIS)
  Energy W gradient         ....       0.000 sec  (  0.0 % of DIIS)
  DIIS error                ....       0.029 sec  (  4.4 % of DIIS)
  DIIS work                 ....       0.555 sec  ( 84.8 % of DIIS)
  Form Q                    ....       0.000 sec  (  0.0 % of DIIS)
  Form QpQm                 ....       0.000 sec  (  0.0 % of DIIS)
  Exp/Cayley                ....       0.000 sec  (  0.0 % of DIIS)
  Orb update                ....       0.000 sec  (  0.0 % of DIIS)
  Wake-sleep                ....       0.031 sec  (  4.8 % of DIIS)
SOSCF solution              ....       0.062 sec  (  0.2%)
  MO trafo                  ....       0.048 sec  ( 77.1 % of SOSCF)
  Orb grad                  ....       0.001 sec  (  1.3 % of SOSCF)
  Rot update                ....       0.000 sec  (  0.1 % of SOSCF)
  Step                      ....       0.013 sec  ( 21.4 % of SOSCF)
Finished LeanSCF after  35.6 sec

Maximum memory used throughout the entire LEANSCF-calculation: 30.6 MB


-------------------------------------------------------------------------------
                          DFT DISPERSION CORRECTION                            
                                                                               
                                DFTD4 V3.4.0                                   
-------------------------------------------------------------------------------
The R2SCAN3C composite method is recognized
Using three-body term ABC
Active option DFTDOPT                   ...         5   

-------------------------   ----------------
Dispersion correction           -0.005088540
-------------------------   ----------------

------------------   -----------------
gCP correction             0.011759926
------------------   -----------------

-------------------------   --------------------
FINAL SINGLE POINT ENERGY      -386.241829188317
-------------------------   --------------------


------------------------------------------------------------------------------
                              ORCA PROPERTY CALCULATIONS
------------------------------------------------------------------------------

GBWName                                 ... sp_solv.gbw
Number of atoms                         ...     20
Number of basis functions               ...    222
Max core memory                         ...   1024 MB

Electric properties:
Dipole moment                           ... YES
Quadrupole moment                       ...  NO
Static polarizability (Dipole/Dipole)   ...  NO
Static polarizability (Dipole/Quad.)    ...  NO
Static polarizability (Quad./Quad.)     ...  NO
Static polarizability (Velocity)        ...  NO

Atomic electric properties:
Dipole moment                           ...  NO
Quadrupole moment                       ...  NO
Static polarizability                   ...  NO

Choice of electric origin               ... Center of mass
Position of electric origin             ...    -0.000010    -0.000001     0.000005

General magnetic properties:
Magnetizability                         ...  NO

EPR properties:
g-Tensor (aka g-matrix)                 ...  NO
Zero-Field splitting spin-orbit         ...  NO
Zero-field splitting spin-spin          ...  NO
Hyperfine couplings                     ...  NO (   0 nuclei)
Quadrupole couplings                    ...  NO (   0 nuclei)
Contact density                         ...  NO (   0 nuclei)

NMR properties:
Chemical shifts                         ...  NO (   0 nuclei)
Spin-rotation constants                 ...  NO (   0 nuclei)
Spin-spin couplings                     ...  NO (   0 nuclei,    0 pairs)

Choice of magnetic origin               ... GIAO
Position of magnetic origin             ...     0.000000     0.000000     0.000000

Properties with geometric perturbations:
SCF Hessian                             ...  NO
IR spectrum                             ...  NO
VCD spectrum                            ...  NO
X-ray spectroscopy properties:
SCF XES/XAS/RIXS spectra                ...  NO


-------------
DIPOLE MOMENT
-------------

Method             : SCF
Type of density    : Electron Density
Multiplicity       :   1
Irrep              :   0
Energy             :  -386.2485005741221471 Eh
Relativity type    : 
Basis              : AO
                                X                 Y                 Z
Electronic contribution:      2.267238759       0.594842788      -0.095875402
Nuclear contribution   :     -1.958648061      -0.573018291       1.117802903
                        -----------------------------------------
Total Dipole Moment    :      0.308590698       0.021824497       1.021927501
                        -----------------------------------------
Magnitude (a.u.)       :      1.067726718
Magnitude (Debye)      :      2.713945637



--------------------
Rotational spectrum 
--------------------
 
Rotational constants in cm-1:             0.171769             0.032263             0.031959 
Rotational constants in MHz :          5149.498817           967.228992           958.093256 

Dipole components along the rotational axes: 
x,y,z [a.u.] :     0.325197     1.013164    -0.088245 
x,y,z [Debye]:     0.826584     2.575257    -0.224302 

 

Dipole moment calculation done in   0.0 sec 

Maximum memory used throughout the entire PROP-calculation: 13.8 MB

--------------------------------
SUGGESTED CITATIONS FOR THIS RUN
--------------------------------

Below you find a list of papers that are relevant to this ORCA run
We neither can nor want to force you to cite these papers, but we appreciate if you do
You receive ORCA, which is the product of decades of hard work by many enthusiastic individuals, for free
The only thing we kindly ask in return is that you cite our papers,
We deeply appreciate it, if you show your appreciation for ORCA by not just citing the generic ORCA reference.

Please note that relegating all ORCA citations to the supporting information does *not* help us.
SI sections are not indexed - citations you put there will not count into any citation statistics
But we need these citations in order to attract the funding resources that allow us to do what we are doing

Therefore, if you are a happy ORCA user, please consider citing a few of the papers listed below in the main body of your paper

In addition to the list printed below, the program has created the file sp_solv.bibtex that contains the list in bibtex format
You can import this file easily into all common literature databanks and citation aid programs


List of essential papers. We consider these as the minimum necessary citations

  1. Neese,F.
     Software update: the ORCA program system, version 5.0
     WIRES Comput. Molec. Sci., 2022 12(1)e1606
     doi.org/10.1002/wcms.1606
  2. Grimme,S.; Hansen,A.; Ehlert,S.; Mewes,J.
     r2SCAN-3c: A 'Swiss army knife' composite electronic-structure method
     J. Chem. Phys., 2021 154 064103
     doi.org/10.1063/5.0040021

List of papers to cite with high priority. The work reported in these papers was absolutely
necessary for this run to complete.
Our perspective: the developers of density functionals and basis sets usually get cited in chemistry papers
Good! But without the algorithms to do something with them, the functionals or basis sets would not do anything.
Hence, in our opinion, the algorithm design and method developments papers are equally worthy of getting cited

  1. Neese,F.
     An improvement of the resolution of the identity approximation for the formation of the Coulomb matrix
     J. Comp. Chem., 2003 24(14)1740-1747
     doi.org/10.1002/jcc.10318
  2. Garcia-Rates,M.; Neese,F.
     Effect of the Solute Cavity on the Solvation Energy and its Derivatives within the Framework of the Gaussian Charge Scheme
     J. Comput. Chem., 2020 41 922-939
     doi.org/10.1002/jcc.26139
  3. Neese,F.
     The SHARK Integral Generation and Digestion System
     J. Comp. Chem., 2022  1-16
     doi.org/10.1002/jcc.26942
  4. Lehtola,S.; Steigemann,C.; Oliveira,M.; Marques,M.
     Recent developments in Libxc - A comprehensive library of functionals for density functional theory
     Software X, 2018 7 
     doi.org/10.1016/j.softx.2017.11.002
  5. Caldeweyher,E.; Bannwarth,C.; Grimme,S.
     Extension of the D3 dispersion coefficient model
     J. Chem. Phys., 2017 147 034112-XXXX
     doi.org/10.1063/1.4993215
  6. Caldeweyher,E.; Ehlert,S.; Hansen,A.; Neugebauer,H.; Spicher,S.; Bannwarth,C.; Grimme,S.
     A generally applicable atomic-charge dependent London dispersion correction
     J. Chem. Phys., 2019 150 154122-XXXX
     doi.org/10.1063/1.5090222
  7. Caldeweyher,E.; Mewes,J.; Ehlert,S.; Grimme,S.
     Extension and evaluation of the D4 London-dispersion model for periodic systems
     Phys. Chem. Chem. Phys., 2020 22(16)8499-8512
     doi.org/10.1039/D0CP00502A

List of suggested additional citations. These are papers that are important in the 'surrounding' of 
of this run, or papers that preceded the highly important papers. If you like your results we are grateful for a citation.

  1. Neese,F.
     The ORCA program system
     WIRES Comput. Molec. Sci., 2012 2(1)73-78
     doi.org/10.1002/wcms.81
  2. Neese,F.
     Software update: the ORCA program system, version 4.0
     WIRES Comput. Molec. Sci., 2018 8(1)1-6
     doi.org/10.1002/wcms.1327
  3. Neese,F.; Wennmohs,F.; Becker,U.; Riplinger,C.
     The ORCA quantum chemistry program package
     J. Chem. Phys., 2020 152 Art. No. L224108
     doi.org/10.1063/5.0004608

List of optional additional citations

  1. Neese,F.
     Approximate second-order SCF convergence for spin unrestricted wavefunctions
     Chem. Phys. Lett., 2000 325(1-3)93-98
     doi.org/10.1016/s0009-2614(00)00662-x

Timings for individual modules:

Sum of individual times          ...       37.780 sec (=   0.630 min)
Startup calculation              ...        1.544 sec (=   0.026 min)   4.1 %
SCF iterations                   ...       36.112 sec (=   0.602 min)  95.6 %
Property calculations            ...        0.124 sec (=   0.002 min)   0.3 %
                             ****ORCA TERMINATED NORMALLY****
TOTAL RUN TIME: 0 days 0 hours 0 minutes 38 seconds 804 msec
