      -----------------------------------------------------------      
     |                   =====================                   |     
     |                           x T B                           |     
     |                   =====================                   |     
     |                         S. Grimme                         |     
     |          Mulliken Center for Theoretical Chemistry        |     
     |                    University of Bonn                     |     
      -----------------------------------------------------------      

   * xtb version 6.7.1 (edcfbbe) compiled by 'albert@albert-system' on 2024-07-22

   xtb is free software: you can redistribute it and/or modify it under
   the terms of the GNU Lesser General Public License as published by
   the Free Software Foundation, either version 3 of the License, or
   (at your option) any later version.
   
   xtb is distributed in the hope that it will be useful,
   but WITHOUT ANY WARRANTY; without even the implied warranty of
   MERCHANTABILITY or FITNESS FOR A PARTICULAR PURPOSE.  See the
   GNU Lesser General Public License for more details.
   
   Cite this work as:
   * C. Bannwarth, E. Caldeweyher, S. Ehlert, A. Hansen, P. Pracht,
     J. Seibert, S. Spicher, S. Grimme, WIREs Comput. Mol. Sci., 2020, 11,
     e01493. DOI: 10.1002/wcms.1493
   
   for GFN2-xTB:
   * C. Bannwarth, S. Ehlert and S. Grimme., J. Chem. Theory Comput., 2019,
     15, 1652-1671. DOI: 10.1021/acs.jctc.8b01176
   for GFN1-xTB:
   * S. Grimme, C. Bannwarth, P. Shushkov, J. Chem. Theory Comput., 2017,
     13, 1989-2009. DOI: 10.1021/acs.jctc.7b00118
   for GFN0-xTB:
   * P. Pracht, E. Caldeweyher, S. Ehlert, S. Grimme, ChemRxiv, 2019, preprint.
     DOI: 10.26434/chemrxiv.8326202.v1
   for GFN-FF:
   * S. Spicher and S. Grimme, Angew. Chem. Int. Ed., 2020, 59, 15665-15673.
     DOI: 10.1002/anie.202004239
   
   for ALPB and GBSA implicit solvation:
   * S. Ehlert, M. Stahn, S. Spicher, S. Grimme, J. Chem. Theory Comput.,
     2021, 17, 4250-4261. DOI: 10.1021/acs.jctc.1c00471
   
   for ddCOSMO and CPCM-X implicit solvation:
   * M. Stahn, S. Ehlert, S. Grimme, J. Phys. Chem. A,
     2023, XX, XXXX-XXXX. DOI: 10.1021/acs.jpca.3c04382
   
   for DFT-D4:
   * E. Caldeweyher, C. Bannwarth and S. Grimme, J. Chem. Phys., 2017,
     147, 034112. DOI: 10.1063/1.4993215
   * E. Caldeweyher, S. Ehlert, A. Hansen, H. Neugebauer, S. Spicher,
     C. Bannwarth and S. Grimme, J. Chem. Phys., 2019, 150, 154122.
     DOI: 10.1063/1.5090222
   * E. Caldeweyher, J.-M. Mewes, S. Ehlert and S. Grimme, Phys. Chem. Chem. Phys.
     2020, 22, 8499-8512. DOI: 10.1039/D0CP00502A
   
   for sTDA-xTB:
   * S. Grimme and C. Bannwarth, J. Chem. Phys., 2016, 145, 054103.
     DOI: 10.1063/1.4959605
   
   in the mass-spec context:
   * V. Asgeirsson, C. Bauer and S. Grimme, Chem. Sci., 2017, 8, 4879.
     DOI: 10.1039/c7sc00601b
   * J. Koopman and S. Grimme, ACS Omega 2019, 4, 12, 15120-15133.
     DOI: 10.1021/acsomega.9b02011
   
   for metadynamics refer to:
   * S. Grimme, J. Chem. Theory Comput., 2019, 155, 2847-2862
     DOI: 10.1021/acs.jctc.9b00143
   
   for SPH calculations refer to:
   * S. Spicher and S. Grimme, J. Chem. Theory Comput., 2021, 17, 1701-1714
     DOI: 10.1021/acs.jctc.0c01306
   
   for ONIOM refer to:
   * C. Plett, A. Katbashev, S. Ehlert, S. Grimme, M. Bursch,
     Phys. Chem. Chem. Phys., 2023, 25, 17860-17868. DOI: 10.1039/D3CP02178E
   
   for DIPRO refer to:
   * J. Kohn, N. Gildemeister, S. Grimme, D. Fazzi, A. Hansen,
     J. Chem. Phys., 2023, just accepted.
   
   for PTB refer to:
   * S. Grimme, M. Mueller, A. Hansen, J. Chem. Phys., 2023, 158, 124111.
     DOI: 10.1063/5.0137838
   
   with help from (in alphabetical order)
   P. Atkinson, C. Bannwarth, F. Bohle, G. Brandenburg, E. Caldeweyher
   M. Checinski, S. Dohm, S. Ehlert, S. Ehrlich, I. Gerasimov, C. Hölzer
   A. Katbashev, J. Kohn, J. Koopman, C. Lavigne, S. Lehtola, F. März, M. Müller,
   F. Musil, H. Neugebauer, J. Pisarek, C. Plett, P. Pracht, F. Pultar,
   J. Seibert, P. Shushkov, S. Spicher, M. Stahn, M. Steiner, T. Strunk,
   J. Stückrath, T. Rose, and J. Unsleber
   
 * started run on 2025/04/11 at 13:31:10.374     
   ID    Z sym.   atoms
    1    6 C      1, 2, 4-9, 11-17
    2    1 H      3, 20-31
    3    9 F      10
    4    8 O      18, 19

           -------------------------------------------------
          |                Calculation Setup                |
           -------------------------------------------------

          program call               : /software/projects/pawsey0265/mwang1/xtb/bin/xtb gas.coord --gfn2 --sp --chrg 0 --norestart --parallel 1
          hostname                   : nid002050
          coordinate file            : gas.coord
          omp threads                :                     1


           -------------------------------------------------
          |                 G F N 2 - x T B                 |
           -------------------------------------------------

        Reference                      10.1021/acs.jctc.8b01176
      * Hamiltonian:
        H0-scaling (s, p, d)           1.850000    2.230000    2.230000
        zeta-weighting                 0.500000
      * Dispersion:
        s8                             2.700000
        a1                             0.520000
        a2                             5.000000
        s9                             5.000000
      * Repulsion:
        kExp                           1.500000    1.000000
        rExp                           1.000000
      * Coulomb:
        alpha                          2.000000
        third order                    shell-resolved
        anisotropic                    true
        a3                             3.000000
        a5                             4.000000
        cn-shift                       1.200000
        cn-exp                         4.000000
        max-rad                        5.000000


          ...................................................
          :                      SETUP                      :
          :.................................................:
          :  # basis functions                  85          :
          :  # atomic orbitals                  85          :
          :  # shells                           49          :
          :  # electrons                        92          :
          :  max. iterations                   250          :
          :  Hamiltonian                  GFN2-xTB          :
          :  restarted?                      false          :
          :  GBSA solvation                  false          :
          :  PC potential                    false          :
          :  electronic temp.          300.0000000     K    :
          :  accuracy                    1.0000000          :
          :  -> integral cutoff          0.2500000E+02      :
          :  -> integral neglect         0.1000000E-07      :
          :  -> SCF convergence          0.1000000E-05 Eh   :
          :  -> wf. convergence          0.1000000E-03 e    :
          :  Broyden damping             0.4000000          :
          :  net charge                          0          :
          :  unpaired electrons                  0          :
          ...................................................

 iter      E             dE          RMSdq      gap      omega  full diag
   1    -52.3118578 -0.523119E+02  0.447E+00    3.70       0.0  T
   2    -52.3705154 -0.586576E-01  0.258E+00    3.69       1.0  T
   3    -52.3666170  0.389838E-02  0.129E+00    3.69       1.0  T
   4    -52.3800933 -0.134763E-01  0.277E-01    3.66       1.0  T
   5    -52.3812622 -0.116895E-02  0.962E-02    3.65       1.0  T
   6    -52.3814117 -0.149479E-03  0.412E-02    3.65       1.0  T
   7    -52.3814236 -0.119190E-04  0.197E-02    3.66       1.0  T
   8    -52.3814304 -0.678814E-05  0.685E-03    3.66       2.6  T
   9    -52.3814309 -0.511159E-06  0.230E-03    3.66       7.8  T
  10    -52.3814310 -0.365371E-07  0.995E-04    3.66      18.1  T
  11    -52.3814310 -0.922049E-08  0.452E-04    3.66      39.8  T

   *** convergence criteria satisfied after 11 iterations ***

         #    Occupation            Energy/Eh            Energy/eV
      -------------------------------------------------------------
         1        2.0000           -0.8077359             -21.9796
       ...           ...                  ...                  ...
        40        2.0000           -0.4314892             -11.7414
        41        2.0000           -0.4261119             -11.5951
        42        2.0000           -0.4189923             -11.4014
        43        2.0000           -0.4164030             -11.3309
        44        2.0000           -0.4134394             -11.2503
        45        2.0000           -0.4061941             -11.0531
        46        2.0000           -0.3916808             -10.6582 (HOMO)
        47                         -0.2572636              -7.0005 (LUMO)
        48                         -0.2397307              -6.5234
        49                         -0.2343318              -6.3765
        50                         -0.2243240              -6.1042
        51                         -0.2078864              -5.6569
       ...                                ...                  ...
        85                          0.6811856              18.5360
      -------------------------------------------------------------
                  HL-Gap            0.1344172 Eh            3.6577 eV
             Fermi-level           -0.3244722 Eh           -8.8293 eV

 SCC (total)                   0 d,  0 h,  0 min,  0.072 sec
 SCC setup                      ...        0 min,  0.000 sec (  0.683%)
 Dispersion                     ...        0 min,  0.001 sec (  0.789%)
 classical contributions        ...        0 min,  0.000 sec (  0.121%)
 integral evaluation            ...        0 min,  0.010 sec ( 13.596%)
 iterations                     ...        0 min,  0.048 sec ( 66.890%)
 molecular gradient             ...        0 min,  0.013 sec ( 17.635%)
 printout                       ...        0 min,  0.000 sec (  0.254%)

         :::::::::::::::::::::::::::::::::::::::::::::::::::::
         ::                     SUMMARY                     ::
         :::::::::::::::::::::::::::::::::::::::::::::::::::::
         :: total energy             -51.619196583335 Eh    ::
         :: gradient norm              0.033593701173 Eh/a0 ::
         :: HOMO-LUMO gap              3.657679059655 eV    ::
         ::.................................................::
         :: SCC energy               -52.381457787070 Eh    ::
         :: -> isotropic ES            0.062204966612 Eh    ::
         :: -> anisotropic ES          0.002282603058 Eh    ::
         :: -> anisotropic XC          0.015694499403 Eh    ::
         :: -> dispersion             -0.031523462987 Eh    ::
         :: repulsion energy           0.762261203735 Eh    ::
         :: add. restraining           0.000000000000 Eh    ::
         :: total charge               0.000000000000 e     ::
         :::::::::::::::::::::::::::::::::::::::::::::::::::::

           -------------------------------------------------
          |                Property Printout                |
           -------------------------------------------------

    * Orbital Energies and Occupations

         #    Occupation            Energy/Eh            Energy/eV
      -------------------------------------------------------------
         1        2.0000           -0.8077359             -21.9796
       ...           ...                  ...                  ...
        34        2.0000           -0.4744827             -12.9113
        35        2.0000           -0.4727009             -12.8628
        36        2.0000           -0.4681866             -12.7400
        37        2.0000           -0.4614946             -12.5579
        38        2.0000           -0.4497997             -12.2397
        39        2.0000           -0.4451685             -12.1137
        40        2.0000           -0.4314892             -11.7414
        41        2.0000           -0.4261119             -11.5951
        42        2.0000           -0.4189923             -11.4014
        43        2.0000           -0.4164030             -11.3309
        44        2.0000           -0.4134394             -11.2503
        45        2.0000           -0.4061941             -11.0531
        46        2.0000           -0.3916808             -10.6582 (HOMO)
        47                         -0.2572636              -7.0005 (LUMO)
        48                         -0.2397307              -6.5234
        49                         -0.2343318              -6.3765
        50                         -0.2243240              -6.1042
        51                         -0.2078864              -5.6569
        52                         -0.1142608              -3.1092
        53                         -0.0835831              -2.2744
        54                          0.0313301               0.8525
        55                          0.0324791               0.8838
        56                          0.0829097               2.2561
        57                          0.0939787               2.5573
       ...                                ...                  ...
        85                          0.6811856              18.5360
      -------------------------------------------------------------
                  HL-Gap            0.1344172 Eh            3.6577 eV
             Fermi-level           -0.3244722 Eh           -8.8293 eV

     #   Z          covCN         q      C6AA      α(0)
     1   6 C        3.756    -0.105    22.568     6.773
     2   6 C        3.858    -0.042    21.284     6.561
     3   1 H        0.924     0.062     2.179     2.308
     4   6 C        2.984     0.015    27.681     8.630
     5   6 C        2.920    -0.044    29.083     8.844
     6   6 C        2.931    -0.037    28.912     8.818
     7   6 C        2.972    -0.005    28.144     8.702
     8   6 C        2.791     0.162    24.481     8.105
     9   6 C        2.920    -0.056    29.384     8.889
    10   9 F        0.786    -0.231    11.565     4.017
    11   6 C        2.976     0.018    27.606     8.619
    12   6 C        2.925    -0.034    28.846     8.808
    13   6 C        2.919    -0.029    28.723     8.789
    14   6 C        2.920    -0.029    28.728     8.789
    15   6 C        2.919    -0.028    28.703     8.786
    16   6 C        2.924    -0.027    28.675     8.781
    17   6 C        2.700     0.363    20.837     7.471
    18   8 O        0.856    -0.414    21.961     6.283
    19   8 O        1.659    -0.369    20.250     6.075
    20   1 H        0.925     0.048     2.350     2.397
    21   1 H        0.925     0.064     2.151     2.294
    22   1 H        0.925     0.048     2.343     2.394
    23   1 H        0.926     0.044     2.397     2.421
    24   1 H        0.926     0.048     2.348     2.396
    25   1 H        0.926     0.075     2.036     2.231
    26   1 H        0.926     0.031     2.565     2.505
    27   1 H        0.926     0.031     2.566     2.505
    28   1 H        0.926     0.032     2.559     2.502
    29   1 H        0.926     0.034     2.530     2.488
    30   1 H        0.926     0.043     2.414     2.430
    31   1 H        0.803     0.332     0.633     1.250

 Mol. C6AA /au·bohr⁶  :      11934.642108
 Mol. C8AA /au·bohr⁸  :     290329.581894
 Mol. α(0) /au        :        171.859279


Wiberg/Mayer (AO) data.
largest (>0.10) Wiberg bond orders for each atom

 ---------------------------------------------------------------------------
     #   Z sym  total        # sym  WBO       # sym  WBO       # sym  WBO
 ---------------------------------------------------------------------------
     1   6 C    3.990 --     2 C    0.989    22 H    0.986    20 H    0.985
                            21 H    0.983
     2   6 C    3.993 --     1 C    0.989     4 C    0.973     3 H    0.961
                            17 C    0.949
     3   1 H    0.996 --     2 C    0.961
     4   6 C    3.982 --     5 C    1.405     9 C    1.403     2 C    0.973
                             7 C    0.100
     5   6 C    3.990 --     6 C    1.453     4 C    1.405    23 H    0.967
     6   6 C    3.989 --     5 C    1.453     7 C    1.385    24 H    0.967
                             9 C    0.105
     7   6 C    3.985 --     6 C    1.385     8 C    1.349    11 C    1.044
                             4 C    0.100
     8   6 C    3.885 --     9 C    1.417     7 C    1.349    10 F    0.950
     9   6 C    3.987 --     8 C    1.417     4 C    1.403    25 H    0.961
                             6 C    0.105
    10   9 F    1.080 --     8 C    0.950
    11   6 C    3.989 --    16 C    1.393    12 C    1.388     7 C    1.044
                            14 C    0.106
    12   6 C    3.991 --    13 C    1.452    11 C    1.388    26 H    0.969
                            15 C    0.109
    13   6 C    3.992 --    12 C    1.452    14 C    1.433    27 H    0.971
                            16 C    0.109
    14   6 C    3.987 --    15 C    1.437    13 C    1.433    28 H    0.972
                            11 C    0.106
    15   6 C    3.992 --    16 C    1.448    14 C    1.437    29 H    0.971
                            12 C    0.109
    16   6 C    3.990 --    15 C    1.448    11 C    1.393    30 H    0.970
                            13 C    0.109
    17   6 C    3.909 --    18 O    1.754    19 O    1.151     2 C    0.949
    18   8 O    2.030 --    17 C    1.754    19 O    0.174
    19   8 O    2.214 --    17 C    1.151    31 H    0.861    18 O    0.174
    20   1 H    0.997 --     1 C    0.985
    21   1 H    0.996 --     1 C    0.983
    22   1 H    0.998 --     1 C    0.986
    23   1 H    0.998 --     5 C    0.967
    24   1 H    0.997 --     6 C    0.967
    25   1 H    0.994 --     9 C    0.961
    26   1 H    0.999 --    12 C    0.969
    27   1 H    0.998 --    13 C    0.971
    28   1 H    0.999 --    14 C    0.972
    29   1 H    0.998 --    15 C    0.971
    30   1 H    0.998 --    16 C    0.970
    31   1 H    0.890 --    19 O    0.861
 ---------------------------------------------------------------------------

Topologies differ in total number of bonds
Writing topology from bond orders to xtbtopo.mol

molecular dipole:
                 x           y           z       tot (Debye)
 q only:       -0.060      -1.244      -0.510
   full:       -0.157      -1.377      -0.376       3.649
molecular quadrupole (traceless):
                xx          xy          yy          xz          yz          zz
 q only:        3.330       6.219      -5.576       0.431      -4.917       2.246
  q+dip:        7.509       6.829      -5.963      -0.849      -6.086      -1.545
   full:        5.564       7.091      -7.675      -0.995      -5.897       2.112


           -------------------------------------------------
          | TOTAL ENERGY              -51.619196583335 Eh   |
          | GRADIENT NORM               0.033593701173 Eh/α |
          | HOMO-LUMO GAP               3.657679059655 eV   |
           -------------------------------------------------

------------------------------------------------------------------------
 * finished run on 2025/04/11 at 13:31:10.474     
------------------------------------------------------------------------
 total:
 * wall-time:     0 d,  0 h,  0 min,  0.099 sec
 *  cpu-time:     0 d,  0 h,  0 min,  0.065 sec
 * ratio c/w:     0.653 speedup
 SCF:
 * wall-time:     0 d,  0 h,  0 min,  0.072 sec
 *  cpu-time:     0 d,  0 h,  0 min,  0.048 sec
 * ratio c/w:     0.668 speedup

