
                                 *****************
                                 * O   R   C   A *
                                 *****************

                                            #,                                       
                                            ###                                      
                                            ####                                     
                                            #####                                    
                                            ######                                   
                                           ########,                                 
                                     ,,################,,,,,                         
                               ,,#################################,,                 
                          ,,##########################################,,             
                       ,#########################################, ''#####,          
                    ,#############################################,,   '####,        
                  ,##################################################,,,,####,       
                ,###########''''           ''''###############################       
              ,#####''   ,,,,##########,,,,          '''####'''          '####       
            ,##' ,,,,###########################,,,                        '##       
           ' ,,###''''                  '''############,,,                           
         ,,##''                                '''############,,,,        ,,,,,,###''
      ,#''                                            '''#######################'''  
     '                                                          ''''####''''         
             ,#######,   #######,   ,#######,      ##                                
            ,#'     '#,  ##    ##  ,#'     '#,    #''#        ,####,   ,####,        
            ##       ##  ##   ,#'  ##            #'  '#       #'       #'  '#        
            ##       ##  #######   ##           ,######,      #####,   #    #        
            '#,     ,#'  ##    ##  '#,     ,#' ,#      #,     #,   #   #,  ,#        
             '#######'   ##     ##  '#######'  #'      '#     '####' # '####'        



                #########################################################
                #                        -***-                          #
                #          Department of theory and spectroscopy        #
                #                                                       #
                #                      Frank Neese                      #
                #                                                       #
                #     Directorship, Architecture, Infrastructure        #
                #                    SHARK, DRIVERS                     #
                #        Core code/Algorithms in most modules           #
                #                                                       #
                #        Max Planck Institute fuer Kohlenforschung      #
                #                Kaiser Wilhelm Platz 1                 #
                #                 D-45470 Muelheim/Ruhr                 #
                #                      Germany                          #
                #                                                       #
                #                  All rights reserved                  #
                #                        -***-                          #
                #########################################################


                         Program Version 6.0.0  -   RELEASE  -


 With contributions from (in alphabetic order):
   Daniel Aravena         : Magnetic Suceptibility
   Michael Atanasov       : Ab Initio Ligand Field Theory (pilot matlab implementation)
   Alexander A. Auer      : GIAO ZORA, VPT2 properties, NMR spectrum
   Ute Becker             : All parallelization in ORCA, NUMFREQ, NUMCALC
   Giovanni Bistoni       : ED, misc. LED, open-shell LED, HFLD
   Martin Brehm           : Molecular dynamics
   Dmytro Bykov           : pre 5.0 version of the SCF Hessian
   Marcos Casanova-Páez   : Triplet and SCS-CIS(D). UHF-(DLPNO)-IP/EA/STEOM-CCSD. UHF-CVS-IP/STEOM-CCSD
   Vijay G. Chilkuri      : MRCI spin determinant printing, contributions to CSF-ICE
   Pauline Colinet        : FMM embedding
   Dipayan Datta          : RHF DLPNO-CCSD density
   Achintya Kumar Dutta   : EOM-CC, STEOM-CC
   Nicolas Foglia         : Exact transition moments, OPA infrastructure, MCD improvements
   Dmitry Ganyushin       : Spin-Orbit,Spin-Spin,Magnetic field MRCI
   Miquel Garcia          : C-PCM and meta-GGA Hessian, CCSD/C-PCM, Gaussian charge scheme
   Tiago L. C. Gouveia    : GS-ROHF, GS-ROCIS
   Yang Guo               : DLPNO-NEVPT2, F12-NEVPT2, CIM, IAO-localization
   Andreas Hansen         : Spin unrestricted coupled pair/coupled cluster methods
   Ingolf Harden          : AUTO-CI MPn and infrastructure 
   Benjamin Helmich-Paris : MC-RPA, TRAH-(SCF,CASSCF), AVAS, COSX integrals, SCF dyn. polar.
   Lee Huntington         : MR-EOM, pCC
   Robert Izsak           : Overlap fitted RIJCOSX, COSX-SCS-MP3, EOM
   Riya Kayal             : Wick's Theorem for AUTO-CI, AUTO-CI UHF-CCSDT
   Emily Kempfer          : AUTO-CI, RHF CISDT and CCSDT
   Christian Kollmar      : KDIIS, OOCD, Brueckner-CCSD(T), CCSD density, CASPT2, CASPT2-K, improved NEVPT2
   Axel Koslowski         : Symmetry handling
   Simone Kossmann        : Meta GGA functionals, TD-DFT gradient, OOMP2, (MP2 Hessian; deprecated post 5.0)
   Lucas Lang             : DCDCAS
   Marvin Lechner         : AUTO-CI (C++ implementation), FIC-MRCC
   Spencer Leger          : CASSCF response
   Dagmar Lenk            : GEPOL surface, SMD, ORCA-2-JSON
   Dimitrios Liakos       : Extrapolation schemes; Compound Job, initial MDCI parallelization
   Dimitrios Manganas     : Further ROCIS development; embedding schemes. LFT, Crystal Embedding
   Dimitrios Pantazis     : SARC Basis sets
   Anastasios Papadopoulos: AUTO-CI, single reference methods and gradients
   Taras Petrenko         : pre 6.0 DFT Hessian and TD-DFT gradient, (ASA, deprecated), ECA, 1-Electron XAS/XES, NRVS
   Peter Pinski           : DLPNO-MP2, DLPNO-MP2 Gradient
   Christoph Reimann      : Effective Core Potentials
   Marius Retegan         : Local ZFS, SOC
   Christoph Riplinger    : Optimizer, TS searches, QM/MM, DLPNO-CCSD(T), (RO)-DLPNO pert. Triples
   Michael Roemelt        : Original ROCIS implementation
   Masaaki Saitow         : Open-shell DLPNO-CCSD energy and density
   Barbara Sandhoefer     : DKH picture change effects
   Kantharuban Sivalingam : CASSCF convergence/infrastructure, NEVPT2 and variants, FIC-MRCI
   Bernardo de Souza      : ESD, SOC TD-DFT
   Georgi Stoychev        : AutoAux, RI-MP2 NMR, DLPNO-MP2 response, X2C
   Van Anh Tran           : RI-MP2 g-tensors
   Willem Van den Heuvel  : Paramagnetic NMR
   Zikuan Wang            : NOTCH, Electric field optimization 
   Frank Wennmohs         : Technical directorship and infrastructure
   Hang Xu                : AUTO-CI-Response properties 


 We gratefully acknowledge several colleagues who have allowed us to
 interface, adapt or use parts of their codes:
   Stefan Grimme, W. Hujo, H. Kruse, P. Pracht,  : VdW corrections, initial TS optimization,
                  C. Bannwarth, S. Ehlert,         DFT functionals, gCP, sTDA/sTD-DF
                  L. Wittmann, M. Mueller
   Ed Valeev, F. Pavosevic, A. Kumar             : LibInt (2-el integral package), F12 methods
   Garnet Chan, S. Sharma, J. Yang, R. Olivares  : DMRG
   Ulf Ekstrom                                   : XCFun DFT Library
   Mihaly Kallay                                 : mrcc  (arbitrary order and MRCC methods)
   Frank Weinhold                                : gennbo (NPA and NBO analysis)
   Simon Mueller                                 : openCOSMO-RS
   Christopher J. Cramer and Donald G. Truhlar   : smd solvation model
   Lars Goerigk                                  : TD-DFT with DH, B97 family of functionals
   V. Asgeirsson, H. Jonsson                     : NEB implementation
   FAccTs GmbH                                   : IRC, NEB, NEB-TS, DLPNO-Multilevel, CI-OPT
                                                   MM, QMMM, 2- and 3-layer-ONIOM, Crystal-QMMM,
                                                   LR-CPCM, SF, NACMEs, symmetry and pop. for TD-DFT,
                                                   nearIR, NL-DFT gradient (VV10), updates on ESD,
                                                   ML-optimized integration grids, MBIS, APM,
                                                   GOAT, DOCKER, SOLVATOR, interface openCOSMO-RS
   S Lehtola, MJT Oliveira, MAL Marques          : LibXC Library
   Liviu Ungur et al                             : ANISO software


 Your calculation uses the libint2 library for the computation of 2-el integrals
 For citations please refer to: http://libint.valeyev.net

 Your ORCA version has been built with support for libXC version: 6.2.2
 For citations please refer to: https://libxc.gitlab.io

 This ORCA versions uses:
   CBLAS   interface :  Fast vector & matrix operations
   LAPACKE interface :  Fast linear algebra routines
   SCALAPACK package :  Parallel linear algebra routines
   Shared memory     :  Shared parallel matrices
   BLAS/LAPACK       :  OpenBLAS 0.3.27  USE64BITINT DYNAMIC_ARCH NO_AFFINITY SkylakeX SINGLE_THREADED
        Core in use  :  SkylakeX
   Copyright (c) 2011-2014, The OpenBLAS Project


Your calculation utilizes the geometrical counterpoise correction gCP
Please cite in your paper:
H.Kruse, S. Grimme J.Chem.Phys., 136, (2012), 154101 
   

Your calculation utilizes the atom-pairwise dispersion correction
based on EEQ partial charges (D4)


================================================================================

----- Orbital basis set information -----
Your calculation utilizes the basis: def2-SV(P)
   F. Weigend and R. Ahlrichs, Phys. Chem. Chem. Phys. 7, 3297 (2005).

----- AuxJ basis set information -----
Your calculation utilizes the auxiliary basis: def2/J
   F. Weigend, Phys. Chem. Chem. Phys. 8, 1057 (2006).

================================================================================
                                        WARNINGS
                       Please study these warnings very carefully!
================================================================================


================================================================================
                                       INPUT FILE
================================================================================
NAME = sp.inp
|  1> ! pbe def2-sv(p) def2/J RI DEFGRID1 loosescf d4 GCP(DFT/SV(P)) printgap
|  2> %output
|  3>     printlevel normal
|  4> end
|  5> * xyz 0 1
|  6> C -3.8747151505 -0.3838968724 -0.3128134768
|  7> C -2.6978438825 0.0715831916 0.5414793711
|  8> C -1.3699554012 -0.1283424547 -0.1844476682
|  9> C -0.1807665452 0.301399388 0.6770274758
| 10> C 1.1088723678 0.2401514358 -0.0986064677
| 11> O 1.2501166956 0.6145074136 -1.2440086791
| 12> O 2.0880128958 -0.2783597518 0.6335052125
| 13> C 3.3973936342 -0.3940278818 0.0658262354
| 14> H -4.8118285158 -0.2297288881 0.2155967889
| 15> H -3.907494962 0.1764497286 -1.2442532449
| 16> H -3.7846047167 -1.4405812996 -0.5533961387
| 17> H -2.8177407711 1.1275492664 0.7908144708
| 18> H -2.6865796851 -0.4934744227 1.4754372735
| 19> H -1.3595986937 0.4524975884 -1.1090859947
| 20> H -1.2574510301 -1.1803387482 -0.4550961043
| 21> H -0.0845494519 -0.3194899849 1.5669628846
| 22> H -0.3198441182 1.3393197282 0.9892204443
| 23> H 3.7414614509 -1.4071503883 0.2600576092
| 24> H 4.0477226757 0.3287530831 0.5563163858
| 25> H 3.3545035598 -0.1965858148 -1.0057895668
| 26> *
| 27> 
| 28>                          ****END OF INPUT****
================================================================================

                       ****************************
                       * Single Point Calculation *
                       ****************************

---------------------------------
CARTESIAN COORDINATES (ANGSTROEM)
---------------------------------
  C     -3.874715   -0.383897   -0.312813
  C     -2.697844    0.071583    0.541479
  C     -1.369955   -0.128342   -0.184448
  C     -0.180767    0.301399    0.677027
  C      1.108872    0.240151   -0.098606
  O      1.250117    0.614507   -1.244009
  O      2.088013   -0.278360    0.633505
  C      3.397394   -0.394028    0.065826
  H     -4.811829   -0.229729    0.215597
  H     -3.907495    0.176450   -1.244253
  H     -3.784605   -1.440581   -0.553396
  H     -2.817741    1.127549    0.790814
  H     -2.686580   -0.493474    1.475437
  H     -1.359599    0.452498   -1.109086
  H     -1.257451   -1.180339   -0.455096
  H     -0.084549   -0.319490    1.566963
  H     -0.319844    1.339320    0.989220
  H      3.741461   -1.407150    0.260058
  H      4.047723    0.328753    0.556316
  H      3.354504   -0.196586   -1.005790

----------------------------
CARTESIAN COORDINATES (A.U.)
----------------------------
  NO LB      ZA    FRAG     MASS         X           Y           Z
   0 C     6.0000    0    12.011   -7.322150   -0.725460   -0.591132
   1 C     6.0000    0    12.011   -5.098186    0.135273    1.023248
   2 C     6.0000    0    12.011   -2.588841   -0.242532   -0.348556
   3 C     6.0000    0    12.011   -0.341599    0.569562    1.279397
   4 C     6.0000    0    12.011    2.095465    0.453820   -0.186339
   5 O     8.0000    0    15.999    2.362378    1.161251   -2.350836
   6 O     8.0000    0    15.999    3.945773   -0.526024    1.197151
   7 C     6.0000    0    12.011    6.420144   -0.744605    0.124394
   8 H     1.0000    0     1.008   -9.093038   -0.434125    0.407419
   9 H     1.0000    0     1.008   -7.384095    0.333442   -2.351298
  10 H     1.0000    0     1.008   -7.151866   -2.722304   -1.045767
  11 H     1.0000    0     1.008   -5.324758    2.130759    1.494423
  12 H     1.0000    0     1.008   -5.076900   -0.932532    2.788172
  13 H     1.0000    0     1.008   -2.569269    0.855097   -2.095869
  14 H     1.0000    0     1.008   -2.376238   -2.230517   -0.860007
  15 H     1.0000    0     1.008   -0.159775   -0.603749    2.961131
  16 H     1.0000    0     1.008   -0.604418    2.530947    1.869356
  17 H     1.0000    0     1.008    7.070337   -2.659129    0.491438
  18 H     1.0000    0     1.008    7.649087    0.621253    1.051286
  19 H     1.0000    0     1.008    6.339093   -0.371493   -1.900667

--------------------------------
INTERNAL COORDINATES (ANGSTROEM)
--------------------------------
 C      0   0   0     0.000000000000     0.00000000     0.00000000
 C      1   0   0     1.523910870136     0.00000000     0.00000000
 C      2   1   0     1.526508483175   111.47245010     0.00000000
 C      3   2   1     1.530028630559   111.81210991   181.10289770
 C      4   3   2     1.506163288585   111.35368592   186.11239864
 O      5   4   3     1.213275971958   124.98046792    42.44027473
 O      5   4   3     1.327990036681   111.30247963   222.32691371
 C      7   5   4     1.431822773751   119.15857045   181.05004910
 H      1   2   3     1.086814904068   110.54460761   180.32434433
 H      1   2   3     1.087493848669   110.45181255   300.42135841
 H      1   2   3     1.087465809197   110.51529484    60.22376143
 H      2   1   3     1.091607808220   109.41165344   121.03583086
 H      2   1   3     1.091647540682   109.44320665   239.00175513
 H      3   2   1     1.091988302085   109.95334292    60.30767362
 H      3   2   1     1.092064105727   109.48958047   302.35038992
 H      4   3   2     1.089378893801   111.62486221    64.32472997
 H      4   3   2     1.092742263067   109.19106522   304.22155343
 H      8   7   5     1.087439976382   107.08512538   228.56762178
 H      8   7   5     1.088999895812   108.29575785   109.48139257
 H      8   7   5     1.090496838981   109.81684102   349.05559439

---------------------------
INTERNAL COORDINATES (A.U.)
---------------------------
 C      0   0   0     0.000000000000     0.00000000     0.00000000
 C      1   0   0     2.879774197063     0.00000000     0.00000000
 C      2   1   0     2.884682974308   111.47245010     0.00000000
 C      3   2   1     2.891335088816   111.81210991   181.10289770
 C      4   3   2     2.846236128392   111.35368592   186.11239864
 O      5   4   3     2.292759311867   124.98046792    42.44027473
 O      5   4   3     2.509537477903   111.30247963   222.32691371
 C      7   5   4     2.705752914701   119.15857045   181.05004910
 H      1   2   3     2.053782526952   110.54460761   180.32434433
 H      1   2   3     2.055065546308   110.45181255   300.42135841
 H      1   2   3     2.055012559386   110.51529484    60.22376143
 H      2   1   3     2.062839803186   109.41165344   121.03583086
 H      2   1   3     2.062914886657   109.44320665   239.00175513
 H      3   2   1     2.063558832387   109.95334292    60.30767362
 H      3   2   1     2.063702080510   109.48958047   302.35038992
 H      4   3   2     2.058627765358   111.62486221    64.32472997
 H      4   3   2     2.064983612158   109.19106522   304.22155343
 H      8   7   5     2.054963742440   107.08512538   228.56762178
 H      8   7   5     2.057911562954   108.29575785   109.48139257
 H      8   7   5     2.060740375581   109.81684102   349.05559439

---------------------
BASIS SET INFORMATION
---------------------
There are 3 groups of distinct atoms

 Group   1 Type C   : 7s4p1d contracted to 3s2p1d pattern {511/31/1}
 Group   2 Type O   : 7s4p1d contracted to 3s2p1d pattern {511/31/1}
 Group   3 Type H   : 4s contracted to 2s pattern {31}

Atom   0C    basis set group =>   1
Atom   1C    basis set group =>   1
Atom   2C    basis set group =>   1
Atom   3C    basis set group =>   1
Atom   4C    basis set group =>   1
Atom   5O    basis set group =>   2
Atom   6O    basis set group =>   2
Atom   7C    basis set group =>   1
Atom   8H    basis set group =>   3
Atom   9H    basis set group =>   3
Atom  10H    basis set group =>   3
Atom  11H    basis set group =>   3
Atom  12H    basis set group =>   3
Atom  13H    basis set group =>   3
Atom  14H    basis set group =>   3
Atom  15H    basis set group =>   3
Atom  16H    basis set group =>   3
Atom  17H    basis set group =>   3
Atom  18H    basis set group =>   3
Atom  19H    basis set group =>   3
---------------------------------
AUXILIARY/J BASIS SET INFORMATION
---------------------------------
There are 3 groups of distinct atoms

 Group   1 Type C   : 12s5p4d2f1g contracted to 6s4p3d1f1g pattern {711111/2111/211/2/1}
 Group   2 Type O   : 12s5p4d2f1g contracted to 6s4p3d1f1g pattern {711111/2111/211/2/1}
 Group   3 Type H   : 5s2p1d contracted to 3s1p1d pattern {311/2/1}

Atom   0C    basis set group =>   1
Atom   1C    basis set group =>   1
Atom   2C    basis set group =>   1
Atom   3C    basis set group =>   1
Atom   4C    basis set group =>   1
Atom   5O    basis set group =>   2
Atom   6O    basis set group =>   2
Atom   7C    basis set group =>   1
Atom   8H    basis set group =>   3
Atom   9H    basis set group =>   3
Atom  10H    basis set group =>   3
Atom  11H    basis set group =>   3
Atom  12H    basis set group =>   3
Atom  13H    basis set group =>   3
Atom  14H    basis set group =>   3
Atom  15H    basis set group =>   3
Atom  16H    basis set group =>   3
Atom  17H    basis set group =>   3
Atom  18H    basis set group =>   3
Atom  19H    basis set group =>   3
------------------------------------------------------------------------------
                             ORCA STARTUP CALCULATIONS
                           -- RI-GTO INTEGRALS CHOSEN --
------------------------------------------------------------------------------
------------------------------------------------------------------------------
                   ___                                                        
                  /   \      - P O W E R E D   B Y -                         
                 /     \                                                     
                 |  |  |   _    _      __       _____    __    __             
                 |  |  |  | |  | |    /  \     |  _  \  |  |  /  |          
                  \  \/   | |  | |   /    \    | | | |  |  | /  /          
                 / \  \   | |__| |  /  /\  \   | |_| |  |  |/  /          
                |  |  |   |  __  | /  /__\  \  |    /   |      \           
                |  |  |   | |  | | |   __   |  |    \   |  |\   \          
                \     /   | |  | | |  |  |  |  | |\  \  |  | \   \       
                 \___/    |_|  |_| |__|  |__|  |_| \__\ |__|  \__/        
                                                                              
                      - O R C A' S   B I G   F R I E N D -                    
                                      &                                       
                       - I N T E G R A L  F E E D E R -                       
                                                                              
 v1 FN, 2020, v2 2021, v3 2022-2024                                           
------------------------------------------------------------------------------


----------------------
SHARK INTEGRAL PACKAGE
----------------------

Number of atoms                             ...     20
Number of basis functions                   ...    136
Number of shells                            ...     72
Maximum angular momentum                    ...      2
Integral batch strategy                     ... SHARK/LIBINT Hybrid
RI-J (if used) integral strategy            ... SPLIT-RIJ (Revised 2003 algorithm where possible)
Printlevel                                  ...      1
Contraction scheme used                     ... SEGMENTED contraction
Prescreening option                         ... SCHWARTZ
   Thresh                                   ... 1.000e-09
   Tcut                                     ... 1.000e-10
   Tpresel                                  ... 1.000e-10 
Coulomb Range Separation                    ... NOT USED
Exchange Range Separation                   ... NOT USED
Multipole approximations                    ... NOT USED
Finite Nucleus Model                        ... NOT USED
CABS basis                                  ... NOT available
Auxiliary Coulomb fitting basis             ... AVAILABLE
   # of basis functions in Aux-J            ...    524
   # of shells in Aux-J                     ...    180
   Maximum angular momentum in Aux-J        ...      4
Auxiliary J/K fitting basis                 ... NOT available
Auxiliary Correlation fitting basis         ... NOT available
Auxiliary 'external' fitting basis          ... NOT available

Checking pre-screening integrals            ... done (  0.0 sec) Dimension = 72
Check shell pair data                       ... done (  0.0 sec)
Shell pair information
Shell pair cut-off parameter TPreSel        ...   1.0e-10
Total number of shell pairs                 ...      2628
Shell pairs after pre-screening             ...      2328
Total number of primitive shell pairs       ...     10580
Primitive shell pairs kept                  ...      6446
          la=0 lb=0:   1027 shell pairs
          la=1 lb=0:    706 shell pairs
          la=1 lb=1:    131 shell pairs
          la=2 lb=0:    321 shell pairs
          la=2 lb=1:    115 shell pairs
          la=2 lb=2:     28 shell pairs

Calculating one electron integrals          ... done (  0.0 sec)
Calculating RI/J V-Matrix + Cholesky decomp.... done (  0.1 sec)
Calculating Nuclear repulsion               ... done (  0.0 sec) ENN=    380.480466765506 Eh

Diagonalization of the overlap matrix:
Smallest eigenvalue                        ... 1.244e-03
Time for diagonalization                   ...    0.002 sec
Threshold for overlap eigenvalues          ... 1.000e-07
Number of eigenvalues below threshold      ... 0
Time for construction of square roots      ...    0.019 sec
Total time needed                          ...    0.037 sec

-------------------
DFT GRID GENERATION
-------------------

General Integration Accuracy     IntAcc      ... 4.159
Radial Grid Type                 RadialGrid  ... OptM3 with GC (2021)
Angular Grid (max. ang.)         AngularGrid ... 3 (Lebedev-194)
Angular grid pruning method      GridPruning ... 4 (adaptive)
Weight generation scheme         WeightScheme... mBecke (2022)
Basis function cutoff            BFCut       ... 1.0000e-10
Integration weight cutoff        WCut        ... 1.0000e-14
Partially contracted basis set               ... off
Rotationally invariant grid construction     ... off
Angular grids for H and He will be reduced by one unit

Total number of grid points                  ...    43074
Total number of batches                      ...      684
Average number of points per batch           ...       62
Average number of grid points per atom       ...     2154
Initializing property integral containers    ... done (  0.0 sec)

SHARK setup successfully completed in   0.7 seconds

Maximum memory used throughout the entire STARTUP-calculation: 21.0 MB
-------------------------------------------------------------------------------
                                 ORCA GUESS
                   Start orbitals & Density for SCF / CASSCF
-------------------------------------------------------------------------------

------------
SCF SETTINGS
------------
Hamiltonian:
 Density Functional     Method          .... DFT(GTOs)
 Exchange Functional    Exchange        .... PBE
   PBE kappa parameter   XKappa         ....  0.804000
   PBE mue parameter    XMuePBE         ....  0.219520
 Correlation Functional Correlation     .... PBE
   PBE beta parameter  CBetaPBE         ....  0.066725
 LDA part of GGA corr.  LDAOpt          .... PW91-LDA
 Gradients option       PostSCFGGA      .... off
   NL short-range parameter             ....  6.400000
 RI-approximation to the Coulomb term is turned on
   Number of AuxJ basis functions       .... 524


General Settings:
 Integral files         IntName         .... sp
 Hartree-Fock type      HFTyp           .... RHF
 Total Charge           Charge          ....    0
 Multiplicity           Mult            ....    1
 Number of Electrons    NEL             ....   64
 Basis Dimension        Dim             ....  136
 Nuclear Repulsion      ENuc            ....    380.4804667655 Eh

Convergence Acceleration:
 AO-DIIS                CNVDIIS         .... on
   Start iteration      DIISMaxIt       ....    12
   Startup error        DIISStart       ....  0.200000
   # of expansion vecs  DIISMaxEq       ....     5
   Bias factor          DIISBfac        ....   1.050
   Max. coefficient     DIISMaxC        ....  10.000
 MO-DIIS                CNVKDIIS        .... off
 Trust-Rad. Augm. Hess. CNVTRAH         .... auto
   Auto Start mean grad. ratio tolernc. ....  1.125000
   Auto Start start iteration           ....    50
   Auto Start num. interpolation iter.  ....    10
   Max. Number of Micro iterations      ....    24
   Max. Number of Macro iterations      .... Maxiter - #DIIS iter
   Number of Davidson start vectors     ....     2
   Converg. threshold    (grad. norm)   ....   1.000e-04
   Grad. Scal. Fac. for Micro threshold ....   0.100
   Minimum threshold for Micro iter.    ....   1.000e-02
   NR start threshold (gradient norm)   ....   1.000e-04
   Initial trust radius                 ....   0.400
   Minimum AH scaling param. (alpha)    ....   1.000
   Maximum AH scaling param. (alpha)    .... 1000.000
   Quad. conv. algorithm                .... NR
   White noise on init. David. guess    .... on
   Maximum white noise                  ....   0.010
   Pseudo random numbers                .... off
   Inactive MOs                         .... canonical
   Orbital update algorithm             .... Taylor
   Preconditioner                       .... Diag
   Full preconditioner red. dimension   ....   250
 SOSCF                  CNVSOSCF        .... on
   Start iteration      SOSCFMaxIt      ....   150
   Startup grad/error   SOSCFStart      ....  0.003300
   Hessian update       SOSCFHessUp     .... L-BFGS
 Level Shifting         CNVShift        .... on
   Level shift para.    LevelShift      ....    0.2500
   Turn off err/grad.   ShiftErr        ....    0.0010
 Zerner damping         CNVZerner       .... off
 Static damping         CNVDamp         .... on
   Fraction old density DampFac         ....    0.7000
   Max. Damping (<1)    DampMax         ....    0.9800
   Min. Damping (>=0)   DampMin         ....    0.0000
   Turn off err/grad.   DampErr         ....    0.1000

SCF Procedure:
 Maximum # iterations   MaxIter         ....   125
 SCF integral mode      SCFMode         .... Direct
   Integral package                     .... SHARK and LIBINT hybrid scheme
 Reset frequency        DirectResetFreq ....    20
 Integral Threshold     Thresh          ....  1.000e-09 Eh
 Primitive CutOff       TCut            ....  1.000e-10 Eh

Convergence Tolerance:
 Convergence Check Mode ConvCheckMode   .... Total+1el-Energy
 Convergence forced     ConvForced      .... 0
 Energy Change          TolE            ....  1.000e-05 Eh
 1-El. energy change                    ....  1.000e-02 Eh
 Orbital Gradient       TolG            ....  1.000e-04
 Orbital Rotation angle TolX            ....  1.000e-04
 DIIS Error             TolErr          ....  5.000e-04

------------------------------
INITIAL GUESS: MODEL POTENTIAL
------------------------------
Loading Hartree-Fock densities                     ... done
Calculating cut-offs                               ... done
Initializing the effective Hamiltonian             ... done
Setting up the integral package (SHARK)            ... done
Starting the Coulomb interaction                   ... done (   0.1 sec)
Making the grid                                    ... done (   0.2 sec)
Mapping shells                                     ... done
Starting the XC term evaluation                    ... done (   0.2 sec)
  promolecular density results
     # of electrons  =     63.990263213
     EX              =    -50.543175172
     EC              =     -2.106666674
     EX+EC           =    -52.649841847
Transforming the Hamiltonian                       ... done (   0.0 sec)
Diagonalizing the Hamiltonian                      ... done (   0.0 sec)
Back transforming the eigenvectors                 ... done (   0.0 sec)
Now organizing SCF variables                       ... done
                      ------------------
                      INITIAL GUESS DONE (   0.5 sec)
                      ------------------
             **** ENERGY FILE WAS UPDATED (sp.en.tmp) ****
Finished Guess after   0.7 sec
Maximum memory used throughout the entire GUESS-calculation: 16.0 MB

-------------------------------------------------------------------------------------------
                                      ORCA LEAN-SCF
                              memory conserving SCF solver
-------------------------------------------------------------------------------------------

----------------------------------------D-I-I-S--------------------------------------------
Iteration    Energy (Eh)           Delta-E    RMSDP     MaxDP     DIISErr   Damp  Time(sec)
-------------------------------------------------------------------------------------------
               ***  Starting incremental Fock matrix formation  ***
    1    -385.2861628346293514     0.00e+00  5.02e-03  1.03e-01  2.47e-01  0.700   0.8
    2    -385.4082798115554738    -1.22e-01  3.14e-03  5.58e-02  7.51e-02  0.700   0.8
                               ***Turning on AO-DIIS***
    3    -385.4455857053744126    -3.73e-02  1.27e-03  1.43e-02  2.54e-02  0.700   0.8
    4    -385.4701386130099650    -2.46e-02  1.80e-03  2.25e-02  1.57e-02  0.000   0.8
    5    -385.5271593820287421    -5.70e-02  5.78e-04  7.69e-03  8.89e-03  0.000   0.8
                              *** Initializing SOSCF ***
---------------------------------------S-O-S-C-F--------------------------------------
Iteration    Energy (Eh)           Delta-E    RMSDP     MaxDP     MaxGrad    Time(sec)
--------------------------------------------------------------------------------------
    6    -385.5278959964103365    -7.37e-04  2.18e-04  2.59e-03  3.29e-03     0.7
               *** Restarting incremental Fock matrix formation ***
    7    -385.5279526596049777    -5.67e-05  1.58e-04  2.85e-03  6.72e-04     0.8
    8    -385.5279326180353223     2.00e-05  8.72e-05  2.24e-03  2.05e-03     0.7
    9    -385.5279591497171054    -2.65e-05  6.65e-05  1.06e-03  3.12e-04     0.7
   10    -385.5279556854688394     3.46e-06  3.85e-05  7.65e-04  4.07e-04     0.7
                 **** Energy Check signals convergence ****

               *****************************************************
               *                     SUCCESS                       *
               *           SCF CONVERGED AFTER  10 CYCLES          *
               *****************************************************

             **** ENERGY FILE WAS UPDATED (sp.en.tmp) ****

----------------
TOTAL SCF ENERGY
----------------

Total Energy       :       -385.52795568546884 Eh          -10490.74901 eV

Components:
Nuclear Repulsion  :        380.48046676550558 Eh           10353.39986 eV
Electronic Energy  :       -766.00842245097442 Eh          -20844.14887 eV
One Electron Energy:      -1277.45509219410064 Eh          -34761.32029 eV
Two Electron Energy:        511.44666974312622 Eh           13917.17142 eV

Virial components:
Potential Energy   :       -767.92487385020934 Eh          -20896.29816 eV
Kinetic Energy     :        382.39691816474050 Eh           10405.54915 eV
Virial Ratio       :          2.00818792561341

DFT components:
N(Alpha)           :       32.000047287242 electrons
N(Beta)            :       32.000047287242 electrons
N(Total)           :       64.000094574484 electrons
E(X)               :      -51.600747701057 Eh       
E(C)               :       -2.123259506643 Eh       
E(XC)              :      -53.724007207700 Eh       

---------------
SCF CONVERGENCE
---------------

  Last Energy change         ...   -3.4642e-06  Tolerance :   1.0000e-05
  Last MAX-Density change    ...    7.6533e-04  Tolerance :   1.0000e-03
  Last RMS-Density change    ...    3.8540e-05  Tolerance :   1.0000e-04
  Last DIIS Error            ...    3.2935e-03  Tolerance :   5.0000e-04
  Last Orbital Gradient      ...    4.0689e-04  Tolerance :   1.0000e-04
  Last Orbital Rotation      ...    3.8722e-04  Tolerance :   1.0000e-04


----------------
ORBITAL ENERGIES
----------------

  NO   OCC          E(Eh)            E(eV) 
   0   2.0000     -18.798926      -511.5448 
   1   2.0000     -18.731099      -509.6991 
   2   2.0000     -10.005038      -272.2509 
   3   2.0000      -9.939399      -270.4648 
   4   2.0000      -9.896755      -269.3044 
   5   2.0000      -9.887206      -269.0445 
   6   2.0000      -9.885807      -269.0065 
   7   2.0000      -9.874764      -268.7060 
   8   2.0000      -1.003751       -27.3135 
   9   2.0000      -0.908507       -24.7217 
  10   2.0000      -0.729529       -19.8515 
  11   2.0000      -0.686825       -18.6895 
  12   2.0000      -0.646804       -17.6004 
  13   2.0000      -0.576725       -15.6935 
  14   2.0000      -0.520903       -14.1745 
  15   2.0000      -0.502338       -13.6693 
  16   2.0000      -0.444420       -12.0933 
  17   2.0000      -0.440861       -11.9964 
  18   2.0000      -0.425771       -11.5858 
  19   2.0000      -0.410279       -11.1643 
  20   2.0000      -0.389159       -10.5895 
  21   2.0000      -0.373856       -10.1731 
  22   2.0000      -0.370054       -10.0697 
  23   2.0000      -0.349936        -9.5222 
  24   2.0000      -0.333504        -9.0751 
  25   2.0000      -0.311482        -8.4758 
  26   2.0000      -0.302459        -8.2303 
  27   2.0000      -0.296347        -8.0640 
  28   2.0000      -0.286914        -7.8073 
  29   2.0000      -0.285196        -7.7606 
  30   2.0000      -0.254938        -6.9372 
  31   2.0000      -0.219390        -5.9699 
  32   0.0000      -0.017598        -0.4789 
  33   0.0000       0.039447         1.0734 
  34   0.0000       0.055793         1.5182 
  35   0.0000       0.067485         1.8364 
  36   0.0000       0.071393         1.9427 
  37   0.0000       0.081610         2.2207 
  38   0.0000       0.095394         2.5958 
  39   0.0000       0.105657         2.8751 
  40   0.0000       0.115304         3.1376 
  41   0.0000       0.123501         3.3606 
  42   0.0000       0.126805         3.4505 
*Only the first 10 virtual orbitals were printed.

                    ********************************
                    * MULLIKEN POPULATION ANALYSIS *
                    ********************************

-----------------------
MULLIKEN ATOMIC CHARGES
-----------------------
   0 C :   -0.256406
   1 C :   -0.173747
   2 C :   -0.219414
   3 C :   -0.128206
   4 C :    0.111942
   5 O :   -0.204401
   6 O :   -0.238209
   7 C :   -0.130863
   8 H :    0.101909
   9 H :    0.099816
  10 H :    0.097696
  11 H :    0.083596
  12 H :    0.082637
  13 H :    0.105159
  14 H :    0.087768
  15 H :    0.095021
  16 H :    0.108887
  17 H :    0.121969
  18 H :    0.121534
  19 H :    0.133310
Sum of atomic charges:   -0.0000000

--------------------------------
MULLIKEN REDUCED ORBITAL CHARGES
--------------------------------
  0 C s       :     3.078304  s :     3.078304
      pz      :     1.049137  p :     3.148691
      px      :     1.035948
      py      :     1.063606
      dz2     :     0.005748  d :     0.029410
      dxz     :     0.006146
      dyz     :     0.005901
      dx2y2   :     0.009387
      dxy     :     0.002229

  1 C s       :     3.054628  s :     3.054628
      pz      :     1.052389  p :     3.081950
      px      :     0.986752
      py      :     1.042809
      dz2     :     0.007603  d :     0.037169
      dxz     :     0.006957
      dyz     :     0.007231
      dx2y2   :     0.010571
      dxy     :     0.004807

  2 C s       :     3.103785  s :     3.103785
      pz      :     1.062204  p :     3.079289
      px      :     0.965939
      py      :     1.051146
      dz2     :     0.006828  d :     0.036340
      dxz     :     0.007192
      dyz     :     0.007445
      dx2y2   :     0.010077
      dxy     :     0.004798

  3 C s       :     2.992372  s :     2.992372
      pz      :     1.061867  p :     3.102491
      px      :     0.987011
      py      :     1.053612
      dz2     :     0.005803  d :     0.033342
      dxz     :     0.007056
      dyz     :     0.007279
      dx2y2   :     0.009699
      dxy     :     0.003506

  4 C s       :     3.045332  s :     3.045332
      pz      :     0.917901  p :     2.712105
      px      :     0.938105
      py      :     0.856099
      dz2     :     0.028241  d :     0.130621
      dxz     :     0.048719
      dyz     :     0.024937
      dx2y2   :     0.013342
      dxy     :     0.015381

  5 O s       :     3.744700  s :     3.744700
      pz      :     1.319085  p :     4.442159
      px      :     1.706207
      py      :     1.416867
      dz2     :     0.007147  d :     0.017542
      dxz     :     0.003741
      dyz     :     0.005493
      dx2y2   :     0.000651
      dxy     :     0.000510

  6 O s       :     3.726312  s :     3.726312
      pz      :     1.619254  p :     4.495660
      px      :     1.211649
      py      :     1.664756
      dz2     :     0.002566  d :     0.016237
      dxz     :     0.005749
      dyz     :     0.002365
      dx2y2   :     0.002786
      dxy     :     0.002772

  7 C s       :     3.131450  s :     3.131450
      pz      :     1.074467  p :     2.948938
      px      :     0.783826
      py      :     1.090645
      dz2     :     0.010953  d :     0.050475
      dxz     :     0.011393
      dyz     :     0.003498
      dx2y2   :     0.012330
      dxy     :     0.012301

  8 H s       :     0.898091  s :     0.898091

  9 H s       :     0.900184  s :     0.900184

 10 H s       :     0.902304  s :     0.902304

 11 H s       :     0.916404  s :     0.916404

 12 H s       :     0.917363  s :     0.917363

 13 H s       :     0.894841  s :     0.894841

 14 H s       :     0.912232  s :     0.912232

 15 H s       :     0.904979  s :     0.904979

 16 H s       :     0.891113  s :     0.891113

 17 H s       :     0.878031  s :     0.878031

 18 H s       :     0.878466  s :     0.878466

 19 H s       :     0.866690  s :     0.866690


------------------------
MULLIKEN OVERLAP CHARGES
------------------------
B(  0-C ,  1-C ) :   0.9045 B(  0-C ,  2-C ) :  -0.1198 B(  0-C ,  8-H ) :   0.7348 
B(  0-C ,  9-H ) :   0.7549 B(  0-C , 10-H ) :   0.7572 B(  1-C ,  2-C ) :   0.8739 
B(  1-C ,  3-C ) :  -0.0958 B(  1-C , 11-H ) :   0.7116 B(  1-C , 12-H ) :   0.7071 
B(  1-C , 14-H ) :  -0.0613 B(  2-C ,  3-C ) :   0.6936 B(  2-C , 13-H ) :   0.6910 
B(  2-C , 14-H ) :   0.7257 B(  3-C ,  4-C ) :   0.4767 B(  3-C ,  5-O ) :  -0.2271 
B(  3-C ,  6-O ) :  -0.2710 B(  3-C , 13-H ) :  -0.0518 B(  3-C , 14-H ) :  -0.0676 
B(  3-C , 15-H ) :   0.5899 B(  3-C , 16-H ) :   0.6094 B(  4-C ,  5-O ) :   1.3872 
B(  4-C ,  6-O ) :   0.7633 B(  4-C ,  7-C ) :  -0.0829 B(  5-O ,  6-O ) :  -0.1655 
B(  5-O , 19-H ) :   0.0834 B(  6-O ,  7-C ) :   0.5529 B(  6-O , 17-H ) :  -0.0554 
B(  6-O , 18-H ) :  -0.0559 B(  6-O , 19-H ) :  -0.0694 B(  7-C , 17-H ) :   0.7710 
B(  7-C , 18-H ) :   0.7767 B(  7-C , 19-H ) :   0.7194 B(  9-H , 10-H ) :  -0.0525 
B( 11-H , 12-H ) :  -0.0710 B( 13-H , 14-H ) :  -0.0647 B( 17-H , 18-H ) :  -0.0557 



                     *******************************
                     * LOEWDIN POPULATION ANALYSIS *
                     *******************************

----------------------
LOEWDIN ATOMIC CHARGES
----------------------
   0 C :   -0.338981
   1 C :   -0.233813
   2 C :   -0.221837
   3 C :   -0.245742
   4 C :    0.037272
   5 O :   -0.171355
   6 O :   -0.074592
   7 C :   -0.209556
   8 H :    0.118815
   9 H :    0.118392
  10 H :    0.117254
  11 H :    0.114530
  12 H :    0.113559
  13 H :    0.123860
  14 H :    0.117433
  15 H :    0.128321
  16 H :    0.141836
  17 H :    0.120454
  18 H :    0.120014
  19 H :    0.124135

-------------------------------
LOEWDIN REDUCED ORBITAL CHARGES
-------------------------------
  0 C s       :     2.944789  s :     2.944789
      pz      :     1.111781  p :     3.323207
      px      :     1.089368
      py      :     1.122058
      dz2     :     0.012937  d :     0.070984
      dxz     :     0.016164
      dyz     :     0.014073
      dx2y2   :     0.022877
      dxy     :     0.004934

  1 C s       :     2.906956  s :     2.906956
      pz      :     1.088989  p :     3.237645
      px      :     1.049011
      py      :     1.099645
      dz2     :     0.016770  d :     0.089212
      dxz     :     0.019664
      dyz     :     0.016740
      dx2y2   :     0.026069
      dxy     :     0.009969

  2 C s       :     2.910313  s :     2.910313
      pz      :     1.091212  p :     3.223662
      px      :     1.026877
      py      :     1.105573
      dz2     :     0.015215  d :     0.087862
      dxz     :     0.020142
      dyz     :     0.017083
      dx2y2   :     0.025715
      dxy     :     0.009708

  3 C s       :     2.915858  s :     2.915858
      pz      :     1.089716  p :     3.245544
      px      :     1.048685
      py      :     1.107142
      dz2     :     0.012893  d :     0.084340
      dxz     :     0.021593
      dyz     :     0.017853
      dx2y2   :     0.024464
      dxy     :     0.007536

  4 C s       :     2.846822  s :     2.846822
      pz      :     1.004898  p :     2.818020
      px      :     0.960928
      py      :     0.852194
      dz2     :     0.067053  d :     0.297886
      dxz     :     0.116397
      dyz     :     0.054709
      dx2y2   :     0.027863
      dxy     :     0.031865

  5 O s       :     3.550065  s :     3.550065
      pz      :     1.450195  p :     4.590327
      px      :     1.711258
      py      :     1.428874
      dz2     :     0.014308  d :     0.030963
      dxz     :     0.006076
      dyz     :     0.008946
      dx2y2   :     0.000906
      dxy     :     0.000727

  6 O s       :     3.450356  s :     3.450356
      pz      :     1.653834  p :     4.591152
      px      :     1.280556
      py      :     1.656761
      dz2     :     0.004246  d :     0.033084
      dxz     :     0.012407
      dyz     :     0.003608
      dx2y2   :     0.006686
      dxy     :     0.006137

  7 C s       :     2.966946  s :     2.966946
      pz      :     1.126614  p :     3.130973
      px      :     0.861262
      py      :     1.143097
      dz2     :     0.025891  d :     0.111637
      dxz     :     0.024391
      dyz     :     0.007283
      dx2y2   :     0.026622
      dxy     :     0.027451

  8 H s       :     0.881185  s :     0.881185

  9 H s       :     0.881608  s :     0.881608

 10 H s       :     0.882746  s :     0.882746

 11 H s       :     0.885470  s :     0.885470

 12 H s       :     0.886441  s :     0.886441

 13 H s       :     0.876140  s :     0.876140

 14 H s       :     0.882567  s :     0.882567

 15 H s       :     0.871679  s :     0.871679

 16 H s       :     0.858164  s :     0.858164

 17 H s       :     0.879546  s :     0.879546

 18 H s       :     0.879986  s :     0.879986

 19 H s       :     0.875865  s :     0.875865


---------------------------------
LOEWDIN BOND ORDERS (THRESH 0.050000)
---------------------------------
B(  0-C ,  1-C ) :   1.1307 B(  0-C ,  2-C ) :   0.0578 B(  0-C ,  8-H ) :   0.9392 
B(  0-C ,  9-H ) :   0.9408 B(  0-C , 10-H ) :   0.9410 B(  1-C ,  2-C ) :   1.0934 
B(  1-C ,  3-C ) :   0.0577 B(  1-C , 11-H ) :   0.9075 B(  1-C , 12-H ) :   0.9077 
B(  2-C ,  3-C ) :   1.0753 B(  2-C ,  4-C ) :   0.0642 B(  2-C , 13-H ) :   0.8993 
B(  2-C , 14-H ) :   0.9055 B(  3-C ,  4-C ) :   1.0570 B(  3-C ,  5-O ) :   0.0941 
B(  3-C ,  6-O ) :   0.0751 B(  3-C , 15-H ) :   0.8962 B(  3-C , 16-H ) :   0.8802 
B(  4-C ,  5-O ) :   2.1989 B(  4-C ,  6-O ) :   1.4055 B(  4-C ,  7-C ) :   0.0761 
B(  5-O ,  6-O ) :   0.2117 B(  6-O ,  7-C ) :   1.1031 B(  7-C , 17-H ) :   0.9526 
B(  7-C , 18-H ) :   0.9514 B(  7-C , 19-H ) :   0.9329 

------------------------------------------
LOEWDIN REDUCED ORBITAL POPULATIONS PER MO
-------------------------------------------
THRESHOLD FOR PRINTING IS 0.1%%
                      0         1         2         3         4         5   
                 -18.79893 -18.73110 -10.00504  -9.93940  -9.89676  -9.88721
                   2.00000   2.00000   2.00000   2.00000   2.00000   2.00000
                  --------  --------  --------  --------  --------  --------
 2 C  s               0.0       0.0       0.0       0.0       0.0      99.6
 3 C  s               0.0       0.0       0.0       0.0      99.6       0.0
 4 C  s               0.0       0.0      99.3       0.0       0.0       0.0
 5 O  s               0.0      99.9       0.0       0.0       0.0       0.0
 5 O  pz              0.0       0.0       0.3       0.0       0.0       0.0
 6 O  s              99.9       0.0       0.0       0.0       0.0       0.0
 7 C  s               0.0       0.0       0.0      99.7       0.0       0.0

                      6         7         8         9        10        11   
                  -9.88581  -9.87476  -1.00375  -0.90851  -0.72953  -0.68683
                   2.00000   2.00000   2.00000   2.00000   2.00000   2.00000
                  --------  --------  --------  --------  --------  --------
 0 C  s               0.0      99.7       0.0       0.0       5.3      10.4
 0 C  pz              0.0       0.0       0.0       0.0       0.3       0.3
 0 C  px              0.1       0.0       0.0       0.0       1.2       0.7
 0 C  py              0.0       0.0       0.0       0.0       0.1       0.1
 1 C  s              99.6       0.0       0.0       0.0      14.5      11.3
 1 C  pz              0.0       0.0       0.0       0.0       0.8       0.5
 1 C  px              0.0       0.1       0.0       0.0       0.9       0.7
 1 C  py              0.0       0.0       0.0       0.0       0.1       0.1
 2 C  s               0.0       0.0       0.1       0.1      20.4       0.8
 2 C  pz              0.0       0.0       0.0       0.0       1.4       0.0
 2 C  px              0.1       0.0       0.1       0.1       0.0       4.6
 2 C  py              0.0       0.0       0.0       0.0       0.2       0.0
 3 C  s               0.0       0.0       1.0       0.3      17.0       6.4
 3 C  pz              0.0       0.0       0.3       0.5       0.6       0.0
 3 C  px              0.0       0.0       1.5       0.1       0.7       2.6
 3 C  py              0.0       0.0       0.0       0.0       0.2       0.0
 4 C  s               0.0       0.0      18.4       5.3       1.8       4.5
 4 C  pz              0.0       0.0       0.0      19.5       2.9       5.6
 4 C  px              0.0       0.0       4.9       1.2       3.7       1.4
 4 C  py              0.0       0.0       0.3       3.5       0.1       0.3
 4 C  dz2             0.0       0.0       0.2       1.1       0.0       0.0
 4 C  dxz             0.0       0.0       0.2       0.4       0.0       0.0
 4 C  dyz             0.0       0.0       0.4       0.2       0.0       0.0
 4 C  dx2y2           0.0       0.0       0.1       0.1       0.0       0.0
 4 C  dxy             0.0       0.0       0.2       0.1       0.0       0.0
 5 O  s               0.0       0.0      10.9      41.9       1.0       1.2
 5 O  pz              0.0       0.0       2.4       4.0       0.1       0.2
 5 O  px              0.0       0.0       0.0       0.1       0.1       0.0
 5 O  py              0.0       0.0       0.3       0.4       0.0       0.0
 5 O  dz2             0.0       0.0       0.1       0.1       0.0       0.0
 6 O  s               0.0       0.0      42.1      15.2       0.0       0.0
 6 O  pz              0.0       0.0       2.6       0.2       0.0       0.0
 6 O  px              0.0       0.0       0.1       0.5       2.2      13.7
 6 O  py              0.0       0.0       0.5       0.1       0.1       0.8
 6 O  dxz             0.0       0.0       0.0       0.0       0.0       0.1
 7 C  s               0.0       0.0       4.7       2.2       1.3      11.8
 7 C  pz              0.0       0.0       0.5       0.5       0.0       0.1
 7 C  px              0.0       0.0       5.0       1.2       0.1       0.2
 7 C  dxz             0.0       0.0       0.2       0.1       0.0       0.0
 7 C  dx2y2           0.0       0.0       0.3       0.1       0.0       0.0
 8 H  s               0.0       0.1       0.0       0.0       0.9       2.0
 9 H  s               0.0       0.1       0.0       0.0       1.0       2.1
10 H  s               0.0       0.1       0.0       0.0       1.0       2.1
11 H  s               0.1       0.0       0.0       0.0       2.7       2.1
12 H  s               0.1       0.0       0.0       0.0       2.7       2.1
13 H  s               0.0       0.0       0.0       0.1       3.5       0.2
14 H  s               0.0       0.0       0.0       0.0       3.7       0.2
15 H  s               0.0       0.0       0.2       0.0       3.2       1.6
16 H  s               0.0       0.0       0.1       0.1       3.3       1.2
17 H  s               0.0       0.0       0.5       0.3       0.2       2.7
18 H  s               0.0       0.0       0.5       0.3       0.2       2.6
19 H  s               0.0       0.0       0.9       0.1       0.3       2.3

                     12        13        14        15        16        17   
                  -0.64680  -0.57672  -0.52090  -0.50234  -0.44442  -0.44086
                   2.00000   2.00000   2.00000   2.00000   2.00000   2.00000
                  --------  --------  --------  --------  --------  --------
 0 C  s              11.8      14.4       4.5       0.0       0.3       0.0
 0 C  pz              0.1       0.3       4.2       0.2       0.7       0.6
 0 C  px              0.0       2.0       1.9       0.1       0.9       0.1
 0 C  py              0.0       0.1       1.0       0.0       0.5       1.2
 0 C  dxz             0.0       0.0       0.1       0.0       0.0       0.0
 1 C  s               2.9       2.5      12.3       0.2       1.0       0.0
 1 C  pz              0.1       0.1       7.8       1.1       0.0       2.3
 1 C  px              4.5       7.8       0.1       0.2       1.2       0.0
 1 C  py              0.1       0.1       1.4       0.3       0.1       3.7
 1 C  dxz             0.1       0.2       0.0       0.0       0.0       0.0
 1 C  dx2y2           0.0       0.0       0.1       0.0       0.0       0.0
 2 C  s               4.3       9.5       6.7       1.9       0.0       0.1
 2 C  pz              0.1       0.2       5.9       2.3       4.0       3.0
 2 C  px              3.4       2.4       2.5       0.2       0.1       0.8
 2 C  py              0.1       0.1       0.9       1.1       0.0       6.6
 2 C  dxz             0.1       0.1       0.1       0.0       0.1       0.0
 3 C  s               7.9       6.7       0.2       2.5       1.8       0.2
 3 C  pz              0.2       0.7       2.8       1.8      10.9       1.6
 3 C  px              1.3       4.9       1.3       0.6       9.9       0.1
 3 C  py              0.0       0.5       0.7       1.5       0.3      12.4
 3 C  dxz             0.0       0.1       0.1       0.0       0.2       0.0
 3 C  dx2y2           0.0       0.0       0.0       0.1       0.2       0.0
 4 C  s               0.6       1.4       0.6       2.5       2.5       0.2
 4 C  pz              0.4       1.5       0.7       1.2       0.3       1.0
 4 C  px              4.1       4.6       0.1       1.8      13.0       0.2
 4 C  py              0.4       0.3       0.1       1.7       0.2      11.1
 4 C  dxz             0.2       0.2       0.0       0.0       0.0       0.0
 5 O  s               0.0       0.3       0.0       1.4       0.4       0.8
 5 O  pz              0.0       0.1       0.1       0.6       0.6       2.2
 5 O  px              0.2       0.3       0.1       0.6       7.9       0.0
 5 O  py              0.0       0.0       0.0       0.6       0.0       2.4
 5 O  dxz             0.0       0.0       0.0       0.0       0.1       0.0
 6 O  s               0.7       1.2       0.9       4.1       0.8       0.0
 6 O  pz              0.1       0.1       0.2       5.2       7.9       0.5
 6 O  px             10.9       0.0       1.6      16.3       0.1       1.0
 6 O  py              0.9       0.0       0.6       2.4       3.6      15.0
 6 O  dxz             0.1       0.0       0.0       0.1       0.0       0.0
 7 C  s              16.6       4.8       1.3       5.1       0.1       0.0
 7 C  pz              0.1       0.1       0.8       9.1       7.1       0.9
 7 C  px              0.3       1.6       1.9       9.9       1.6       0.4
 7 C  py              0.0       0.0       0.0       0.1       4.2      11.1
 7 C  dxz             0.0       0.0       0.1       0.5       0.0       0.0
 7 C  dx2y2           0.0       0.1       0.1       0.3       0.1       0.0
 8 H  s               2.8       5.3       1.6       0.1       0.3       0.1
 9 H  s               2.6       4.3       3.2       0.0       0.3       0.5
10 H  s               2.6       4.3       3.2       0.0       0.6       0.3
11 H  s               0.6       0.7       7.5       0.5       0.6       0.7
12 H  s               0.6       0.7       7.4       0.3       0.2       1.9
13 H  s               0.9       2.5       4.5       1.1       0.6       3.1
14 H  s               0.8       2.7       4.8       2.0       0.1       1.1
15 H  s               1.4       2.1       0.5       1.3       3.9       4.3
16 H  s               2.0       2.4       0.7       3.1       3.8       2.3
17 H  s               4.7       2.0       0.6       2.4       3.3       2.7
18 H  s               4.4       2.0       0.9       3.2       0.3       3.3
19 H  s               3.5       1.5       1.2       8.0       3.0       0.1

                     18        19        20        21        22        23   
                  -0.42577  -0.41028  -0.38916  -0.37386  -0.37005  -0.34994
                   2.00000   2.00000   2.00000   2.00000   2.00000   2.00000
                  --------  --------  --------  --------  --------  --------
 0 C  pz              0.3       2.9       1.1       9.4       0.7       3.6
 0 C  px              0.4       0.2       8.7       7.2       5.9       2.9
 0 C  py              4.0       1.9       7.7       6.0       0.6      11.2
 0 C  dx2y2           0.0       0.0       0.0       0.0       0.0       0.2
 1 C  s               0.0       0.1       0.1       0.2       0.3       0.1
 1 C  pz              0.5       3.9       2.6       7.7       1.4       0.0
 1 C  px              0.2       0.6       1.8       0.2       3.9       2.2
 1 C  py             10.5       3.5       8.7       1.5       0.3       0.2
 2 C  s               0.0       0.0       0.1       0.4       0.3       0.3
 2 C  pz              0.5       0.3       0.0       0.6       5.0       1.6
 2 C  px              0.3       2.1       8.0       2.9       0.2       0.1
 2 C  py             10.6       1.9       0.1       1.8       1.1       8.5
 2 C  dx2y2           0.0       0.0       0.0       0.1       0.0       0.2
 3 C  s               0.0       0.0       0.0       0.1       0.1       0.0
 3 C  pz              1.8       5.4       1.2       4.4       0.0       2.4
 3 C  px              0.7       0.1       1.0       1.3       9.1       0.5
 3 C  py              2.9       0.0      10.5       6.7       0.0       0.2
 3 C  dyz             0.0       0.0       0.0       0.1       0.0       0.0
 4 C  s               0.1       2.1       0.2       0.6       0.5       0.0
 4 C  pz              1.2       1.9       0.4       2.1       2.8       0.9
 4 C  px              0.1       1.0       0.2       0.1       4.8       1.9
 4 C  py              2.3       0.4       3.9       0.8       0.0       9.6
 4 C  dz2             0.1       0.3       0.0       0.0       0.0       0.0
 4 C  dxz             0.0       0.0       0.0       0.1       0.1       0.0
 4 C  dyz             0.0       0.1       0.0       0.0       0.0       0.1
 4 C  dx2y2           0.0       0.1       0.0       0.0       0.0       0.0
 4 C  dxy             0.1       0.0       0.0       0.1       0.0       0.1
 5 O  s               1.4      10.4       0.5       2.3       2.8       0.2
 5 O  pz              0.7      17.5       2.9       7.4      12.6       3.9
 5 O  px              0.0       0.7       0.0       0.1       0.1       1.8
 5 O  py              2.2       1.9       1.0       3.0       1.7       7.1
 5 O  dz2             0.0       0.2       0.0       0.0       0.1       0.1
 6 O  s               0.2       1.1       0.0       0.4       0.0       0.1
 6 O  pz              8.9       8.3       0.2       0.5       0.1       0.0
 6 O  px              0.0       6.8       0.0       1.7       1.9       0.4
 6 O  py              7.3       0.9       0.5       0.0       0.1       2.4
 6 O  dxz             0.0       0.0       0.0       0.0       0.1       0.0
 7 C  s               0.0       0.1       0.0       0.0       0.0       0.0
 7 C  pz              5.7       0.7       0.3       1.0      12.1       0.1
 7 C  px              3.7       5.4       0.4       0.2       7.4       0.3
 7 C  py              8.5       3.3      10.8       1.2       3.2       7.9
 7 C  dz2             0.0       0.0       0.0       0.0       0.2       0.0
 7 C  dyz             0.1       0.0       0.1       0.0       0.0       0.0
 7 C  dx2y2           0.0       0.1       0.0       0.0       0.1       0.0
 7 C  dxy             0.0       0.0       0.1       0.0       0.0       0.2
 8 H  s               0.2       0.4       5.5       5.9       1.6       4.4
 9 H  s               1.0       1.8       0.2       6.0       0.2       0.0
10 H  s               1.1       0.3       3.8       1.1       0.4       7.7
11 H  s               3.2       0.4       4.0       0.3       0.0       0.1
12 H  s               1.8       3.0       0.0       3.0       0.0       0.1
13 H  s               1.5       1.0       0.0       1.7       0.5       0.0
14 H  s               3.3       0.5       0.0       0.0       0.5       6.7
15 H  s               1.6       1.6       0.4       5.8       0.1       1.3
16 H  s               1.0       0.3       4.6       1.5       0.0       0.0
17 H  s               0.9       3.6       3.9       0.6       5.6       3.9
18 H  s               7.3       0.3       3.8       0.4       2.2       3.7
19 H  s               1.0       0.2       0.0       0.5       8.3       0.0

                     24        25        26        27        28        29   
                  -0.33350  -0.31148  -0.30246  -0.29635  -0.28691  -0.28520
                   2.00000   2.00000   2.00000   2.00000   2.00000   2.00000
                  --------  --------  --------  --------  --------  --------
 0 C  s               0.0       0.0       0.0       0.5       0.0       0.1
 0 C  pz             17.3       1.3       0.1      10.0       1.8       0.1
 0 C  px              1.6       0.4       6.7       2.6       0.5      10.2
 0 C  py              0.0      13.9       1.2       2.7       3.8       0.1
 0 C  dz2             0.0       0.2       0.0       0.0       0.3       0.0
 0 C  dxz             0.0       0.0       0.1       0.0       0.1       0.1
 0 C  dyz             0.1       0.2       0.0       0.0       0.2       0.0
 0 C  dx2y2           0.1       0.1       0.2       0.3       0.0       0.2
 1 C  s               0.0       0.0       0.0       0.3       0.0       0.1
 1 C  pz              3.4       0.2       0.0      16.4       5.1       0.4
 1 C  px              7.8       0.4       5.0       0.2       0.7      13.5
 1 C  py              0.6       5.5       0.9       4.4      11.9       0.9
 1 C  dz2             0.0       0.1       0.0       0.1       0.5       0.0
 1 C  dxz             0.0       0.1       0.1       0.1       0.0       0.3
 1 C  dyz             0.0       0.0       0.0       0.0       0.5       0.0
 1 C  dx2y2           0.0       0.0       0.1       0.7       0.0       0.1
 2 C  s               0.0       0.0       0.1       0.3       0.0       0.1
 2 C  pz              9.9       1.2       0.0      13.8       4.4       0.2
 2 C  px              0.2       0.4       6.8       0.0       0.9      14.9
 2 C  py              0.3       6.4       0.2       3.8      10.3       1.0
 2 C  dz2             0.0       0.1       0.0       0.1       0.4       0.0
 2 C  dxz             0.0       0.0       0.1       0.1       0.0       0.2
 2 C  dyz             0.0       0.1       0.0       0.0       0.5       0.1
 2 C  dx2y2           0.0       0.0       0.0       0.6       0.0       0.1
 3 C  s               0.2       0.0       0.7       0.4       0.0       0.0
 3 C  pz              7.1       1.9       2.2       4.6       0.5       0.4
 3 C  px              0.0       0.5       0.2       3.8       0.2       8.0
 3 C  py              1.5      11.0       2.7       2.0       1.9       0.2
 3 C  dz2             0.1       0.2       0.0       0.0       0.2       0.0
 3 C  dxz             0.0       0.0       0.0       0.0       0.1       0.1
 3 C  dyz             0.0       0.4       0.0       0.0       0.2       0.1
 3 C  dx2y2           0.3       0.1       0.0       0.2       0.0       0.1
 4 C  s               0.1       0.0       0.0       0.0       0.1       0.9
 4 C  pz              1.7       0.5       2.7       0.0       0.1       2.2
 4 C  px              1.2       0.1       0.8       0.0       0.3       1.3
 4 C  py              4.0       1.7       0.3       0.2       0.1       0.3
 4 C  dz2             0.1       0.0       0.5       0.0       0.0       0.1
 4 C  dyz             0.1       0.1       0.0       0.1       0.0       0.1
 4 C  dx2y2           0.0       0.0       0.3       0.0       0.0       0.0
 4 C  dxy             0.0       0.2       0.0       0.0       0.0       0.0
 5 O  s               0.2       0.3       0.9       0.0       0.1       0.5
 5 O  pz              0.1       4.1       4.2       0.1       0.6       3.6
 5 O  px              0.2       0.0       2.4       0.0       0.0       0.4
 5 O  py              8.5       1.6       2.7       1.3       0.0       0.2
 6 O  s               0.2       0.0       2.5       0.2       0.0       2.4
 6 O  pz              1.5       2.8      17.5       0.7       0.2      14.9
 6 O  px              0.1       0.3       1.3       0.1       0.0       1.5
 6 O  py              0.9       0.5       6.5       0.1       0.4       0.1
 7 C  s               0.0       0.0       0.1       0.0       0.0       0.2
 7 C  pz              3.8       1.6       7.3       0.3       0.1       3.1
 7 C  px              0.7       0.4       0.2       0.0       0.0       1.1
 7 C  py              0.6       0.2       2.3       0.0       0.1       0.0
 7 C  dz2             0.1       0.1       0.5       0.0       0.0       0.2
 7 C  dxy             0.0       0.0       0.2       0.0       0.0       0.0
 8 H  s               0.6       0.2       4.7       0.5       0.8       6.5
 9 H  s               7.8       5.8       0.0       2.0       5.2       0.0
10 H  s               0.3       7.2       1.8       2.8       2.6       0.9
11 H  s               0.5       2.7       1.2       6.7       8.0       1.7
12 H  s               0.9       1.6       0.1       4.3      13.3       0.0
13 H  s               4.2       3.6       0.0       3.0      11.2       0.3
14 H  s               0.0       2.8       0.1       6.1       6.9       1.6
15 H  s               2.2       7.1       0.2       0.5       2.8       0.3
16 H  s               3.4       7.1       1.2       2.2       1.6       0.8
17 H  s               0.0       0.0       3.2       0.0       0.1       0.0
18 H  s               2.5       1.2       0.0       0.1       0.1       0.2
19 H  s               2.1       1.0       6.4       0.2       0.0       2.3

                     30        31        32        33        34        35   
                  -0.25494  -0.21939  -0.01760   0.03945   0.05579   0.06748
                   2.00000   2.00000   0.00000   0.00000   0.00000   0.00000
                  --------  --------  --------  --------  --------  --------
 0 C  s               0.0       0.0       0.0       6.1       5.6       5.3
 0 C  pz              0.0       0.0       0.0       0.9       0.2       0.0
 0 C  px              0.0       0.1       0.0       1.0       0.4       0.1
 0 C  py              0.0       0.0       0.0       0.4       0.1       1.0
 0 C  dxz             0.0       0.0       0.0       0.2       0.0       0.0
 1 C  s               0.0       0.0       0.0       7.7       1.0       0.4
 1 C  pz              0.1       0.0       0.1       3.2       0.1       0.1
 1 C  px              0.2       0.2       0.2       0.1       0.3       0.5
 1 C  py              0.0       0.0       0.2       0.3       0.0       1.7
 1 C  dxz             0.0       0.0       0.0       0.0       0.1       0.1
 1 C  dyz             0.0       0.0       0.0       0.1       0.0       0.1
 2 C  s               0.0       0.1       1.2       4.5       0.0       0.1
 2 C  pz              0.1       0.0       0.6       2.0       0.1       0.1
 2 C  px              0.1       0.1       0.9       0.1       0.6       0.8
 2 C  py              0.0       0.2       0.0       0.6       0.0       0.9
 2 C  dz2             0.0       0.0       0.0       0.1       0.0       0.0
 2 C  dxz             0.0       0.0       0.0       0.1       0.3       0.1
 2 C  dyz             0.0       0.0       0.0       0.1       0.0       0.2
 3 C  s               0.0       0.6       0.1       2.9       2.9       7.0
 3 C  pz              0.0       3.0       0.1       2.6       0.2       0.9
 3 C  px              0.0       3.9       0.2       0.2       0.0       0.2
 3 C  py              0.1       0.0       0.3       0.2       0.1       2.8
 3 C  dxz             0.0       0.0       0.3       0.1       0.0       0.0
 3 C  dyz             0.0       0.0       0.3       0.2       0.0       0.0
 3 C  dx2y2           0.0       0.0       0.4       0.0       0.0       0.0
 3 C  dxy             0.0       0.0       1.0       0.0       0.0       0.0
 4 C  s               0.0       0.4       0.0       0.2       1.6       0.1
 4 C  pz              0.0       0.5       5.0       0.2       0.3       0.2
 4 C  px              0.1       0.8       2.5       0.4       0.2       0.5
 4 C  py              0.6       0.1      39.1       0.9       0.0       0.3
 4 C  dz2             0.6       0.0       0.3       0.1       0.1       0.0
 4 C  dxz             0.2       3.9       0.0       0.0       0.1       0.0
 4 C  dyz             1.2       0.3       0.5       0.1       0.1       0.0
 4 C  dx2y2           0.5       0.0       0.0       0.0       0.1       0.1
 4 C  dxy             0.1       0.4       0.4       0.0       0.0       0.1
 5 O  s               0.0       0.0       0.0       0.3       0.6       0.0
 5 O  pz              4.0       0.1       2.6       0.2       0.0       0.1
 5 O  px              1.5      68.9       1.4       0.0       0.3       0.1
 5 O  py             32.3       4.1      21.0       0.4       0.0       0.4
 5 O  dz2             0.0       0.0       0.2       0.0       0.0       0.0
 5 O  dyz             0.0       0.0       0.3       0.0       0.0       0.0
 6 O  s               0.0       0.4       0.0       0.3       1.2       0.9
 6 O  pz              5.4       4.8       1.3       0.0       0.1       0.1
 6 O  px              2.6       0.9       0.6       0.0       0.4       0.5
 6 O  py             37.6       1.7       8.8       0.1       0.0       0.2
 6 O  dx2y2           0.0       0.0       0.1       0.0       0.0       0.1
 6 O  dxy             0.0       0.0       0.2       0.0       0.0       0.0
 7 C  s               0.0       0.2       0.0       0.8      13.1       8.5
 7 C  pz              0.3       0.9       0.0       0.1       0.2       0.4
 7 C  px              0.2       0.5       0.0       0.9       7.6       1.0
 7 C  py              3.4       0.0       0.1       0.0       0.2       0.1
 7 C  dxz             0.1       0.0       0.0       0.0       0.2       0.1
 7 C  dx2y2           0.1       0.0       0.0       0.0       0.3       0.1
 7 C  dxy             0.8       0.0       0.3       0.0       0.0       0.0
 8 H  s               0.0       0.0       0.1       4.2       4.3       2.9
 9 H  s               0.0       0.0       0.0       4.6       3.9       1.5
10 H  s               0.0       0.0       0.0       5.8       4.1       9.4
11 H  s               0.0       0.0       0.4       8.6       0.7       6.1
12 H  s               0.0       0.1       0.1      11.0       0.6       0.1
13 H  s               0.1       0.3       0.0       4.8       0.2       0.4
14 H  s               0.0       0.1       0.5       7.5       0.0       2.9
15 H  s               0.1       1.0       0.3       7.1       3.0       2.9
16 H  s               0.0       0.1       5.6       4.4       3.6      20.8
17 H  s               2.7       0.0       0.6       1.0      17.4       7.9
18 H  s               4.4       0.0       1.1       1.3      18.5       5.6
19 H  s               0.2       0.6       0.0       0.4       4.9       2.6

                     36        37        38        39        40        41   
                   0.07139   0.08161   0.09539   0.10566   0.11530   0.12350
                   0.00000   0.00000   0.00000   0.00000   0.00000   0.00000
                  --------  --------  --------  --------  --------  --------
 0 C  s               2.1       0.0       1.3       0.0       4.5       3.5
 0 C  pz              0.7       3.7       1.8       0.1       0.5       1.3
 0 C  px              0.4       0.6       2.1       0.1       1.6       1.2
 0 C  py              2.9       0.3       0.0       0.3       0.1       2.1
 0 C  dz2             0.1       0.1       0.0       0.0       0.0       0.0
 0 C  dxz             0.0       0.1       0.1       0.0       0.5       0.1
 0 C  dyz             0.1       0.0       0.0       0.0       0.0       0.3
 0 C  dx2y2           0.0       0.2       0.0       0.0       0.0       0.0
 1 C  s               0.1       1.9       0.8       0.1       5.4       4.6
 1 C  pz              0.9       2.9       0.5       0.1       0.5       0.0
 1 C  px              0.1       0.1       0.3       0.0       0.3       0.1
 1 C  py              5.4       0.1       0.1       0.2       0.1       0.5
 1 C  dz2             0.2       0.3       0.2       0.0       0.0       0.1
 1 C  dxz             0.1       0.1       0.2       0.0       0.3       0.0
 1 C  dyz             0.3       0.0       0.0       0.0       0.1       0.0
 1 C  dx2y2           0.1       0.2       0.0       0.0       0.0       0.0
 2 C  s               0.2       2.1       5.0       0.0       1.1       1.0
 2 C  pz              0.6       4.2       1.6       0.0       0.2       0.2
 2 C  px              0.1       0.2       0.2       0.0       0.5       0.8
 2 C  py              5.4       1.1       0.0       0.1       0.1       0.1
 2 C  dz2             0.3       0.1       0.0       0.0       0.3       0.0
 2 C  dxz             0.1       0.1       0.1       0.0       0.3       0.1
 2 C  dyz             0.3       0.0       0.1       0.0       0.0       0.0
 2 C  dx2y2           0.1       0.3       0.0       0.0       0.1       0.2
 2 C  dxy             0.0       0.1       0.0       0.0       0.0       0.2
 3 C  s               1.3       0.1       0.3       0.0       1.5       2.4
 3 C  pz              1.6       2.4       0.5       0.4       2.9       0.0
 3 C  px              0.0       0.4       0.7       0.1       3.4       0.8
 3 C  py              4.0       0.0       0.1       0.4       0.1       3.6
 3 C  dz2             0.1       0.2       0.0       0.0       0.1       0.0
 3 C  dxz             0.0       0.0       0.1       0.0       0.8       0.1
 3 C  dyz             0.2       0.0       0.1       0.0       0.0       0.1
 3 C  dx2y2           0.0       0.3       0.1       0.0       0.4       0.1
 4 C  s               0.0       1.5       0.0       0.4       2.6       0.8
 4 C  pz              0.1       0.6       0.5       0.0       1.3       0.1
 4 C  px              0.0       0.5       0.1       0.0       0.2       0.8
 4 C  py              0.1       0.3       0.5       0.3       0.0       0.5
 4 C  dz2             0.0       0.2       0.5       0.0       0.0       0.1
 4 C  dx2y2           0.0       0.6       0.2       0.0       0.2       0.1
 4 C  dxy             0.0       0.2       0.0       0.0       0.0       0.1
 5 O  s               0.0       0.2       0.1       0.0       0.5       0.5
 5 O  px              0.1       0.2       0.8       0.0       0.4       0.7
 5 O  py              0.0       0.1       0.1       0.3       0.0       0.0
 6 O  s               0.1       5.0       5.7       0.0       0.3       0.1
 6 O  pz              0.0       1.8       1.9       0.1       0.0       0.3
 6 O  px              0.1       1.9       5.8       0.3       0.0       0.2
 6 O  py              0.1       0.0       0.0       0.5       0.2       0.4
 6 O  dz2             0.0       0.1       0.0       0.0       0.1       0.0
 6 O  dxz             0.0       0.0       0.2       0.0       0.2       0.1
 6 O  dyz             0.0       0.0       0.0       0.1       0.0       0.0
 6 O  dx2y2           0.0       0.3       0.3       0.0       0.1       0.0
 6 O  dxy             0.0       0.1       0.0       0.2       0.0       0.0
 7 C  s               2.3       3.0       2.4       0.1       0.3       0.3
 7 C  pz              0.0       2.4       2.2       0.0      11.2       7.1
 7 C  px              0.3      11.8      25.4       0.2       0.1       1.6
 7 C  py              0.0       0.0       0.4      25.7       0.3       0.1
 7 C  dz2             0.0       0.3       0.2       0.3       0.8       0.3
 7 C  dxz             0.0       0.7       1.4       0.0       0.0       0.0
 7 C  dyz             0.0       0.0       0.0       0.5       0.2       0.2
 7 C  dx2y2           0.0       1.2       2.6       0.3       0.0       0.1
 7 C  dxy             0.0       0.1       0.1       0.4       0.0       0.0
 8 H  s               2.3       5.2      11.5       0.0       0.5       7.4
 9 H  s              10.6       3.8       0.6       0.9       4.4       0.8
10 H  s               1.2       2.4       0.1       0.2       4.2       8.2
11 H  s               9.0       4.2       0.4       0.2       2.4       7.0
12 H  s               7.7       8.4       2.3       0.9       4.9       1.8
13 H  s               6.0       7.4       8.0       0.2       1.6       1.2
14 H  s              10.3       9.6       4.5       0.1       0.6       1.1
15 H  s              14.8       2.5       0.6       1.2       4.8       0.0
16 H  s               1.7       0.0       0.6       0.3       3.8      12.8
17 H  s               1.1       0.7       0.5      36.1       0.1       0.2
18 H  s               2.9       0.3       0.7      25.7       6.2       6.1
19 H  s               1.0       0.3       2.1       2.1      21.5      14.8

                     42        43        44        45        46        47   
                   0.12681   0.13043   0.13925   0.15499   0.18124   0.19649
                   0.00000   0.00000   0.00000   0.00000   0.00000   0.00000
                  --------  --------  --------  --------  --------  --------
 0 C  s               0.4       0.6       0.0       0.0       0.7       0.1
 0 C  pz              0.2       6.9       0.4       1.9       5.8       2.5
 0 C  px              2.7       6.4       0.4       0.0       8.0       2.9
 0 C  py              9.6       0.0       2.9       5.7       1.7       0.9
 0 C  dz2             0.2       0.0       0.0       0.4       0.1       0.2
 0 C  dxz             0.0       0.4       0.3       0.0       1.5       0.0
 0 C  dyz             0.0       0.1       0.0       0.5       0.1       0.4
 0 C  dx2y2           0.5       0.5       0.0       0.0       0.5       0.3
 0 C  dxy             0.0       0.2       0.8       0.0       0.6       0.1
 1 C  s               2.5       0.4       0.0       0.2       1.4       0.3
 1 C  pz              0.6       1.2       1.9       0.0      11.5       1.7
 1 C  px              0.1       1.1       0.1       0.0       3.2      12.6
 1 C  py              0.0       0.2      15.5       0.0       1.5       0.3
 1 C  dz2             0.0       0.3       0.2       0.0       0.0       0.3
 1 C  dxz             0.0       0.5       0.0       0.3       0.6       2.7
 1 C  dyz             0.3       0.1       0.1       0.0       1.1       0.1
 1 C  dx2y2           0.2       0.0       0.1       0.0       1.4       0.2
 1 C  dxy             0.1       0.1       0.0       1.4       0.3       0.2
 2 C  s               0.6       5.6       0.2       0.9       0.3       0.3
 2 C  pz              0.3       0.6       0.7       1.7       4.1       0.1
 2 C  px              0.1       0.1       0.0       0.1       2.4      26.2
 2 C  py              0.0       1.5       2.8      13.4       0.9       0.0
 2 C  dz2             0.1       0.0       0.0       0.2       1.2       0.1
 2 C  dxz             0.1       0.0       0.1       0.0       0.2       5.3
 2 C  dyz             0.1       0.0       0.0       0.4       0.7       0.0
 2 C  dx2y2           0.0       0.0       0.1       0.1       0.0       0.0
 2 C  dxy             0.1       0.0       1.0       0.4       0.1       0.5
 3 C  s               0.4       0.2       0.0       0.0       1.0       1.6
[...]
 1 C  dxy             0.3       2.4       0.1       0.0       0.1       0.0
 2 C  s               0.5       0.1       0.0       0.0       0.0       0.0
 2 C  px              0.1       4.6       0.1       0.1       0.2       0.0
 2 C  dz2             1.8       0.6       0.1       0.1       0.3       0.1
 2 C  dxz             1.2      23.2       0.6       0.2       1.4       0.0
 2 C  dyz             0.0       0.2       0.0       0.0       0.1       0.0
 2 C  dx2y2           3.1       1.5       0.0       0.0       0.1       0.0
 2 C  dxy             0.4       3.3       0.1       0.0       0.1       0.0
 3 C  s               0.0       0.5       0.0       0.0       0.1       0.3
 3 C  pz              0.1       0.2       0.0       0.0       0.1       0.0
 3 C  px              1.0       1.8       0.1       0.1       0.2       0.2
 3 C  dz2             0.4       0.4       0.0       0.2       2.2       0.6
 3 C  dxz             5.6       6.5       0.2       1.0       2.4       0.1
 3 C  dyz             1.1       0.0       0.1       0.8       0.0       0.0
 3 C  dx2y2           1.1       1.0       0.2       0.0       0.5       0.9
 3 C  dxy             0.6       1.3       0.3       0.4       0.1       0.1
 4 C  s               0.2       0.5       0.0       0.1       0.2       1.1
 4 C  pz              0.3       0.0       0.0       0.3       0.0       1.4
 4 C  px              0.7       0.3       0.0       0.4       0.1       1.4
 4 C  py              0.0       0.0       0.1       0.4       0.5       0.5
 4 C  dz2             0.3       0.0       0.0       1.7       3.6       0.9
 4 C  dxz             0.6       0.1       0.1       0.2       1.8       3.8
 4 C  dyz             0.6       0.0       0.0       0.4       0.0       0.1
 4 C  dx2y2           2.5       0.0       0.2       0.0       7.3       1.2
 4 C  dxy             0.3       0.0       0.7      10.5       0.5       0.0
 5 O  s               0.1       0.0       0.0       0.5       0.7       0.4
 5 O  pz              0.0       0.0       0.0       0.1       0.4       0.4
 5 O  px              0.0       0.0       0.0       0.2       0.1       0.5
 5 O  py              0.0       0.0       0.0       0.2       0.1       0.0
 5 O  dz2             1.0       0.0       1.6       2.2       2.2       0.9
 5 O  dxz             0.4       0.0       0.1      11.0       1.8      22.7
 5 O  dyz             4.7       0.0       4.0       6.2       0.7       0.9
 5 O  dx2y2          41.8       4.9       0.0       0.6       8.9       0.4
 5 O  dxy            13.1       0.2       3.7       3.4       1.7       2.5
 6 O  s               0.2       0.0       0.0       0.2       0.4       6.9
 6 O  pz              0.4       0.0       0.1       0.7       0.5       0.8
 6 O  px              0.1       0.0       0.0       0.3       1.2       0.2
 6 O  py              0.1       0.1       0.6       0.3       0.2       0.1
 6 O  dz2             5.6       1.5      15.1      24.7       4.0       0.3
 6 O  dxz             0.3       0.3       0.9       0.1      20.7       0.9
 6 O  dyz             1.7       5.0      23.1       0.5      22.9       6.1
 6 O  dx2y2           1.0       0.0       0.7      19.9       0.2      26.5
 6 O  dxy             0.0       1.1      34.3       9.3       5.3      12.3
 7 C  s               0.1       0.0       0.0       0.2       0.5       0.4
 7 C  pz              0.0       0.0       0.1       0.0       0.0       0.1
 7 C  px              0.1       0.0       0.0       0.3       0.6       0.6
 7 C  py              0.0       0.0       0.3       0.1       0.0       0.0
 7 C  dz2             0.3       0.0       0.5       0.1       1.6       0.0
 7 C  dxz             0.2       0.0       0.8       0.0       0.0       1.9
 7 C  dyz             0.0       0.0       1.1       0.2       0.1       0.0
 7 C  dx2y2           0.1       0.0       1.2       1.1       1.6       1.1
 7 C  dxy             0.1       0.7       7.3       0.7       0.5       0.0
18 H  s               0.0       0.0       0.1       0.0       0.0       0.1

                    132       133       134       135   
                   3.11435   3.31196   3.48643   3.55688
                   0.00000   0.00000   0.00000   0.00000
                  --------  --------  --------  --------
 2 C  dxz             0.2       0.1       0.0       0.1
 3 C  s               0.0       0.3       0.1       0.0
 3 C  px              0.0       0.1       0.3       0.1
 3 C  dz2             0.0       0.1       0.8       0.1
 3 C  dxz             0.3       0.7       0.2       0.6
 3 C  dx2y2           0.3       0.0       0.9       0.0
 3 C  dxy             0.5       0.0       0.1       0.0
 4 C  s               0.0       3.8       0.1       6.0
 4 C  pz              0.1       0.2       2.4       3.8
 4 C  px              0.0       1.4       0.7       0.2
 4 C  py              0.3       0.0       0.6       0.4
 4 C  dz2             5.9       2.3       0.3       7.2
 4 C  dxz             1.3       0.8      17.2       1.4
 4 C  dyz            11.2       0.3       1.1       3.6
 4 C  dx2y2           2.2       2.8       0.0       0.8
 4 C  dxy             0.0       0.3       2.6       0.0
 5 O  s               0.0       1.7       0.8       4.2
 5 O  pz              0.1       0.6       0.5       2.9
 5 O  px              0.1       0.1       0.5       0.3
 5 O  py              0.8       0.1       0.2       0.2
 5 O  dz2            17.5       8.8       6.7      33.0
 5 O  dxz             1.8       3.1      13.0      10.1
 5 O  dyz            34.3       6.3       6.4       9.0
 5 O  dx2y2           3.1       0.1       1.7       0.1
 5 O  dxy             3.3       0.5       1.0       1.1
 6 O  s               0.0       0.1       0.9       0.3
 6 O  pz              0.0       0.2       0.3       0.1
 6 O  px              0.0       2.2       2.7       0.1
 6 O  py              0.0       0.3       0.3       0.0
 6 O  dz2             0.1      10.6       1.0       5.0
 6 O  dxz             1.7      25.5      23.0       0.0
 6 O  dyz             0.0       5.9       2.3       0.2
 6 O  dx2y2           4.9      12.2       1.6       6.1
 6 O  dxy             9.1       0.1       7.6       1.8
 7 C  s               0.0       1.1       0.2       0.0
 7 C  pz              0.0       0.3       0.0       0.1
 7 C  px              0.0       1.4       0.2       0.1
 7 C  dz2             0.1       0.3       0.6       0.0
 7 C  dxz             0.0       2.5       0.0       0.7
 7 C  dyz             0.1       0.0       0.0       0.0
 7 C  dx2y2           0.0       2.4       0.3       0.1
 7 C  dxy             0.4       0.0       0.1       0.0


                      *****************************
                      * MAYER POPULATION ANALYSIS *
                      *****************************

  NA   - Mulliken gross atomic population
  ZA   - Total nuclear charge
  QA   - Mulliken gross atomic charge
  VA   - Mayer's total valence
  BVA  - Mayer's bonded valence
  FA   - Mayer's free valence

  ATOM       NA         ZA         QA         VA         BVA        FA
  0 C      6.2564     6.0000    -0.2564     4.0191     4.0191    -0.0000
  1 C      6.1737     6.0000    -0.1737     4.1484     4.1484     0.0000
  2 C      6.2194     6.0000    -0.2194     4.1466     4.1466     0.0000
  3 C      6.1282     6.0000    -0.1282     3.9100     3.9100    -0.0000
  4 C      5.8881     6.0000     0.1119     4.3895     4.3895    -0.0000
  5 O      8.2044     8.0000    -0.2044     2.3013     2.3013     0.0000
  6 O      8.2382     8.0000    -0.2382     2.2753     2.2753    -0.0000
  7 C      6.1309     6.0000    -0.1309     3.8393     3.8393     0.0000
  8 H      0.8981     1.0000     0.1019     0.9499     0.9499    -0.0000
  9 H      0.9002     1.0000     0.0998     0.9577     0.9577     0.0000
 10 H      0.9023     1.0000     0.0977     0.9572     0.9572    -0.0000
 11 H      0.9164     1.0000     0.0836     0.9484     0.9484     0.0000
 12 H      0.9174     1.0000     0.0826     0.9453     0.9453    -0.0000
 13 H      0.8948     1.0000     0.1052     0.9684     0.9684    -0.0000
 14 H      0.9122     1.0000     0.0878     0.9484     0.9484     0.0000
 15 H      0.9050     1.0000     0.0950     0.9744     0.9744    -0.0000
 16 H      0.8911     1.0000     0.1089     0.9589     0.9589    -0.0000
 17 H      0.8780     1.0000     0.1220     0.9554     0.9554    -0.0000
 18 H      0.8785     1.0000     0.1215     0.9542     0.9542    -0.0000
 19 H      0.8667     1.0000     0.1333     0.9971     0.9971    -0.0000

  Mayer bond orders larger than 0.100000
B(  0-C ,  1-C ) :   1.1616 B(  0-C ,  8-H ) :   0.9529 B(  0-C ,  9-H ) :   0.9540 
B(  0-C , 10-H ) :   0.9544 B(  1-C ,  2-C ) :   1.1355 B(  1-C , 11-H ) :   0.9252 
B(  1-C , 12-H ) :   0.9237 B(  2-C ,  3-C ) :   1.1261 B(  2-C , 13-H ) :   0.9140 
B(  2-C , 14-H ) :   0.9292 B(  3-C ,  4-C ) :   1.0106 B(  3-C , 15-H ) :   0.9078 
B(  3-C , 16-H ) :   0.8862 B(  4-C ,  5-O ) :   2.0638 B(  4-C ,  6-O ) :   1.2231 
B(  6-O ,  7-C ) :   0.9360 B(  7-C , 17-H ) :   0.9611 B(  7-C , 18-H ) :   0.9604 
B(  7-C , 19-H ) :   0.9294 

-------
TIMINGS
-------

Total SCF time: 0 days 0 hours 0 min 7 sec 

Total time                  ....       7.886 sec
Sum of individual times     ....       7.386 sec  ( 93.7%)

SCF preparation             ....       0.161 sec  (  2.0%)
Fock matrix formation       ....       6.368 sec  ( 80.7%)
  Startup                   ....       0.061 sec  (  1.0% of F)
  Split-RI-J                ....       2.156 sec  ( 33.9% of F)
  XC integration            ....       3.628 sec  ( 57.0% of F)
    XC Preparation          ....       0.000 sec  (  0.0% of XC)
    Basis function eval.    ....       1.303 sec  ( 35.9% of XC)
    Density eval.           ....       0.445 sec  ( 12.3% of XC)
    XC-Functional eval.     ....       0.358 sec  (  9.9% of XC)
    XC-Potential eval.      ....       0.699 sec  ( 19.3% of XC)
Diagonalization             ....       0.000 sec  (  0.0%)
Density matrix formation    ....       0.195 sec  (  2.5%)
Total Energy calculation    ....       0.047 sec  (  0.6%)
Population analysis         ....       0.076 sec  (  1.0%)
Orbital Transformation      ....       0.048 sec  (  0.6%)
Orbital Orthonormalization  ....       0.000 sec  (  0.0%)
DIIS solution               ....       0.317 sec  (  4.0%)
  MO trafo                  ....       0.000 sec  (  0.0 % of DIIS)
  Orb grad                  ....       0.000 sec  (  0.0 % of DIIS)
  Energy W gradient         ....       0.000 sec  (  0.0 % of DIIS)
  DIIS error                ....       0.003 sec  (  0.8 % of DIIS)
  DIIS work                 ....       0.272 sec  ( 85.8 % of DIIS)
  Form Q                    ....       0.000 sec  (  0.0 % of DIIS)
  Form QpQm                 ....       0.000 sec  (  0.0 % of DIIS)
  Exp/Cayley                ....       0.000 sec  (  0.0 % of DIIS)
  Orb update                ....       0.000 sec  (  0.0 % of DIIS)
  Wake-sleep                ....       0.018 sec  (  5.5 % of DIIS)
SOSCF solution              ....       0.176 sec  (  2.2%)
  MO trafo                  ....       0.059 sec  ( 33.5 % of SOSCF)
  Orb grad                  ....       0.003 sec  (  1.7 % of SOSCF)
  Rot update                ....       0.077 sec  ( 43.9 % of SOSCF)
  Step                      ....       0.037 sec  ( 20.9 % of SOSCF)
Finished LeanSCF after   8.0 sec

Maximum memory used throughout the entire LEANSCF-calculation: 12.4 MB


-------------------------------------------------------------------------------
                          DFT DISPERSION CORRECTION                            
                                                                               
                                DFTD4 V3.4.0                                   
-------------------------------------------------------------------------------
The PBE functional is recognized
Active option DFTDOPT                   ...         5   

-------------------------   ----------------
Dispersion correction           -0.014378722
-------------------------   ----------------

------------------   -----------------
gCP correction             0.089739222
------------------   -----------------

-------------------------   --------------------
FINAL SINGLE POINT ENERGY      -385.452595184639
-------------------------   --------------------


------------------------------------------------------------------------------
                              ORCA PROPERTY CALCULATIONS
------------------------------------------------------------------------------

GBWName                                 ... sp.gbw
Number of atoms                         ...     20
Number of basis functions               ...    136
Max core memory                         ...   1024 MB

Electric properties:
Dipole moment                           ... YES
Quadrupole moment                       ...  NO
Static polarizability (Dipole/Dipole)   ...  NO
Static polarizability (Dipole/Quad.)    ...  NO
Static polarizability (Quad./Quad.)     ...  NO
Static polarizability (Velocity)        ...  NO

Atomic electric properties:
Dipole moment                           ...  NO
Quadrupole moment                       ...  NO
Static polarizability                   ...  NO

Choice of electric origin               ... Center of mass
Position of electric origin             ...    -0.000038    -0.000005     0.000006

General magnetic properties:
Magnetizability                         ...  NO

EPR properties:
g-Tensor (aka g-matrix)                 ...  NO
Zero-Field splitting spin-orbit         ...  NO
Zero-field splitting spin-spin          ...  NO
Hyperfine couplings                     ...  NO (   0 nuclei)
Quadrupole couplings                    ...  NO (   0 nuclei)
Contact density                         ...  NO (   0 nuclei)

NMR properties:
Chemical shifts                         ...  NO (   0 nuclei)
Spin-rotation constants                 ...  NO (   0 nuclei)
Spin-spin couplings                     ...  NO (   0 nuclei,    0 pairs)

Choice of magnetic origin               ... GIAO
Position of magnetic origin             ...     0.000000     0.000000     0.000000

Properties with geometric perturbations:
SCF Hessian                             ...  NO
IR spectrum                             ...  NO
VCD spectrum                            ...  NO
X-ray spectroscopy properties:
SCF XES/XAS/RIXS spectra                ...  NO


-------------
DIPOLE MOMENT
-------------

Method             : SCF
Type of density    : Electron Density
Multiplicity       :   1
Irrep              :   0
Energy             :  -385.5279556854688394 Eh
Relativity type    : 
Basis              : AO
                                X                 Y                 Z
Electronic contribution:      9.421073001       1.465408871      -0.795130331
Nuclear contribution   :     -9.225221637      -1.723850518       1.385799348
                        -----------------------------------------
Total Dipole Moment    :      0.195851365      -0.258441647       0.590669016
                        -----------------------------------------
Magnitude (a.u.)       :      0.673824702
Magnitude (Debye)      :      1.712726279



--------------------
Rotational spectrum 
--------------------
 
Rotational constants in cm-1:             0.224023             0.025066             0.023792 
Rotational constants in MHz :          6716.041954           751.474490           713.254203 

Dipole components along the rotational axes: 
x,y,z [a.u.] :     0.190335    -0.639998    -0.090635 
x,y,z [Debye]:     0.483794    -1.626746    -0.230377 

 

Dipole moment calculation done in   0.0 sec 

Maximum memory used throughout the entire PROP-calculation: 7.8 MB

--------------------------------
SUGGESTED CITATIONS FOR THIS RUN
--------------------------------

Below you find a list of papers that are relevant to this ORCA run
We neither can nor want to force you to cite these papers, but we appreciate if you do
You receive ORCA, which is the product of decades of hard work by many enthusiastic individuals, for free
The only thing we kindly ask in return is that you cite our papers,
We deeply appreciate it, if you show your appreciation for ORCA by not just citing the generic ORCA reference.

Please note that relegating all ORCA citations to the supporting information does *not* help us.
SI sections are not indexed - citations you put there will not count into any citation statistics
But we need these citations in order to attract the funding resources that allow us to do what we are doing

Therefore, if you are a happy ORCA user, please consider citing a few of the papers listed below in the main body of your paper

In addition to the list printed below, the program has created the file sp.bibtex that contains the list in bibtex format
You can import this file easily into all common literature databanks and citation aid programs


List of essential papers. We consider these as the minimum necessary citations

  1. Neese,F.
     Software update: the ORCA program system, version 5.0
     WIRES Comput. Molec. Sci., 2022 12(1)e1606
     doi.org/10.1002/wcms.1606

List of papers to cite with high priority. The work reported in these papers was absolutely
necessary for this run to complete.
Our perspective: the developers of density functionals and basis sets usually get cited in chemistry papers
Good! But without the algorithms to do something with them, the functionals or basis sets would not do anything.
Hence, in our opinion, the algorithm design and method developments papers are equally worthy of getting cited

  1. Neese,F.
     An improvement of the resolution of the identity approximation for the formation of the Coulomb matrix
     J. Comp. Chem., 2003 24(14)1740-1747
     doi.org/10.1002/jcc.10318
  2. Neese,F.
     The SHARK Integral Generation and Digestion System
     J. Comp. Chem., 2022  1-16
     doi.org/10.1002/jcc.26942
  3. Caldeweyher,E.; Bannwarth,C.; Grimme,S.
     Extension of the D3 dispersion coefficient model
     J. Chem. Phys., 2017 147 034112-XXXX
     doi.org/10.1063/1.4993215
  4. Caldeweyher,E.; Ehlert,S.; Hansen,A.; Neugebauer,H.; Spicher,S.; Bannwarth,C.; Grimme,S.
     A generally applicable atomic-charge dependent London dispersion correction
     J. Chem. Phys., 2019 150 154122-XXXX
     doi.org/10.1063/1.5090222
  5. Caldeweyher,E.; Mewes,J.; Ehlert,S.; Grimme,S.
     Extension and evaluation of the D4 London-dispersion model for periodic systems
     Phys. Chem. Chem. Phys., 2020 22(16)8499-8512
     doi.org/10.1039/D0CP00502A

List of suggested additional citations. These are papers that are important in the 'surrounding' of 
of this run, or papers that preceded the highly important papers. If you like your results we are grateful for a citation.

  1. Neese,F.
     The ORCA program system
     WIRES Comput. Molec. Sci., 2012 2(1)73-78
     doi.org/10.1002/wcms.81
  2. Neese,F.
     Software update: the ORCA program system, version 4.0
     WIRES Comput. Molec. Sci., 2018 8(1)1-6
     doi.org/10.1002/wcms.1327
  3. Neese,F.; Wennmohs,F.; Becker,U.; Riplinger,C.
     The ORCA quantum chemistry program package
     J. Chem. Phys., 2020 152 Art. No. L224108
     doi.org/10.1063/5.0004608

List of optional additional citations

  1. Neese,F.
     Approximate second-order SCF convergence for spin unrestricted wavefunctions
     Chem. Phys. Lett., 2000 325(1-3)93-98
     doi.org/10.1016/s0009-2614(00)00662-x

Timings for individual modules:

Sum of individual times          ...        9.562 sec (=   0.159 min)
Startup calculation              ...        0.717 sec (=   0.012 min)   7.5 %
SCF iterations                   ...        8.745 sec (=   0.146 min)  91.5 %
Property calculations            ...        0.100 sec (=   0.002 min)   1.0 %
                             ****ORCA TERMINATED NORMALLY****
TOTAL RUN TIME: 0 days 0 hours 0 minutes 10 seconds 337 msec
