
                                 *****************
                                 * O   R   C   A *
                                 *****************

                                            #,                                       
                                            ###                                      
                                            ####                                     
                                            #####                                    
                                            ######                                   
                                           ########,                                 
                                     ,,################,,,,,                         
                               ,,#################################,,                 
                          ,,##########################################,,             
                       ,#########################################, ''#####,          
                    ,#############################################,,   '####,        
                  ,##################################################,,,,####,       
                ,###########''''           ''''###############################       
              ,#####''   ,,,,##########,,,,          '''####'''          '####       
            ,##' ,,,,###########################,,,                        '##       
           ' ,,###''''                  '''############,,,                           
         ,,##''                                '''############,,,,        ,,,,,,###''
      ,#''                                            '''#######################'''  
     '                                                          ''''####''''         
             ,#######,   #######,   ,#######,      ##                                
            ,#'     '#,  ##    ##  ,#'     '#,    #''#        ,####,   ,####,        
            ##       ##  ##   ,#'  ##            #'  '#       #'       #'  '#        
            ##       ##  #######   ##           ,######,      #####,   #    #        
            '#,     ,#'  ##    ##  '#,     ,#' ,#      #,     #,   #   #,  ,#        
             '#######'   ##     ##  '#######'  #'      '#     '####' # '####'        



                #########################################################
                #                        -***-                          #
                #          Department of theory and spectroscopy        #
                #                                                       #
                #                      Frank Neese                      #
                #                                                       #
                #     Directorship, Architecture, Infrastructure        #
                #                    SHARK, DRIVERS                     #
                #        Core code/Algorithms in most modules           #
                #                                                       #
                #        Max Planck Institute fuer Kohlenforschung      #
                #                Kaiser Wilhelm Platz 1                 #
                #                 D-45470 Muelheim/Ruhr                 #
                #                      Germany                          #
                #                                                       #
                #                  All rights reserved                  #
                #                        -***-                          #
                #########################################################


                         Program Version 6.0.0  -   RELEASE  -


 With contributions from (in alphabetic order):
   Daniel Aravena         : Magnetic Suceptibility
   Michael Atanasov       : Ab Initio Ligand Field Theory (pilot matlab implementation)
   Alexander A. Auer      : GIAO ZORA, VPT2 properties, NMR spectrum
   Ute Becker             : All parallelization in ORCA, NUMFREQ, NUMCALC
   Giovanni Bistoni       : ED, misc. LED, open-shell LED, HFLD
   Martin Brehm           : Molecular dynamics
   Dmytro Bykov           : pre 5.0 version of the SCF Hessian
   Marcos Casanova-Páez   : Triplet and SCS-CIS(D). UHF-(DLPNO)-IP/EA/STEOM-CCSD. UHF-CVS-IP/STEOM-CCSD
   Vijay G. Chilkuri      : MRCI spin determinant printing, contributions to CSF-ICE
   Pauline Colinet        : FMM embedding
   Dipayan Datta          : RHF DLPNO-CCSD density
   Achintya Kumar Dutta   : EOM-CC, STEOM-CC
   Nicolas Foglia         : Exact transition moments, OPA infrastructure, MCD improvements
   Dmitry Ganyushin       : Spin-Orbit,Spin-Spin,Magnetic field MRCI
   Miquel Garcia          : C-PCM and meta-GGA Hessian, CCSD/C-PCM, Gaussian charge scheme
   Tiago L. C. Gouveia    : GS-ROHF, GS-ROCIS
   Yang Guo               : DLPNO-NEVPT2, F12-NEVPT2, CIM, IAO-localization
   Andreas Hansen         : Spin unrestricted coupled pair/coupled cluster methods
   Ingolf Harden          : AUTO-CI MPn and infrastructure 
   Benjamin Helmich-Paris : MC-RPA, TRAH-(SCF,CASSCF), AVAS, COSX integrals, SCF dyn. polar.
   Lee Huntington         : MR-EOM, pCC
   Robert Izsak           : Overlap fitted RIJCOSX, COSX-SCS-MP3, EOM
   Riya Kayal             : Wick's Theorem for AUTO-CI, AUTO-CI UHF-CCSDT
   Emily Kempfer          : AUTO-CI, RHF CISDT and CCSDT
   Christian Kollmar      : KDIIS, OOCD, Brueckner-CCSD(T), CCSD density, CASPT2, CASPT2-K, improved NEVPT2
   Axel Koslowski         : Symmetry handling
   Simone Kossmann        : Meta GGA functionals, TD-DFT gradient, OOMP2, (MP2 Hessian; deprecated post 5.0)
   Lucas Lang             : DCDCAS
   Marvin Lechner         : AUTO-CI (C++ implementation), FIC-MRCC
   Spencer Leger          : CASSCF response
   Dagmar Lenk            : GEPOL surface, SMD, ORCA-2-JSON
   Dimitrios Liakos       : Extrapolation schemes; Compound Job, initial MDCI parallelization
   Dimitrios Manganas     : Further ROCIS development; embedding schemes. LFT, Crystal Embedding
   Dimitrios Pantazis     : SARC Basis sets
   Anastasios Papadopoulos: AUTO-CI, single reference methods and gradients
   Taras Petrenko         : pre 6.0 DFT Hessian and TD-DFT gradient, (ASA, deprecated), ECA, 1-Electron XAS/XES, NRVS
   Peter Pinski           : DLPNO-MP2, DLPNO-MP2 Gradient
   Christoph Reimann      : Effective Core Potentials
   Marius Retegan         : Local ZFS, SOC
   Christoph Riplinger    : Optimizer, TS searches, QM/MM, DLPNO-CCSD(T), (RO)-DLPNO pert. Triples
   Michael Roemelt        : Original ROCIS implementation
   Masaaki Saitow         : Open-shell DLPNO-CCSD energy and density
   Barbara Sandhoefer     : DKH picture change effects
   Kantharuban Sivalingam : CASSCF convergence/infrastructure, NEVPT2 and variants, FIC-MRCI
   Bernardo de Souza      : ESD, SOC TD-DFT
   Georgi Stoychev        : AutoAux, RI-MP2 NMR, DLPNO-MP2 response, X2C
   Van Anh Tran           : RI-MP2 g-tensors
   Willem Van den Heuvel  : Paramagnetic NMR
   Zikuan Wang            : NOTCH, Electric field optimization 
   Frank Wennmohs         : Technical directorship and infrastructure
   Hang Xu                : AUTO-CI-Response properties 


 We gratefully acknowledge several colleagues who have allowed us to
 interface, adapt or use parts of their codes:
   Stefan Grimme, W. Hujo, H. Kruse, P. Pracht,  : VdW corrections, initial TS optimization,
                  C. Bannwarth, S. Ehlert,         DFT functionals, gCP, sTDA/sTD-DF
                  L. Wittmann, M. Mueller
   Ed Valeev, F. Pavosevic, A. Kumar             : LibInt (2-el integral package), F12 methods
   Garnet Chan, S. Sharma, J. Yang, R. Olivares  : DMRG
   Ulf Ekstrom                                   : XCFun DFT Library
   Mihaly Kallay                                 : mrcc  (arbitrary order and MRCC methods)
   Frank Weinhold                                : gennbo (NPA and NBO analysis)
   Simon Mueller                                 : openCOSMO-RS
   Christopher J. Cramer and Donald G. Truhlar   : smd solvation model
   Lars Goerigk                                  : TD-DFT with DH, B97 family of functionals
   V. Asgeirsson, H. Jonsson                     : NEB implementation
   FAccTs GmbH                                   : IRC, NEB, NEB-TS, DLPNO-Multilevel, CI-OPT
                                                   MM, QMMM, 2- and 3-layer-ONIOM, Crystal-QMMM,
                                                   LR-CPCM, SF, NACMEs, symmetry and pop. for TD-DFT,
                                                   nearIR, NL-DFT gradient (VV10), updates on ESD,
                                                   ML-optimized integration grids, MBIS, APM,
                                                   GOAT, DOCKER, SOLVATOR, interface openCOSMO-RS
   S Lehtola, MJT Oliveira, MAL Marques          : LibXC Library
   Liviu Ungur et al                             : ANISO software


 Your calculation uses the libint2 library for the computation of 2-el integrals
 For citations please refer to: http://libint.valeyev.net

 Your ORCA version has been built with support for libXC version: 6.2.2
 For citations please refer to: https://libxc.gitlab.io

 This ORCA versions uses:
   CBLAS   interface :  Fast vector & matrix operations
   LAPACKE interface :  Fast linear algebra routines
   SCALAPACK package :  Parallel linear algebra routines
   Shared memory     :  Shared parallel matrices
   BLAS/LAPACK       :  OpenBLAS 0.3.27  USE64BITINT DYNAMIC_ARCH NO_AFFINITY SkylakeX SINGLE_THREADED
        Core in use  :  SkylakeX
   Copyright (c) 2011-2014, The OpenBLAS Project


Your calculation utilizes the geometrical counterpoise correction gCP
Please cite in your paper:
H.Kruse, S. Grimme J.Chem.Phys., 136, (2012), 154101 
   

Your calculation utilizes the atom-pairwise dispersion correction
based on EEQ partial charges (D4)


Your calculation utilizes the SMD solvation module
Please cite in your paper:
A.V. Marenich, C.J. Cramer, D.G. Truhlar J. Phys. Chem. B, 113, (2009), 6378 

================================================================================

----- Orbital basis set information -----
Your calculation utilizes the basis: def2-mTZVPP
   Stefan Grimme, Andreas Hansen, Sebastian Ehlert, and Jan-Michael Mewes 
   J. Chem. Phys. 154, 064103 (2021). DOI: 10.1063/5.0040021

----- AuxJ basis set information -----
Your calculation utilizes the auxiliary basis: def2/J
   F. Weigend, Phys. Chem. Chem. Phys. 8, 1057 (2006).

================================================================================
                                        WARNINGS
                       Please study these warnings very carefully!
================================================================================

Using LibXC functional ID 497 : Re-regularized SCAN exchange by Furness et al
[ 1]  J. W. Furness, A. D. Kaplan, J. Ning, J. P. Perdew, and J. Sun.,  J. Phys. Chem. Lett. 11, 8208-8215 (2020)
[ 2]  J. W. Furness, A. D. Kaplan, J. Ning, J. P. Perdew, and J. Sun.,  J. Phys. Chem. Lett. 11, 9248-9248 (2020)
Using LibXC functional ID 498 : Re-regularized SCAN correlation by Furness et al
[ 1]  J. W. Furness, A. D. Kaplan, J. Ning, J. P. Perdew, and J. Sun.,  J. Phys. Chem. Lett. 11, 8208-8215 (2020)
[ 2]  J. W. Furness, A. D. Kaplan, J. Ning, J. P. Perdew, and J. Sun.,  J. Phys. Chem. Lett. 11, 9248-9248 (2020)
Using LibXC functional ID 497 : Re-regularized SCAN exchange by Furness et al
[ 1]  J. W. Furness, A. D. Kaplan, J. Ning, J. P. Perdew, and J. Sun.,  J. Phys. Chem. Lett. 11, 8208-8215 (2020)
[ 2]  J. W. Furness, A. D. Kaplan, J. Ning, J. P. Perdew, and J. Sun.,  J. Phys. Chem. Lett. 11, 9248-9248 (2020)
Using LibXC functional ID 498 : Re-regularized SCAN correlation by Furness et al
[ 1]  J. W. Furness, A. D. Kaplan, J. Ning, J. P. Perdew, and J. Sun.,  J. Phys. Chem. Lett. 11, 8208-8215 (2020)
[ 2]  J. W. Furness, A. D. Kaplan, J. Ning, J. P. Perdew, and J. Sun.,  J. Phys. Chem. Lett. 11, 9248-9248 (2020)

================================================================================
                                       INPUT FILE
================================================================================
NAME = sp_solv.inp
|  1> ! r2scan-3c def2/J RI DEFGRID2 scfconv6 printgap
|  2> %output
|  3>     printlevel normal
|  4> end
|  5> %cpcm
|  6>     smd true
|  7>     smdsolvent "water"
|  8> end
|  9> * xyz 0 1
| 10> C -3.5379741269 0.1032301667 -1.841781822
| 11> C -3.1763448977 -0.4274130362 -0.4541947874
| 12> H -3.6565495344 -1.3955728893 -0.2859202244
| 13> C -1.6787626954 -0.5924774826 -0.2797754538
| 14> C -1.150942314 -1.8619331022 0.0280223304
| 15> C 0.193113565 -2.0455370018 0.1830552866
| 16> C 1.0922497687 -0.9659751227 0.0440739391
| 17> C 2.4791698953 -1.1195820738 0.1980468641
| 18> C 3.3328654273 -0.0467014178 0.0607106415
| 19> C 2.8090513868 1.2270102321 -0.2389594887
| 20> C 1.4610222263 1.3960825814 -0.3927548881
| 21> C 0.5654347155 0.3173346347 -0.2586539357
| 22> C -0.826328391 0.4729616427 -0.4120560449
| 23> O 4.6623837344 -0.3075012802 0.2307490476
| 24> C 5.5917150987 0.752022368 0.1021124671
| 25> C -3.6378181875 0.4890878252 0.6577512242
| 26> O -4.0503500661 0.0890413026 1.7279506466
| 27> O -3.51593033 1.7737570099 0.3809131343
| 28> H -3.1089169519 1.0871731909 -2.001740787
| 29> H -3.1531452452 -0.5757012846 -2.5976875653
| 30> H -4.6178461982 0.1718230099 -1.9462556224
| 31> H -1.8269422243 -2.6967090824 0.1404257582
| 32> H 0.5883254846 -3.02294325 0.4163011452
| 33> H 2.893404591 -2.0890368392 0.4282493412
| 34> H 3.4667336068 2.0739837182 -0.3487361627
| 35> H 1.065657109 2.37420674 -0.6229525259
| 36> H -1.2111985894 1.4575803954 -0.6327783595
| 37> H 6.5646920344 0.2988266601 0.2782773315
| 38> H 5.4107257209 1.5308835003 0.8473655965
| 39> H 5.5652572043 1.1828620214 -0.9020713493
| 40> H -3.788803389 2.3451371408 1.1248256992
| 41> *
| 42> 
| 43>                          ****END OF INPUT****
================================================================================

                       ****************************
                       * Single Point Calculation *
                       ****************************

---------------------------------
CARTESIAN COORDINATES (ANGSTROEM)
---------------------------------
  C     -3.537974    0.103230   -1.841782
  C     -3.176345   -0.427413   -0.454195
  H     -3.656550   -1.395573   -0.285920
  C     -1.678763   -0.592477   -0.279775
  C     -1.150942   -1.861933    0.028022
  C      0.193114   -2.045537    0.183055
  C      1.092250   -0.965975    0.044074
  C      2.479170   -1.119582    0.198047
  C      3.332865   -0.046701    0.060711
  C      2.809051    1.227010   -0.238959
  C      1.461022    1.396083   -0.392755
  C      0.565435    0.317335   -0.258654
  C     -0.826328    0.472962   -0.412056
  O      4.662384   -0.307501    0.230749
  C      5.591715    0.752022    0.102112
  C     -3.637818    0.489088    0.657751
  O     -4.050350    0.089041    1.727951
  O     -3.515930    1.773757    0.380913
  H     -3.108917    1.087173   -2.001741
  H     -3.153145   -0.575701   -2.597688
  H     -4.617846    0.171823   -1.946256
  H     -1.826942   -2.696709    0.140426
  H      0.588325   -3.022943    0.416301
  H      2.893405   -2.089037    0.428249
  H      3.466734    2.073984   -0.348736
  H      1.065657    2.374207   -0.622953
  H     -1.211199    1.457580   -0.632778
  H      6.564692    0.298827    0.278277
  H      5.410726    1.530884    0.847366
  H      5.565257    1.182862   -0.902071
  H     -3.788803    2.345137    1.124826

----------------------------
CARTESIAN COORDINATES (A.U.)
----------------------------
  NO LB      ZA    FRAG     MASS         X           Y           Z
   0 C     6.0000    0    12.011   -6.685802    0.195077   -3.480463
   1 C     6.0000    0    12.011   -6.002422   -0.807694   -0.858304
   2 H     1.0000    0     1.008   -6.909877   -2.637251   -0.540311
   3 C     6.0000    0    12.011   -3.172402   -1.119620   -0.528699
   4 C     6.0000    0    12.011   -2.174966   -3.518544    0.052955
   5 C     6.0000    0    12.011    0.364932   -3.865505    0.345924
   6 C     6.0000    0    12.011    2.064053   -1.825428    0.083288
   7 C     6.0000    0    12.011    4.684952   -2.115704    0.374254
   8 C     6.0000    0    12.011    6.298203   -0.088253    0.114726
   9 C     6.0000    0    12.011    5.308338    2.318713   -0.451568
  10 C     6.0000    0    12.011    2.760932    2.638214   -0.742199
  11 C     6.0000    0    12.011    1.068517    0.599676   -0.488785
  12 C     6.0000    0    12.011   -1.561534    0.893768   -0.778673
  13 O     8.0000    0    15.999    8.810628   -0.581093    0.436053
  14 C     6.0000    0    12.011   10.566810    1.421116    0.192965
  15 C     6.0000    0    12.011   -6.874480    0.924242    1.242970
  16 O     8.0000    0    15.999   -7.654052    0.168264    3.265353
  17 O     8.0000    0    15.999   -6.644145    3.351915    0.719822
  18 H     1.0000    0     1.008   -5.875002    2.054460   -3.782742
  19 H     1.0000    0     1.008   -5.958581   -1.087918   -4.908918
  20 H     1.0000    0     1.008   -8.726465    0.324698   -3.677890
  21 H     1.0000    0     1.008   -3.452420   -5.096042    0.265366
  22 H     1.0000    0     1.008    1.111774   -5.712535    0.786695
  23 H     1.0000    0     1.008    5.467742   -3.947708    0.809274
  24 H     1.0000    0     1.008    6.551177    3.919261   -0.659016
  25 H     1.0000    0     1.008    2.013800    4.486601   -1.177210
  26 H     1.0000    0     1.008   -2.288834    2.754428   -1.195778
  27 H     1.0000    0     1.008   12.405470    0.564701    0.525868
  28 H     1.0000    0     1.008   10.224790    2.892951    1.601289
  29 H     1.0000    0     1.008   10.516812    2.235285   -1.704668
  30 H     1.0000    0     1.008   -7.159801    4.431667    2.125613

--------------------------------
INTERNAL COORDINATES (ANGSTROEM)
--------------------------------
 C      0   0   0     0.000000000000     0.00000000     0.00000000
 C      1   0   0     1.528972101376     0.00000000     0.00000000
 H      2   1   0     1.093730461684   110.05953069     0.00000000
 C      2   1   3     1.516713825362   112.06568017   120.99850288
 C      4   2   1     1.408847543602   119.54506576   239.07370163
 C      5   4   2     1.365368747017   120.98229699   179.58365095
 C      6   5   4     1.411812869527   120.85863263     0.24263477
 C      7   6   5     1.403869721387   122.32447183   179.94187595
 C      8   7   6     1.377944193868   121.06021203   180.20463358
 C      9   8   7     1.409441273360   119.64134915     0.00000000
 C     10   9   8     1.367267750564   120.13783719     0.00000000
 C     11  10   9     1.408459153630   121.43270291     0.00000000
 C      4   2   1     1.370876700444   121.21791217    59.27455083
 O      9   8   7     1.365484733232   116.23814409   180.00632052
 C     14   9   8     1.415201227956   119.01704890   179.96925336
 C      2   1   3     1.513061584622   112.61783445   240.94379205
 O     16   2   1     1.214720780596   123.47392206   143.80804232
 O     16   2   1     1.319799565064   114.03441255   321.84943008
 H      1   2   3     1.085274529681   110.78787505   177.09939789
 H      1   2   3     1.086478106778   109.31463726   297.11574606
 H      1   2   3     1.087080237831   110.12481852    56.75563754
 H      5   4   2     1.080028400750   118.99216405   359.63161922
 H      6   5   4     1.079777322400   120.43427940   180.16610370
 H      8   7   6     1.079085773116   120.06214177     0.16944210
 H     10   9   8     1.077942905174   120.32910261   179.99477948
 H     11  10   9     1.079829337471   119.80002556   180.04096358
 H     13   4   2     1.079961803930   120.44451469     0.73815325
 H     15  14   9     1.087706084617   105.11482741   180.02968235
 H     15  14   9     1.093061775548   111.26985638    61.53731437
 H     15  14   9     1.093026973243   111.26721002   298.52827112
 H     18  16   2     0.976903713030   112.56884428   182.11265479

---------------------------
INTERNAL COORDINATES (A.U.)
---------------------------
 C      0   0   0     0.000000000000     0.00000000     0.00000000
 C      1   0   0     2.889338538006     0.00000000     0.00000000
 H      2   1   0     2.066851036910   110.05953069     0.00000000
 C      2   1   3     2.866173753466   112.06568017   120.99850288
 C      4   2   1     2.662336021856   119.54506576   239.07370163
 C      5   4   2     2.580173003677   120.98229699   179.58365095
 C      6   5   4     2.667939675752   120.85863263     0.24263477
 C      7   6   5     2.652929301126   122.32447183   179.94187595
 C      8   7   6     2.603937154237   121.06021203   180.20463358
 C      9   8   7     2.663458008495   119.64134915     0.00000000
 C     10   9   8     2.583761600309   120.13783719     0.00000000
 C     11  10   9     2.661602071176   121.43270291     0.00000000
 C      4   2   1     2.590581527212   121.21791217    59.27455083
 O      9   8   7     2.580392185860   116.23814409   180.00632052
 C     14   9   8     2.674342745227   119.01704890   179.96925336
 C      2   1   3     2.859272018693   112.61783445   240.94379205
 O     16   2   1     2.295489604509   123.47392206   143.80804232
 O     16   2   1     2.494059729639   114.03441255   321.84943008
 H      1   2   3     2.050871641218   110.78787505   177.09939789
 H      1   2   3     2.053146072312   109.31463726   297.11574606
 H      1   2   3     2.054283935098   110.12481852    56.75563754
 H      5   4   2     2.040957894274   118.99216405   359.63161922
 H      6   5   4     2.040483424954   120.43427940   180.16610370
 H      8   7   6     2.039176586200   120.06214177     0.16944210
 H     10   9   8     2.037016878782   120.32910261   179.99477948
 H     11  10   9     2.040581719194   119.80002556   180.04096358
 H     13   4   2     2.040832044523   120.44451469     0.73815325
 H     15  14   9     2.055466614125   105.11482741   180.02968235
 H     15  14   9     2.065587403244   111.26985638    61.53731437
 H     15  14   9     2.065521636419   111.26721002   298.52827112
 H     18  16   2     1.846080476837   112.56884428   182.11265479

---------------------
BASIS SET INFORMATION
---------------------
There are 3 groups of distinct atoms

 Group   1 Type C   : 11s6p1d contracted to 5s3p1d pattern {62111/411/1}
 Group   2 Type H   : 4s1p contracted to 2s1p pattern {31/1}
 Group   3 Type O   : 11s6p2d contracted to 5s3p2d pattern {62111/411/11}

Atom   0C    basis set group =>   1
Atom   1C    basis set group =>   1
Atom   2H    basis set group =>   2
Atom   3C    basis set group =>   1
Atom   4C    basis set group =>   1
Atom   5C    basis set group =>   1
Atom   6C    basis set group =>   1
Atom   7C    basis set group =>   1
Atom   8C    basis set group =>   1
Atom   9C    basis set group =>   1
Atom  10C    basis set group =>   1
Atom  11C    basis set group =>   1
Atom  12C    basis set group =>   1
Atom  13O    basis set group =>   3
Atom  14C    basis set group =>   1
Atom  15C    basis set group =>   1
Atom  16O    basis set group =>   3
Atom  17O    basis set group =>   3
Atom  18H    basis set group =>   2
Atom  19H    basis set group =>   2
Atom  20H    basis set group =>   2
Atom  21H    basis set group =>   2
Atom  22H    basis set group =>   2
Atom  23H    basis set group =>   2
Atom  24H    basis set group =>   2
Atom  25H    basis set group =>   2
Atom  26H    basis set group =>   2
Atom  27H    basis set group =>   2
Atom  28H    basis set group =>   2
Atom  29H    basis set group =>   2
Atom  30H    basis set group =>   2
---------------------------------
AUXILIARY/J BASIS SET INFORMATION
---------------------------------
There are 3 groups of distinct atoms

 Group   1 Type C   : 12s5p4d2f1g contracted to 6s4p3d1f1g pattern {711111/2111/211/2/1}
 Group   2 Type H   : 5s2p1d contracted to 3s1p1d pattern {311/2/1}
 Group   3 Type O   : 12s5p4d2f1g contracted to 6s4p3d1f1g pattern {711111/2111/211/2/1}

Atom   0C    basis set group =>   1
Atom   1C    basis set group =>   1
Atom   2H    basis set group =>   2
Atom   3C    basis set group =>   1
Atom   4C    basis set group =>   1
Atom   5C    basis set group =>   1
Atom   6C    basis set group =>   1
Atom   7C    basis set group =>   1
Atom   8C    basis set group =>   1
Atom   9C    basis set group =>   1
Atom  10C    basis set group =>   1
Atom  11C    basis set group =>   1
Atom  12C    basis set group =>   1
Atom  13O    basis set group =>   3
Atom  14C    basis set group =>   1
Atom  15C    basis set group =>   1
Atom  16O    basis set group =>   3
Atom  17O    basis set group =>   3
Atom  18H    basis set group =>   2
Atom  19H    basis set group =>   2
Atom  20H    basis set group =>   2
Atom  21H    basis set group =>   2
Atom  22H    basis set group =>   2
Atom  23H    basis set group =>   2
Atom  24H    basis set group =>   2
Atom  25H    basis set group =>   2
Atom  26H    basis set group =>   2
Atom  27H    basis set group =>   2
Atom  28H    basis set group =>   2
Atom  29H    basis set group =>   2
Atom  30H    basis set group =>   2

Checking for AutoStart:
The File: sp_solv.gbw exists
Trying to determine its content:
     ... Fine, the file contains calculation information
     ... Fine, the calculation information was read
     ... Fine, the file contains a basis set
     ... Fine, the basis set was read
     ... Fine, the file contains a geometry
     ... Fine, the geometry was read
     ... Fine, the file contains a set of orbitals
     ... Fine, the orbitals can be read
     => possible old guess file was deleted
     => GBW file was renamed to GES file
     => GES file is set as startup file
     => Guess is set to MORead
     ... now leaving AutoStart

------------------------------------------------------------------------------
                             ORCA STARTUP CALCULATIONS
                           -- RI-GTO INTEGRALS CHOSEN --
------------------------------------------------------------------------------
------------------------------------------------------------------------------
                   ___                                                        
                  /   \      - P O W E R E D   B Y -                         
                 /     \                                                     
                 |  |  |   _    _      __       _____    __    __             
                 |  |  |  | |  | |    /  \     |  _  \  |  |  /  |          
                  \  \/   | |  | |   /    \    | | | |  |  | /  /          
                 / \  \   | |__| |  /  /\  \   | |_| |  |  |/  /          
                |  |  |   |  __  | /  /__\  \  |    /   |      \           
                |  |  |   | |  | | |   __   |  |    \   |  |\   \          
                \     /   | |  | | |  |  |  |  | |\  \  |  | \   \       
                 \___/    |_|  |_| |__|  |__|  |_| \__\ |__|  \__/        
                                                                              
                      - O R C A' S   B I G   F R I E N D -                    
                                      &                                       
                       - I N T E G R A L  F E E D E R -                       
                                                                              
 v1 FN, 2020, v2 2021, v3 2022-2024                                           
------------------------------------------------------------------------------


----------------------
SHARK INTEGRAL PACKAGE
----------------------

Number of atoms                             ...     31
Number of basis functions                   ...    408
Number of shells                            ...    198
Maximum angular momentum                    ...      2
Integral batch strategy                     ... SHARK/LIBINT Hybrid
RI-J (if used) integral strategy            ... SPLIT-RIJ (Revised 2003 algorithm where possible)
Printlevel                                  ...      1
Contraction scheme used                     ... SEGMENTED contraction
Prescreening option                         ... SCHWARTZ
   Thresh                                   ... 1.000e-10
   Tcut                                     ... 1.000e-11
   Tpresel                                  ... 1.000e-11 
Coulomb Range Separation                    ... NOT USED
Exchange Range Separation                   ... NOT USED
Multipole approximations                    ... NOT USED
Finite Nucleus Model                        ... NOT USED
CABS basis                                  ... NOT available
Auxiliary Coulomb fitting basis             ... AVAILABLE
   # of basis functions in Aux-J            ...    987
   # of shells in Aux-J                     ...    325
   Maximum angular momentum in Aux-J        ...      4
Auxiliary J/K fitting basis                 ... NOT available
Auxiliary Correlation fitting basis         ... NOT available
Auxiliary 'external' fitting basis          ... NOT available

Checking pre-screening integrals            ... done (  0.0 sec) Dimension = 198
Check shell pair data                       ... done (  0.0 sec)
Shell pair information
Shell pair cut-off parameter TPreSel        ...   1.0e-11
Total number of shell pairs                 ...     19701
Shell pairs after pre-screening             ...     14198
Total number of primitive shell pairs       ...     72426
Primitive shell pairs kept                  ...     33935
          la=0 lb=0:   4422 shell pairs
          la=1 lb=0:   5433 shell pairs
          la=1 lb=1:   1688 shell pairs
          la=2 lb=0:   1549 shell pairs
          la=2 lb=1:    960 shell pairs
          la=2 lb=2:    146 shell pairs

Calculating one electron integrals          ... done (  0.1 sec)
Calculating RI/J V-Matrix + Cholesky decomp.... done (  0.1 sec)
Calculating Nuclear repulsion               ... done (  0.0 sec) ENN=   1139.348068684508 Eh

Diagonalization of the overlap matrix:
Smallest eigenvalue                        ... 1.294e-05
Time for diagonalization                   ...    0.022 sec
Threshold for overlap eigenvalues          ... 1.000e-07
Number of eigenvalues below threshold      ... 0
Time for construction of square roots      ...    0.028 sec
Total time needed                          ...    0.062 sec

-------------------
DFT GRID GENERATION
-------------------

General Integration Accuracy     IntAcc      ... 4.388
Radial Grid Type                 RadialGrid  ... OptM3 with GC (2021)
Angular Grid (max. ang.)         AngularGrid ... 4 (Lebedev-302)
Angular grid pruning method      GridPruning ... 4 (adaptive)
Weight generation scheme         WeightScheme... mBecke (2022)
Basis function cutoff            BFCut       ... 1.0000e-10
Integration weight cutoff        WCut        ... 1.0000e-14
Partially contracted basis set               ... off
Rotationally invariant grid construction     ... off
Angular grids for H and He will be reduced by one unit
Diffuse basis detected: some atoms will have their outermost
                        angular grid increased by 1.

Total number of grid points                  ...   147331
Total number of batches                      ...     2314
Average number of points per batch           ...       63
Average number of grid points per atom       ...     4753
Initializing property integral containers    ... done (  0.0 sec)

SHARK setup successfully completed in   2.8 seconds

Maximum memory used throughout the entire STARTUP-calculation: 72.8 MB
-------------------------------------------------------------------------------
                                 ORCA GUESS
                   Start orbitals & Density for SCF / CASSCF
-------------------------------------------------------------------------------

------------
SCF SETTINGS
------------
Hamiltonian:
 Density Functional     Method          .... DFT(GTOs)
  Functional kind                       .... Exchange
  Functional name                       .... Re-regularized SCAN exchange by Furness et al
  Functional family                     .... MGGA
  Functional refs                              
    [ 0] J. W. Furness, A. D. Kaplan, J. Ning, J. P. Perdew, and J. Sun.,  J. Phys. Chem. Lett. 11, 8208-8215 (2020), doi: 10.1021/acs.jpclett.0c02405
    [ 1] J. W. Furness, A. D. Kaplan, J. Ning, J. P. Perdew, and J. Sun.,  J. Phys. Chem. Lett. 11, 9248-9248 (2020), doi: 10.1021/acs.jpclett.0c03077
  Functional external parameters        .... 6
    Parameter  0 _c1        =  6.670000e-01 : c1 parameter        
    Parameter  1 _c2        =  8.000000e-01 : c2 parameter        
    Parameter  2 _d         =  1.240000e+00 : d parameter         
    Parameter  3 _k1        =  6.500000e-02 : k1 parameter        
    Parameter  4 _eta       =  1.000000e-03 : eta parameter       
    Parameter  5 _dp2       =  3.610000e-01 : dp2 parameter       
  Functional kind                       .... Correlation
  Functional name                       .... Re-regularized SCAN correlation by Furness et al
  Functional family                     .... MGGA
  Functional refs                              
    [ 0] J. W. Furness, A. D. Kaplan, J. Ning, J. P. Perdew, and J. Sun.,  J. Phys. Chem. Lett. 11, 8208-8215 (2020), doi: 10.1021/acs.jpclett.0c02405
    [ 1] J. W. Furness, A. D. Kaplan, J. Ning, J. P. Perdew, and J. Sun.,  J. Phys. Chem. Lett. 11, 9248-9248 (2020), doi: 10.1021/acs.jpclett.0c03077
  Functional external parameters        .... 1
    Parameter  0 _eta       =  1.000000e-03 : Regularization parameter
 Gradients option       PostSCFGGA      .... off
 RI-approximation to the Coulomb term is turned on
   Number of AuxJ basis functions       .... 987


General Settings:
 Integral files         IntName         .... sp_solv
 Hartree-Fock type      HFTyp           .... RHF
 Total Charge           Charge          ....    0
 Multiplicity           Mult            ....    1
 Number of Electrons    NEL             ....  122
 Basis Dimension        Dim             ....  408
 Nuclear Repulsion      ENuc            ....   1139.3480686845 Eh

Convergence Acceleration:
 AO-DIIS                CNVDIIS         .... on
   Start iteration      DIISMaxIt       ....    12
   Startup error        DIISStart       ....  0.200000
   # of expansion vecs  DIISMaxEq       ....     5
   Bias factor          DIISBfac        ....   1.050
   Max. coefficient     DIISMaxC        ....  10.000
 MO-DIIS                CNVKDIIS        .... off
 Trust-Rad. Augm. Hess. CNVTRAH         .... auto
   Auto Start mean grad. ratio tolernc. ....  1.125000
   Auto Start start iteration           ....     1
   Auto Start num. interpolation iter.  ....    10
   Max. Number of Micro iterations      ....    24
   Max. Number of Macro iterations      .... Maxiter - #DIIS iter
   Number of Davidson start vectors     ....     2
   Converg. threshold    (grad. norm)   ....   3.330e-04
   Grad. Scal. Fac. for Micro threshold ....   0.100
   Minimum threshold for Micro iter.    ....   1.000e-02
   NR start threshold (gradient norm)   ....   1.000e-04
   Initial trust radius                 ....   0.400
   Minimum AH scaling param. (alpha)    ....   1.000
   Maximum AH scaling param. (alpha)    .... 1000.000
   Quad. conv. algorithm                .... NR
   White noise on init. David. guess    .... on
   Maximum white noise                  ....   0.010
   Pseudo random numbers                .... off
   Inactive MOs                         .... canonical
   Orbital update algorithm             .... Taylor
   Preconditioner                       .... Diag
   Full preconditioner red. dimension   ....   250
   COSX micro iterations for RIJONX calc.... off
 SOSCF                  CNVSOSCF        .... on
   Start iteration      SOSCFMaxIt      ....   150
   Startup grad/error   SOSCFStart      ....  0.003300
   Hessian update       SOSCFHessUp     .... L-BFGS
 Level Shifting         CNVShift        .... on
   Level shift para.    LevelShift      ....    0.2500
   Turn off err/grad.   ShiftErr        ....    0.0010
 Zerner damping         CNVZerner       .... off
 Static damping         CNVDamp         .... on
   Fraction old density DampFac         ....    0.7000
   Max. Damping (<1)    DampMax         ....    0.9800
   Min. Damping (>=0)   DampMin         ....    0.0000
   Turn off err/grad.   DampErr         ....    0.1000

SCF Procedure:
 Maximum # iterations   MaxIter         ....   125
 SCF integral mode      SCFMode         .... Direct
   Integral package                     .... SHARK and LIBINT hybrid scheme
 Reset frequency        DirectResetFreq ....    20
 Integral Threshold     Thresh          ....  1.000e-10 Eh
 Primitive CutOff       TCut            ....  1.000e-11 Eh

Convergence Tolerance:
 Convergence Check Mode ConvCheckMode   .... Total+1el-Energy
 Convergence forced     ConvForced      .... 0
 Energy Change          TolE            ....  1.000e-06 Eh
 1-El. energy change                    ....  1.000e-03 Eh
 Orbital Gradient       TolG            ....  3.330e-04
 Orbital Rotation angle TolX            ....  3.330e-04
 DIIS Error             TolErr          ....  1.000e-06

---------------------
INITIAL GUESS: MOREAD
---------------------
Guess MOs are being read from file: sp_solv.ges
Input Geometry matches current geometry (good)
Atom 0: N(Shells)= 9 and 6 - projection required
Input basis set needs projection
NBasis(read)= 266
NBasis(calc)= 408
Basis set overlap was calculated
Using GuessMode=FMatrix for the initial guess
C*T matrix was formed
Effective Fockian was calculated
Effective Fockian was diagonalized
Initial density was built
                      ------------------
                      INITIAL GUESS DONE (   0.2 sec)
                      ------------------
             **** ENERGY FILE WAS UPDATED (sp_solv.en.tmp) ****
Finished Guess after   0.6 sec
Maximum memory used throughout the entire GUESS-calculation: 37.3 MB

-------------------------------------------------------------------------------------------
                                      ORCA LEAN-SCF
                              memory conserving SCF solver
-------------------------------------------------------------------------------------------

--------------------
CPCM SOLVATION MODEL
--------------------
CPCM parameters:
  Epsilon                                         ...      78.3550
  Refrac                                          ...       1.3328
  Rsolv                                           ...       1.3000
  Surface type                                    ... GAUSSIAN VDW
  Discretization scheme                           ... Constant charge density
    Threshold for H atoms                         ...       5.0000 (charges/Ang^2)
    Threshold for non-H atoms                     ...       5.0000 (charges/Ang^2)
  Epsilon function type                           ...         CPCM
Solvent:                                          ... WATER
SMD-CDS solvent descriptors:
  Soln                                            ...       1.3328
  Soln25                                          ...       1.3323
  Sola                                            ...       0.0000
  Solb                                            ...       0.0000
  Solg                                            ...       0.0000
  Solc                                            ...       0.0000
  Solh                                            ...       0.0000
Radii:
  Scheme                                          ... Element-dependent radii
  Radius for C  used is    3.4960 Bohr (=   1.8500 Ang.)
  Radius for H  used is    2.2677 Bohr (=   1.2000 Ang.)
  Radius for O  used is    2.8724 Bohr (=   1.5200 Ang.)
Calculating surface                               ...        done! (  0.0s)
Cavity surface points                             ...         2312
Cavity Volume                                     ...    1540.7123
Cavity Surface-area                               ...     913.9337
Calculating surface distance matrix               ...        done! (  0.0s)
Performing Cholesky decomposition & store         ...        done! (  0.3s)
Overall time for CPCM initialization              ...                 0.3s

----------------------------------------D-I-I-S--------------------------------------------
Iteration    Energy (Eh)           Delta-E    RMSDP     MaxDP     DIISErr   Damp  Time(sec)
-------------------------------------------------------------------------------------------
               ***  Starting incremental Fock matrix formation  ***
    1    -767.1022564618790511     0.00e+00  1.60e-02  1.09e+00  6.26e-01  0.700  12.2
    2    -767.2120974858826230    -1.10e-01  1.22e-02  8.23e-01  4.39e-01  0.700  10.0
    3    -767.2897427324408000    -7.76e-02  8.74e-03  5.84e-01  3.08e-01  0.700   9.7
    4    -767.3442933136677766    -5.46e-02  6.17e-03  4.10e-01  2.16e-01  0.700   9.7
                               ***Turning on AO-DIIS***
    5    -767.3825828029453078    -3.83e-02  4.35e-03  2.88e-01  1.51e-01  0.700   9.5
    6    -767.4094268987535088    -2.68e-02  3.05e-03  2.03e-01  1.06e-01  0.700   9.3
    7    -767.4282621998504510    -1.88e-02  2.14e-03  1.42e-01  7.39e-02  0.700   9.4
    8    -767.4414620782272323    -1.32e-02  4.99e-03  3.31e-01  5.19e-02  0.000   9.2
                              *** Initializing SOSCF ***
---------------------------------------S-O-S-C-F--------------------------------------
Iteration    Energy (Eh)           Delta-E    RMSDP     MaxDP     MaxGrad    Time(sec)
--------------------------------------------------------------------------------------
    9    -767.4723183579312717    -3.09e-02  1.86e-05  7.11e-04  2.02e-04     9.5
               *** Restarting incremental Fock matrix formation ***
   10    -767.4723186094545326    -2.52e-07  2.78e-05  2.41e-03  5.24e-05    11.0
                  *** Gradient check signals convergence ***

               *****************************************************
               *                     SUCCESS                       *
               *           SCF CONVERGED AFTER  10 CYCLES          *
               *****************************************************


SMD CDS free energy correction energy :                 7.58361     Kcal/mol
Total Energy after SMD CDS correction =              -767.460233357 Eh
             **** ENERGY FILE WAS UPDATED (sp_solv.en.tmp) ****

----------------
TOTAL SCF ENERGY
----------------

Total Energy       :       -767.46023335684492 Eh          -20883.65465 eV

Components:
Nuclear Repulsion  :       1139.34806868450846 Eh           31003.23712 eV
Electronic Energy  :      -1906.78618755676530 Eh          -51886.29001 eV
One Electron Energy:      -3305.37212926472557 Eh          -89943.74829 eV
Two Electron Energy:       1398.58594170796027 Eh           38057.45828 eV
CPCM Dielectric    :         -0.03419973719766 Eh              -0.93062 eV
SMD CDS (Gcds)     :          0.01208525260961 Eh               0.32886 eV

Virial components:
Potential Energy   :      -1531.94174890439513 Eh          -41686.25428 eV
Kinetic Energy     :        764.48151554755020 Eh           20802.59962 eV
Virial Ratio       :          2.00389638957740

DFT components:
N(Alpha)           :       61.000020158915 electrons
N(Beta)            :       61.000020158915 electrons
N(Total)           :      122.000040317830 electrons
E(X)               :     -102.834084276122 Eh       
E(C)               :       -3.991554418425 Eh       
E(XC)              :     -106.825638694548 Eh       

CPCM Solvation Model Properties:
Surface-charge          :         -0.05801130838628
Corrected charge        :         -0.00000000000000
Outlying charge corr.   :          0.00020261821063 Eh               0.00551 eV
Free-energy (cav+disp)  :          0.01208525260961 Eh               0.32886 eV

---------------
SCF CONVERGENCE
---------------

  Last Energy change         ...    2.5152e-07  Tolerance :   1.0000e-06
  Last MAX-Density change    ...    2.4144e-03  Tolerance :   1.0000e-05
  Last RMS-Density change    ...    2.7840e-05  Tolerance :   1.0000e-06
  Last DIIS Error            ...    2.0212e-04  Tolerance :   1.0000e-06
  Last Orbital Gradient      ...    5.2417e-05  Tolerance :   3.3300e-04
  Last Orbital Rotation      ...    4.3217e-04  Tolerance :   3.3300e-04


----------------
ORBITAL ENERGIES
----------------

  NO   OCC          E(Eh)            E(eV) 
   0   2.0000     -19.003943      -517.1236 
   1   2.0000     -18.988781      -516.7110 
   2   2.0000     -18.944636      -515.5097 
   3   2.0000     -10.169414      -276.7238 
   4   2.0000     -10.099572      -274.8233 
   5   2.0000     -10.073288      -274.1081 
   6   2.0000     -10.055293      -273.6184 
   7   2.0000     -10.048541      -273.4347 
   8   2.0000     -10.048513      -273.4339 
   9   2.0000     -10.044488      -273.3244 
  10   2.0000     -10.039990      -273.2020 
  11   2.0000     -10.038197      -273.1532 
  12   2.0000     -10.035550      -273.0812 
  13   2.0000     -10.034675      -273.0574 
  14   2.0000     -10.034655      -273.0569 
  15   2.0000     -10.030864      -272.9537 
  16   2.0000     -10.020854      -272.6813 
  17   2.0000      -1.082095       -29.4453 
  18   2.0000      -1.035124       -28.1672 
  19   2.0000      -0.987404       -26.8686 
  20   2.0000      -0.851388       -23.1675 
  21   2.0000      -0.808311       -21.9953 
  22   2.0000      -0.766249       -20.8507 
  23   2.0000      -0.745624       -20.2895 
  24   2.0000      -0.709195       -19.2982 
  25   2.0000      -0.699957       -19.0468 
  26   2.0000      -0.654483       -17.8094 
  27   2.0000      -0.634701       -17.2711 
  28   2.0000      -0.608568       -16.5600 
  29   2.0000      -0.584112       -15.8945 
  30   2.0000      -0.571637       -15.5550 
  31   2.0000      -0.552865       -15.0442 
  32   2.0000      -0.501059       -13.6345 
  33   2.0000      -0.486532       -13.2392 
  34   2.0000      -0.482022       -13.1165 
  35   2.0000      -0.461161       -12.5488 
  36   2.0000      -0.451643       -12.2898 
  37   2.0000      -0.439072       -11.9478 
  38   2.0000      -0.433234       -11.7889 
  39   2.0000      -0.429026       -11.6744 
  40   2.0000      -0.414545       -11.2803 
  41   2.0000      -0.408645       -11.1198 
  42   2.0000      -0.398060       -10.8318 
  43   2.0000      -0.387315       -10.5394 
  44   2.0000      -0.379020       -10.3137 
  45   2.0000      -0.374115       -10.1802 
  46   2.0000      -0.370256       -10.0752 
  47   2.0000      -0.358333        -9.7507 
  48   2.0000      -0.351909        -9.5759 
  49   2.0000      -0.346359        -9.4249 
  50   2.0000      -0.327307        -8.9065 
  51   2.0000      -0.326129        -8.8744 
  52   2.0000      -0.312385        -8.5004 
  53   2.0000      -0.309324        -8.4171 
  54   2.0000      -0.297196        -8.0871 
  55   2.0000      -0.291587        -7.9345 
  56   2.0000      -0.286111        -7.7855 
  57   2.0000      -0.266243        -7.2448 
  58   2.0000      -0.247714        -6.7406 
  59   2.0000      -0.225215        -6.1284 
  60   2.0000      -0.191890        -5.2216 
  61   0.0000      -0.070538        -1.9194 
  62   0.0000      -0.041963        -1.1419 
  63   0.0000      -0.013745        -0.3740 
  64   0.0000      -0.007704        -0.2096 
  65   0.0000       0.064998         1.7687 
  66   0.0000       0.069799         1.8993 
  67   0.0000       0.073598         2.0027 
  68   0.0000       0.091195         2.4815 
  69   0.0000       0.093968         2.5570 
  70   0.0000       0.101642         2.7658 
  71   0.0000       0.109573         2.9816 
*Only the first 10 virtual orbitals were printed.

                    ********************************
                    * MULLIKEN POPULATION ANALYSIS *
                    ********************************

-----------------------
MULLIKEN ATOMIC CHARGES
-----------------------
   0 C :   -0.545821
   1 C :   -0.011674
   2 H :    0.184217
   3 C :    0.126969
   4 C :   -0.252617
   5 C :   -0.321788
   6 C :    0.206150
   7 C :   -0.427691
   8 C :    0.338829
   9 C :   -0.286412
  10 C :   -0.300235
  11 C :    0.107528
  12 C :   -0.255454
  13 O :   -0.222828
  14 C :   -0.341844
  15 C :    0.303431
  16 O :   -0.470037
  17 O :   -0.349657
  18 H :    0.181196
  19 H :    0.172692
  20 H :    0.171509
  21 H :    0.180429
  22 H :    0.175121
  23 H :    0.183847
  24 H :    0.185401
  25 H :    0.178517
  26 H :    0.189584
  27 H :    0.173750
  28 H :    0.172588
  29 H :    0.172610
  30 H :    0.381691
Sum of atomic charges:   -0.0000000

--------------------------------
MULLIKEN REDUCED ORBITAL CHARGES
--------------------------------
  0 C s       :     3.379519  s :     3.379519
      pz      :     0.948227  p :     3.139837
      px      :     1.106348
      py      :     1.085261
      dz2     :     0.007125  d :     0.026465
      dxz     :     0.003742
      dyz     :     0.006327
      dx2y2   :     0.006185
      dxy     :     0.003086

  1 C s       :     2.997875  s :     2.997875
      pz      :     0.908814  p :     2.968585
      px      :     0.970289
      py      :     1.089483
      dz2     :     0.009709  d :     0.045213
      dxz     :     0.009227
      dyz     :     0.010720
      dx2y2   :     0.008497
      dxy     :     0.007060

  2 H s       :     0.798263  s :     0.798263
      pz      :     0.003053  p :     0.017521
      px      :     0.004607
      py      :     0.009861

  3 C s       :     3.117533  s :     3.117533
      pz      :     0.994155  p :     2.708087
      px      :     0.832057
      py      :     0.881875
      dz2     :     0.004004  d :     0.047412
      dxz     :     0.006205
      dyz     :     0.007126
      dx2y2   :     0.015042
      dxy     :     0.015035

  4 C s       :     3.249444  s :     3.249444
      pz      :     0.982613  p :     2.965371
      px      :     0.994163
      py      :     0.988596
      dz2     :     0.003547  d :     0.037802
      dxz     :     0.005818
      dyz     :     0.004144
      dx2y2   :     0.010953
      dxy     :     0.013340

  5 C s       :     3.329327  s :     3.329327
      pz      :     0.997303  p :     2.955121
      px      :     0.949088
      py      :     1.008730
      dz2     :     0.003173  d :     0.037339
      dxz     :     0.006947
      dyz     :     0.002923
      dx2y2   :     0.011381
      dxy     :     0.012914

  6 C s       :     3.127476  s :     3.127476
      pz      :     0.971412  p :     2.617366
      px      :     0.803743
      py      :     0.842210
      dz2     :     0.004048  d :     0.049008
      dxz     :     0.008406
      dyz     :     0.006097
      dx2y2   :     0.015279
      dxy     :     0.015179

  7 C s       :     3.293030  s :     3.293030
      pz      :     1.052932  p :     3.099508
      px      :     0.990091
      py      :     1.056485
      dz2     :     0.003328  d :     0.035153
      dxz     :     0.006082
      dyz     :     0.003428
      dx2y2   :     0.009898
      dxy     :     0.012417

  8 C s       :     3.089213  s :     3.089213
      pz      :     0.956934  p :     2.499535
      px      :     0.750200
      py      :     0.792400
      dz2     :     0.005466  d :     0.072423
      dxz     :     0.016001
      dyz     :     0.007598
      dx2y2   :     0.021684
      dxy     :     0.021674

  9 C s       :     3.261346  s :     3.261346
      pz      :     1.032387  p :     2.989158
      px      :     0.989791
      py      :     0.966980
      dz2     :     0.003566  d :     0.035908
      dxz     :     0.005424
      dyz     :     0.004046
      dx2y2   :     0.010111
      dxy     :     0.012760

 10 C s       :     3.315312  s :     3.315312
      pz      :     0.983707  p :     2.946919
      px      :     0.947371
      py      :     1.015842
      dz2     :     0.003195  d :     0.038003
      dxz     :     0.007527
      dyz     :     0.002971
      dx2y2   :     0.011593
      dxy     :     0.012718

 11 C s       :     3.235400  s :     3.235400
      pz      :     0.987785  p :     2.609010
      px      :     0.768253
      py      :     0.852971
      dz2     :     0.003991  d :     0.048063
      dxz     :     0.007377
      dyz     :     0.006081
      dx2y2   :     0.015201
      dxy     :     0.015413

 12 C s       :     3.171077  s :     3.171077
      pz      :     0.999781  p :     3.047034
      px      :     0.993849
      py      :     1.053404
      dz2     :     0.003221  d :     0.037343
      dxz     :     0.006523
      dyz     :     0.003635
      dx2y2   :     0.012492
      dxy     :     0.011472

 13 O s       :     3.710982  s :     3.710982
      pz      :     1.803181  p :     4.470804
      px      :     1.101375
      py      :     1.566249
      dz2     :     0.004204  d :     0.041042
      dxz     :     0.002053
      dyz     :     0.007178
      dx2y2   :     0.014192
      dxy     :     0.013415

 14 C s       :     3.356370  s :     3.356370
      pz      :     1.104224  p :     2.939624
      px      :     0.938037
      py      :     0.897362
      dz2     :     0.007706  d :     0.045850
      dxz     :     0.004010
      dyz     :     0.012144
      dx2y2   :     0.009353
      dxy     :     0.012637

 15 C s       :     3.158127  s :     3.158127
      pz      :     0.819430  p :     2.412201
      px      :     0.755588
      py      :     0.837183
      dz2     :     0.030671  d :     0.126242
      dxz     :     0.016616
      dyz     :     0.038554
      dx2y2   :     0.019864
      dxy     :     0.020537

 16 O s       :     3.822452  s :     3.822452
      pz      :     1.380784  p :     4.623742
      px      :     1.472946
      py      :     1.770012
      dz2     :     0.008272  d :     0.023843
      dxz     :     0.005240
      dyz     :     0.006195
      dx2y2   :     0.002098
      dxy     :     0.002036

 17 O s       :     3.722118  s :     3.722118
      pz      :     1.637117  p :     4.601962
      px      :     1.741760
      py      :     1.223086
      dz2     :     0.006300  d :     0.025576
      dxz     :     0.004077
      dyz     :     0.009559
      dx2y2   :     0.002628
      dxy     :     0.003012

 18 H s       :     0.800347  s :     0.800347
      pz      :     0.003657  p :     0.018457
      px      :     0.004801
      py      :     0.009998

 19 H s       :     0.808975  s :     0.808975
      pz      :     0.007325  p :     0.018332
      px      :     0.004552
      py      :     0.006455

 20 H s       :     0.810240  s :     0.810240
      pz      :     0.003549  p :     0.018251
      px      :     0.011024
      py      :     0.003678

 21 H s       :     0.799885  s :     0.799885
      pz      :     0.004075  p :     0.019686
      px      :     0.006780
      py      :     0.008830

 22 H s       :     0.805191  s :     0.805191
      pz      :     0.004452  p :     0.019689
      px      :     0.004265
      py      :     0.010971

 23 H s       :     0.796237  s :     0.796237
      pz      :     0.004709  p :     0.019916
      px      :     0.004363
      py      :     0.010844

 24 H s       :     0.794298  s :     0.794298
      pz      :     0.004337  p :     0.020302
      px      :     0.006819
      py      :     0.009146

 25 H s       :     0.801808  s :     0.801808
      pz      :     0.004363  p :     0.019675
      px      :     0.004287
      py      :     0.011025

 26 H s       :     0.790401  s :     0.790401
      pz      :     0.004370  p :     0.020015
      px      :     0.004536
      py      :     0.011109

 27 H s       :     0.808549  s :     0.808549
      pz      :     0.003857  p :     0.017701
      px      :     0.009960
      py      :     0.003884

 28 H s       :     0.809787  s :     0.809787
      pz      :     0.007195  p :     0.017626
      px      :     0.002920
      py      :     0.007511

 29 H s       :     0.809764  s :     0.809764
      pz      :     0.010458  p :     0.017625
      px      :     0.002811
      py      :     0.004356

 30 H s       :     0.577588  s :     0.577588
      pz      :     0.017230  p :     0.040721
      px      :     0.010679
      py      :     0.012811


------------------------
MULLIKEN OVERLAP CHARGES
------------------------
B(  0-C ,  1-C ) :   0.3806 B(  0-C ,  3-C ) :  -0.1350 B(  0-C , 15-C ) :  -0.1398 
B(  0-C , 17-O ) :   0.0613 B(  0-C , 18-H ) :   0.8399 B(  0-C , 19-H ) :   0.8250 
B(  0-C , 20-H ) :   0.8181 B(  1-C ,  2-H ) :   0.9319 B(  1-C ,  3-C ) :  -0.0684 
B(  1-C ,  4-C ) :  -0.2368 B(  1-C ,  5-C ) :   0.0587 B(  1-C , 11-C ) :   0.0559 
B(  1-C , 12-C ) :   0.0594 B(  1-C , 15-C ) :   0.4388 B(  1-C , 16-O ) :  -0.1491 
B(  1-C , 17-O ) :  -0.1670 B(  1-C , 19-H ) :  -0.1104 B(  1-C , 20-H ) :  -0.1172 
B(  2-H ,  3-C ) :  -0.1346 B(  2-H , 15-C ) :  -0.0928 B(  3-C ,  4-C ) :   0.6689 
B(  3-C ,  6-C ) :  -0.1451 B(  3-C ,  7-C ) :  -0.0544 B(  3-C , 10-C ) :   0.0925 
B(  3-C , 11-C ) :   0.1972 B(  3-C , 12-C ) :   0.0587 B(  3-C , 15-C ) :   0.0652 
B(  3-C , 16-O ) :  -0.0582 B(  3-C , 21-H ) :  -0.0899 B(  3-C , 26-H ) :  -0.1332 
B(  4-C ,  5-C ) :   0.5092 B(  4-C ,  6-C ) :  -0.0937 B(  4-C ,  7-C ) :   0.0842 
B(  4-C , 11-C ) :  -0.2865 B(  4-C , 12-C ) :   0.1903 B(  4-C , 21-H ) :   0.8217 
B(  4-C , 22-H ) :  -0.0694 B(  5-C ,  6-C ) :   0.7128 B(  5-C ,  7-C ) :  -0.4814 
B(  5-C ,  8-C ) :   0.0515 B(  5-C , 10-C ) :   0.0902 B(  5-C , 11-C ) :   0.1012 
B(  5-C , 12-C ) :  -0.5636 B(  5-C , 22-H ) :   0.8530 B(  6-C ,  7-C ) :  -0.1559 
B(  6-C ,  8-C ) :   0.1889 B(  6-C ,  9-C ) :   0.1109 B(  6-C , 10-C ) :  -0.2382 
B(  6-C , 11-C ) :   0.7632 B(  6-C , 22-H ) :  -0.1001 B(  6-C , 23-H ) :  -0.0682 
B(  7-C ,  8-C ) :   0.3975 B(  7-C ,  9-C ) :  -0.3346 B(  7-C , 10-C ) :  -0.3573 
B(  7-C , 12-C ) :   0.2071 B(  7-C , 13-O ) :  -0.1185 B(  7-C , 23-H ) :   0.8197 
B(  8-C ,  9-C ) :   0.8303 B(  8-C , 11-C ) :  -0.1021 B(  8-C , 13-O ) :   0.5542 
B(  8-C , 14-C ) :  -0.2674 B(  8-C , 24-H ) :  -0.0763 B(  9-C , 10-C ) :   0.4242 
B(  9-C , 11-C ) :  -0.1752 B(  9-C , 13-O ) :  -0.1430 B(  9-C , 24-H ) :   0.7763 
B(  9-C , 25-H ) :  -0.0648 B( 10-C , 11-C ) :   0.7423 B( 10-C , 12-C ) :  -0.4314 
B( 10-C , 25-H ) :   0.8505 B( 11-C , 12-C ) :  -0.3066 B( 11-C , 25-H ) :  -0.0903 
B( 11-C , 26-H ) :  -0.0637 B( 12-C , 15-C ) :   0.0540 B( 12-C , 26-H ) :   0.8655 
B( 13-O , 14-C ) :   0.3782 B( 13-O , 27-H ) :  -0.0806 B( 13-O , 28-H ) :  -0.0760 
B( 13-O , 29-H ) :  -0.0758 B( 14-C , 27-H ) :   0.7804 B( 14-C , 28-H ) :   0.8225 
B( 14-C , 29-H ) :   0.8223 B( 15-C , 16-O ) :   1.1121 B( 15-C , 17-O ) :   0.3408 
B( 16-O , 17-O ) :  -0.2154 B( 17-O , 30-H ) :   0.6121 B( 28-H , 29-H ) :  -0.0699 



                     *******************************
                     * LOEWDIN POPULATION ANALYSIS *
                     *******************************

----------------------
LOEWDIN ATOMIC CHARGES
----------------------
   0 C :   -0.376598
   1 C :   -0.141465
   2 H :    0.195674
   3 C :   -0.083057
   4 C :   -0.152259
   5 C :   -0.151530
   6 C :   -0.063172
   7 C :   -0.134314
   8 C :    0.181325
   9 C :   -0.155503
  10 C :   -0.135201
  11 C :   -0.077602
  12 C :   -0.127017
  13 O :   -0.707600
  14 C :   -0.051328
  15 C :    0.361257
  16 O :   -0.481439
  17 O :   -0.391601
  18 H :    0.170509
  19 H :    0.165418
  20 H :    0.165354
  21 H :    0.183754
  22 H :    0.183562
  23 H :    0.193260
  24 H :    0.191571
  25 H :    0.185381
  26 H :    0.193431
  27 H :    0.187699
  28 H :    0.174368
  29 H :    0.174388
  30 H :    0.322737

-------------------------------
LOEWDIN REDUCED ORBITAL CHARGES
-------------------------------
  0 C s       :     2.963881  s :     2.963881
      pz      :     1.053216  p :     3.350333
      px      :     1.151551
      py      :     1.145566
      dz2     :     0.016809  d :     0.062384
      dxz     :     0.008153
      dyz     :     0.014927
      dx2y2   :     0.015081
      dxy     :     0.007415

  1 C s       :     2.882347  s :     2.882347
      pz      :     1.036779  p :     3.168424
      px      :     1.049345
      py      :     1.082300
      dz2     :     0.020910  d :     0.090694
      dxz     :     0.016426
      dyz     :     0.020770
      dx2y2   :     0.017983
      dxy     :     0.014606

  2 H s       :     0.760908  s :     0.760908
      pz      :     0.007442  p :     0.043419
      px      :     0.011403
      py      :     0.024573

  3 C s       :     2.858456  s :     2.858456
      pz      :     0.983500  p :     3.125725
      px      :     1.035150
      py      :     1.107075
      dz2     :     0.007335  d :     0.098876
      dxz     :     0.011016
      dyz     :     0.013264
      dx2y2   :     0.034300
      dxy     :     0.032961

  4 C s       :     2.898272  s :     2.898272
      pz      :     0.985884  p :     3.171197
      px      :     1.105238
      py      :     1.080075
      dz2     :     0.006224  d :     0.082790
      dxz     :     0.010862
      dyz     :     0.007611
      dx2y2   :     0.026198
      dxy     :     0.031896

  5 C s       :     2.897798  s :     2.897798
      pz      :     0.992001  p :     3.172425
      px      :     1.091363
      py      :     1.089060
      dz2     :     0.005409  d :     0.081307
      dxz     :     0.012793
      dyz     :     0.005119
      dx2y2   :     0.027619
      dxy     :     0.030368

  6 C s       :     2.842218  s :     2.842218
      pz      :     0.970374  p :     3.118181
      px      :     1.070424
      py      :     1.077383
      dz2     :     0.007368  d :     0.102774
      dxz     :     0.015287
      dyz     :     0.011139
      dx2y2   :     0.034497
      dxy     :     0.034483

  7 C s       :     2.884113  s :     2.884113
      pz      :     1.037471  p :     3.173966
      px      :     1.048648
      py      :     1.087847
      dz2     :     0.005491  d :     0.076234
      dxz     :     0.011061
      dyz     :     0.005932
      dx2y2   :     0.024885
      dxy     :     0.028864

  8 C s       :     2.780251  s :     2.780251
      pz      :     0.912221  p :     2.879816
      px      :     0.892728
      py      :     1.074867
      dz2     :     0.011709  d :     0.158608
      dxz     :     0.031938
      dyz     :     0.013629
      dx2y2   :     0.049396
      dxy     :     0.051937

  9 C s       :     2.892974  s :     2.892974
      pz      :     1.019808  p :     3.184326
      px      :     1.095850
      py      :     1.068668
      dz2     :     0.006089  d :     0.078204
      dxz     :     0.009924
      dyz     :     0.007166
      dx2y2   :     0.024758
      dxy     :     0.030266

 10 C s       :     2.897018  s :     2.897018
      pz      :     0.975395  p :     3.155486
      px      :     1.087638
      py      :     1.092452
      dz2     :     0.005416  d :     0.082697
      dxz     :     0.014016
      dyz     :     0.005188
      dx2y2   :     0.028082
      dxy     :     0.029996

 11 C s       :     2.841958  s :     2.841958
      pz      :     0.989394  p :     3.134383
      px      :     1.069650
      py      :     1.075339
      dz2     :     0.007324  d :     0.101261
      dxz     :     0.013273
      dyz     :     0.011139
      dx2y2   :     0.034344
      dxy     :     0.035182

 12 C s       :     2.885888  s :     2.885888
      pz      :     0.987372  p :     3.159198
      px      :     1.065057
      py      :     1.106770
      dz2     :     0.005582  d :     0.081931
      dxz     :     0.012269
      dyz     :     0.006355
      dx2y2   :     0.029725
      dxy     :     0.028001

 13 O s       :     3.469203  s :     3.469203
      pz      :     1.788253  p :     4.747832
      px      :     1.341571
      py      :     1.618008
      dz2     :     0.051426  d :     0.490565
      dxz     :     0.095526
      dyz     :     0.054774
      dx2y2   :     0.150699
      dxy     :     0.138140

 14 C s       :     2.904144  s :     2.904144
      pz      :     1.108915  p :     3.038079
      px      :     0.972499
      py      :     0.956666
      dz2     :     0.018559  d :     0.109104
      dxz     :     0.007549
      dyz     :     0.030088
      dx2y2   :     0.022950
      dxy     :     0.029957

 15 C s       :     2.744083  s :     2.744083
      pz      :     0.974555  p :     2.622148
      px      :     0.730925
      py      :     0.916669
      dz2     :     0.066193  d :     0.272512
      dxz     :     0.034437
      dyz     :     0.086445
      dx2y2   :     0.044856
      dxy     :     0.040582

 16 O s       :     3.549437  s :     3.549437
      pz      :     1.517763  p :     4.725994
      px      :     1.475788
      py      :     1.732443
      dz2     :     0.065602  d :     0.206008
      dxz     :     0.043783
      dyz     :     0.056857
      dx2y2   :     0.020820
      dxy     :     0.018946

 17 O s       :     3.465736  s :     3.465736
      pz      :     1.614619  p :     4.674994
      px      :     1.701211
      py      :     1.359164
      dz2     :     0.040214  d :     0.250872
      dxz     :     0.016774
      dyz     :     0.083196
      dx2y2   :     0.067773
      dxy     :     0.042914

 18 H s       :     0.784608  s :     0.784608
      pz      :     0.008023  p :     0.044883
      px      :     0.011359
      py      :     0.025501

 19 H s       :     0.790401  s :     0.790401
      pz      :     0.017673  p :     0.044181
      px      :     0.010559
      py      :     0.015949

 20 H s       :     0.790495  s :     0.790495
      pz      :     0.007868  p :     0.044151
      px      :     0.028024
      py      :     0.008259

 21 H s       :     0.770547  s :     0.770547
      pz      :     0.009101  p :     0.045700
      px      :     0.015738
      py      :     0.020861

 22 H s       :     0.770513  s :     0.770513
      pz      :     0.010164  p :     0.045926
      px      :     0.009735
      py      :     0.026027

 23 H s       :     0.760388  s :     0.760388
      pz      :     0.010946  p :     0.046352
      px      :     0.009979
      py      :     0.025428

 24 H s       :     0.761095  s :     0.761095
      pz      :     0.009928  p :     0.047333
      px      :     0.015708
      py      :     0.021698

 25 H s       :     0.768822  s :     0.768822
      pz      :     0.009898  p :     0.045797
      px      :     0.009656
      py      :     0.026243

 26 H s       :     0.759748  s :     0.759748
      pz      :     0.009887  p :     0.046821
      px      :     0.010227
      py      :     0.026707

 27 H s       :     0.772124  s :     0.772124
      pz      :     0.008283  p :     0.040177
      px      :     0.021990
      py      :     0.009904

 28 H s       :     0.784315  s :     0.784315
      pz      :     0.017613  p :     0.041317
      px      :     0.006819
      py      :     0.016885

 29 H s       :     0.784290  s :     0.784290
      pz      :     0.025501  p :     0.041322
      px      :     0.006320
      py      :     0.009500

 30 H s       :     0.560626  s :     0.560626
      pz      :     0.052564  p :     0.116636
      px      :     0.028944
      py      :     0.035129


---------------------------------
LOEWDIN BOND ORDERS (THRESH 0.050000)
---------------------------------
B(  0-C ,  1-C ) :   1.0777 B(  0-C ,  3-C ) :   0.0689 B(  0-C , 15-C ) :   0.0689 
B(  0-C , 17-O ) :   0.0553 B(  0-C , 18-H ) :   0.9054 B(  0-C , 19-H ) :   0.9135 
B(  0-C , 20-H ) :   0.9162 B(  1-C ,  2-H ) :   0.8268 B(  1-C ,  3-C ) :   1.0038 
B(  1-C ,  4-C ) :   0.0876 B(  1-C , 12-C ) :   0.0834 B(  1-C , 15-C ) :   0.8869 
B(  1-C , 16-O ) :   0.1844 B(  1-C , 17-O ) :   0.1613 B(  3-C ,  4-C ) :   1.3195 
B(  3-C ,  5-C ) :   0.0912 B(  3-C ,  6-C ) :   0.0741 B(  3-C , 11-C ) :   0.0922 
B(  3-C , 12-C ) :   1.5158 B(  3-C , 15-C ) :   0.0832 B(  3-C , 26-H ) :   0.0522 
B(  4-C ,  5-C ) :   1.6213 B(  4-C ,  6-C ) :   0.0895 B(  4-C , 11-C ) :   0.0781 
B(  4-C , 12-C ) :   0.0841 B(  4-C , 21-H ) :   0.8591 B(  4-C , 22-H ) :   0.0567 
B(  5-C ,  6-C ) :   1.3044 B(  5-C ,  7-C ) :   0.0962 B(  5-C , 11-C ) :   0.0771 
B(  5-C , 12-C ) :   0.1284 B(  5-C , 21-H ) :   0.0568 B(  5-C , 22-H ) :   0.8594 
B(  6-C ,  7-C ) :   1.3420 B(  6-C ,  8-C ) :   0.0933 B(  6-C ,  9-C ) :   0.0751 
B(  6-C , 10-C ) :   0.0781 B(  6-C , 11-C ) :   1.2251 B(  6-C , 12-C ) :   0.0786 
B(  6-C , 22-H ) :   0.0507 B(  6-C , 23-H ) :   0.0502 B(  7-C ,  8-C ) :   1.3824 
B(  7-C ,  9-C ) :   0.0852 B(  7-C , 10-C ) :   0.1285 B(  7-C , 11-C ) :   0.0799 
B(  7-C , 13-O ) :   0.2484 B(  7-C , 23-H ) :   0.8470 B(  8-C ,  9-C ) :   1.2281 
B(  8-C , 10-C ) :   0.0932 B(  8-C , 11-C ) :   0.0679 B(  8-C , 13-O ) :   1.4574 
B(  8-C , 14-C ) :   0.0792 B(  8-C , 23-H ) :   0.0551 B(  9-C , 10-C ) :   1.6062 
B(  9-C , 11-C ) :   0.0911 B(  9-C , 13-O ) :   0.1811 B(  9-C , 24-H ) :   0.8498 
B(  9-C , 25-H ) :   0.0560 B( 10-C , 11-C ) :   1.3171 B( 10-C , 12-C ) :   0.0963 
B( 10-C , 24-H ) :   0.0568 B( 10-C , 25-H ) :   0.8577 B( 11-C , 12-C ) :   1.3237 
B( 11-C , 25-H ) :   0.0508 B( 11-C , 26-H ) :   0.0502 B( 12-C , 26-H ) :   0.8400 
B( 13-O , 14-C ) :   1.4013 B( 13-O , 27-H ) :   0.1037 B( 13-O , 28-H ) :   0.1036 
B( 13-O , 29-H ) :   0.1035 B( 14-C , 27-H ) :   0.8556 B( 14-C , 28-H ) :   0.8562 
B( 14-C , 29-H ) :   0.8562 B( 15-C , 16-O ) :   2.1606 B( 15-C , 17-O ) :   1.5072 
B( 15-C , 30-H ) :   0.0539 B( 16-O , 17-O ) :   0.4655 B( 17-O , 30-H ) :   0.8961 


------------------------------------------
LOEWDIN REDUCED ORBITAL POPULATIONS PER MO
-------------------------------------------
THRESHOLD FOR PRINTING IS 0.1%%
                      0         1         2         3         4         5   
                 -19.00394 -18.98878 -18.94464 -10.16941 -10.09957 -10.07329
                   2.00000   2.00000   2.00000   2.00000   2.00000   2.00000
                  --------  --------  --------  --------  --------  --------
 8 C  s               0.0       0.0       0.0       0.0      99.2       0.0
13 O  s               0.0      99.9       0.0       0.0       0.0       0.0
13 O  px              0.0       0.0       0.0       0.0       0.1       0.1
13 O  dx2y2           0.0       0.0       0.0       0.0       0.2       0.0
13 O  dxy             0.0       0.0       0.0       0.0       0.0       0.2
14 C  s               0.0       0.0       0.0       0.0       0.0      99.4
15 C  s               0.0       0.0       0.0      98.9       0.0       0.0
16 O  s               0.0       0.0      99.9       0.0       0.0       0.0
16 O  pz              0.0       0.0       0.0       0.2       0.0       0.0
16 O  dz2             0.0       0.0       0.0       0.1       0.0       0.0
17 O  s              99.9       0.0       0.0       0.0       0.0       0.0
17 O  py              0.0       0.0       0.0       0.1       0.0       0.0
17 O  dx2y2           0.0       0.0       0.0       0.2       0.0       0.0

                      6         7         8         9        10        11   
                 -10.05529 -10.04854 -10.04851 -10.04449 -10.03999 -10.03820
                   2.00000   2.00000   2.00000   2.00000   2.00000   2.00000
                  --------  --------  --------  --------  --------  --------
 1 C  s              99.6       0.0       0.0       0.0       0.0       0.0
 3 C  s               0.0      98.4       1.1       0.0       0.0       0.0
 4 C  py              0.0       0.1       0.0       0.0       0.0       0.0
 6 C  s               0.0       1.1      98.3       0.2       0.0       0.0
 7 C  px              0.0       0.0       0.1       0.0       0.0       0.0
 8 C  py              0.0       0.0       0.0       0.0       0.0       0.1
 9 C  s               0.0       0.0       0.0       0.0       2.4      97.2
 9 C  px              0.0       0.0       0.0       0.0       0.1       0.0
10 C  s               0.0       0.0       0.0       0.2      97.1       2.4
10 C  px              0.0       0.0       0.0       0.0       0.0       0.1
11 C  s               0.0       0.0       0.2      99.1       0.2       0.0
12 C  px              0.0       0.1       0.0       0.1       0.0       0.0

                     12        13        14        15        16        17   
                 -10.03555 -10.03468 -10.03466 -10.03086 -10.02085  -1.08210
                   2.00000   2.00000   2.00000   2.00000   2.00000   2.00000
                  --------  --------  --------  --------  --------  --------
 0 C  s               0.0       0.0       0.0       0.0      99.7       0.1
 0 C  pz              0.0       0.0       0.0       0.0       0.0       0.3
 1 C  s               0.0       0.0       0.0       0.0       0.0       1.1
 1 C  pz              0.0       0.0       0.0       0.0       0.1       1.0
 1 C  px              0.0       0.0       0.0       0.0       0.0       0.2
 1 C  py              0.0       0.0       0.0       0.0       0.0       1.0
 3 C  px              0.0       0.1       0.0       0.0       0.0       0.3
 3 C  py              0.1       0.1       0.0       0.0       0.0       0.1
 4 C  s              88.9       0.2      10.5       0.0       0.0       0.0
 4 C  px              0.0       0.0       0.1       0.0       0.0       0.0
 5 C  s              10.6       0.9      88.1       0.0       0.0       0.0
 5 C  px              0.1       0.0       0.0       0.0       0.0       0.0
 6 C  px              0.0       0.0       0.0       0.1       0.0       0.0
 7 C  s               0.0       0.0       0.0      99.6       0.0       0.0
11 C  px              0.0       0.1       0.0       0.0       0.0       0.0
12 C  s               0.0      98.4       1.1       0.0       0.0       0.0
15 C  s               0.0       0.0       0.0       0.0       0.0      18.1
15 C  pz              0.0       0.0       0.0       0.0       0.0       1.1
15 C  px              0.0       0.0       0.0       0.0       0.0       0.1
15 C  py              0.0       0.0       0.0       0.0       0.0       3.9
15 C  dxz             0.0       0.0       0.0       0.0       0.0       0.2
15 C  dyz             0.0       0.0       0.0       0.0       0.0       0.3
15 C  dx2y2           0.0       0.0       0.0       0.0       0.0       0.6
16 O  s               0.0       0.0       0.0       0.0       0.0      15.1
16 O  pz              0.0       0.0       0.0       0.0       0.0       2.4
16 O  px              0.0       0.0       0.0       0.0       0.0       0.4
16 O  py              0.0       0.0       0.0       0.0       0.0       0.8
16 O  dz2             0.0       0.0       0.0       0.0       0.0       0.2
16 O  dxz             0.0       0.0       0.0       0.0       0.0       0.2
16 O  dyz             0.0       0.0       0.0       0.0       0.0       0.8
16 O  dx2y2           0.0       0.0       0.0       0.0       0.0       0.1
16 O  dxy             0.0       0.0       0.0       0.0       0.0       0.1
17 O  s               0.0       0.0       0.0       0.0       0.0      39.8
17 O  pz              0.0       0.0       0.0       0.0       0.0       1.1
17 O  px              0.0       0.0       0.0       0.0       0.0       0.2
17 O  py              0.0       0.0       0.0       0.0       0.0       2.0
17 O  dyz             0.0       0.0       0.0       0.0       0.0       0.2
17 O  dx2y2           0.0       0.0       0.0       0.0       0.0       0.5
30 H  s               0.0       0.0       0.0       0.0       0.0       5.7
30 H  pz              0.0       0.0       0.0       0.0       0.0       0.7
30 H  py              0.0       0.0       0.0       0.0       0.0       0.6

                     18        19        20        21        22        23   
                  -1.03512  -0.98740  -0.85139  -0.80831  -0.76625  -0.74562
                   2.00000   2.00000   2.00000   2.00000   2.00000   2.00000
                  --------  --------  --------  --------  --------  --------
 0 C  s               0.0       0.0       0.3       2.8       7.2       1.2
 0 C  pz              0.0       0.0       0.2       0.9       1.3       0.2
 0 C  px              0.0       0.0       0.1       0.2       0.1       0.0
 0 C  py              0.0       0.0       0.0       0.1       0.1       0.0
 1 C  s               0.0       0.1       1.7       9.5      13.2       1.8
 1 C  pz              0.0       0.4       0.0       0.0       0.3       0.0
 1 C  px              0.0       0.1       0.8       1.2       0.0       0.1
 1 C  py              0.0       0.0       0.0       0.0       0.4       0.0
 2 H  s               0.0       0.0       0.2       1.1       1.8       0.3
 2 H  py              0.0       0.0       0.0       0.1       0.2       0.0
 3 C  s               0.0       0.0       7.3      13.3       0.8       0.0
 3 C  pz              0.0       0.0       0.0       0.0       0.2       0.0
 3 C  px              0.0       0.0       0.9       0.2       5.3       1.5
 3 C  py              0.0       0.0       0.0       0.0       1.1       1.9
 3 C  dz2             0.0       0.0       0.1       0.1       0.0       0.0
 4 C  s               0.0       0.0       5.7       6.1       3.2       1.5
 4 C  px              0.0       0.0       0.6       0.2       3.2       0.4
 4 C  py              0.0       0.0       1.0       1.4       0.2       0.2
 5 C  s               0.0       0.0       7.0       0.9       9.5       4.0
 5 C  px              0.0       0.0       0.0       2.1       0.0       0.1
 5 C  py              0.0       0.0       1.9       0.0       0.6       0.1
 6 C  s               0.1       0.0      13.7       1.2       4.6       2.4
 6 C  pz              0.0       0.0       0.0       0.0       0.0       0.3
 6 C  px              0.1       0.0       0.2       2.8       1.9       2.2
 6 C  py              0.0       0.0       0.5       0.6       1.3       4.8
 6 C  dz2             0.0       0.0       0.2       0.0       0.0       0.0
 6 C  dx2y2           0.0       0.0       0.0       0.0       0.0       0.1
 7 C  s               0.8       0.0       5.6       4.8       0.0      10.8
 7 C  px              1.0       0.0       1.3       0.0       1.8       0.0
 7 C  py              0.5       0.0       0.6       1.2       0.8       0.2
 8 C  s               9.0       0.0       2.6       5.1       2.8       4.4
 8 C  pz              0.1       0.0       0.0       0.0       0.1       0.1
 8 C  px              8.4       0.0       2.4       2.7       0.6       0.6
 8 C  py              0.2       0.0       0.0       0.1       0.9       3.2
 8 C  dz2             0.3       0.0       0.0       0.0       0.0       0.0
 8 C  dx2y2           0.6       0.0       0.0       0.0       0.0       0.0
 9 C  s               0.7       0.0       3.7       6.8       6.4       0.7
 9 C  pz              0.1       0.0       0.0       0.0       0.0       0.1
 9 C  px              0.5       0.0       1.0       0.5       0.2       2.1
 9 C  py              0.8       0.0       0.5       0.7       0.2       1.3
 9 C  dx2y2           0.0       0.0       0.0       0.0       0.0       0.1
10 C  s               0.1       0.0       6.3       4.6       3.1       9.3
10 C  px              0.1       0.0       0.0       1.1       1.4       0.9
10 C  py              0.0       0.0       1.8       0.4       0.0       0.3
11 C  s               0.0       0.0      14.2       0.6       0.2       9.6
11 C  pz              0.0       0.0       0.0       0.0       0.1       0.2
11 C  px              0.0       0.0       0.0       4.4       0.4       0.6
11 C  py              0.0       0.0       0.5       0.2       2.7       3.9
11 C  dz2             0.0       0.0       0.2       0.0       0.0       0.1
12 C  s               0.0       0.0       8.1       3.4       0.0       7.2
[...]
15 C  dxz             0.6       0.0       0.0       0.0       0.0       0.0
15 C  dx2y2           0.9       0.0       0.0       0.0       0.0       0.0
16 O  s               2.4       0.0       0.0       0.0       0.0       0.0
16 O  pz              2.1       0.0       0.0       0.0       0.0       0.0
16 O  px              0.3       0.0       0.0       0.0       0.0       0.0
16 O  py              0.5       0.0       0.0       0.0       0.0       0.0
16 O  dz2             1.2       0.0       0.0       0.0       0.0       0.0
16 O  dxz             0.8       0.0       0.0       0.0       0.0       0.0
16 O  dyz             2.4       0.0       0.0       0.0       0.0       0.0
16 O  dxy             0.4       0.0       0.0       0.0       0.0       0.0
17 O  s               4.4       0.0       0.0       0.0       0.0       0.0
17 O  pz              7.1       0.0       0.0       0.0       0.0       0.0
17 O  px              0.9       0.0       0.0       0.0       0.0       0.0
17 O  py             11.8       0.0       0.0       0.0       0.0       0.0
17 O  dz2             8.1       0.0       0.0       0.0       0.0       0.0
17 O  dxz             4.0       0.0       0.0       0.0       0.0       0.0
17 O  dyz            18.6       0.0       0.0       0.0       0.0       0.0
17 O  dxy             2.7       0.0       0.0       0.0       0.0       0.0
30 H  s              11.0       0.0       0.0       0.0       0.0       0.0
30 H  pz              7.6       0.0       0.0       0.0       0.0       0.0
30 H  px              1.1       0.0       0.0       0.0       0.0       0.0
30 H  py              4.4       0.0       0.0       0.0       0.0       0.0

                    396       397       398       399       400       401   
                  22.03152  22.09080  22.17394  22.20366  22.24597  22.24924
                   0.00000   0.00000   0.00000   0.00000   0.00000   0.00000
                  --------  --------  --------  --------  --------  --------
 0 C  s              55.7       1.2       0.8       0.0       3.7       2.2
 1 C  s              16.1       0.1       1.7       1.7      28.7       6.8
 3 C  s               1.5      21.4      16.2       0.0       2.0       3.0
 3 C  py              0.0       0.0       0.0       0.1       0.0       0.0
 4 C  s               4.4       0.5       3.3      15.9       4.1       1.5
 5 C  s               0.9      19.8       4.0       1.3      14.5       0.3
 6 C  s               2.3       1.3      15.7       3.0      10.8       0.0
 7 C  s               0.3      17.3       0.9       7.0       4.6      12.5
 8 C  s               2.6      13.0      17.0       1.2       0.1      18.8
 9 C  s               4.2       6.0       2.3      24.8       2.4       0.3
10 C  s               0.1       8.1       1.2      22.0       4.8      10.5
11 C  s               8.7       0.1       2.1       2.3       2.8      16.9
12 C  s               0.2       7.4       5.1      18.8       6.8      11.1
14 C  s               1.7       0.7       0.4       0.1       0.1       0.8
15 C  s               0.9       2.7      28.7       1.4      14.1      14.6

                    402       403       404       405       406       407   
                  22.33076  22.37744  22.40527  43.67470  43.69587  43.72986
                   0.00000   0.00000   0.00000   0.00000   0.00000   0.00000
                  --------  --------  --------  --------  --------  --------
 0 C  s               5.0       4.5       3.7       0.0       0.0       0.0
 1 C  s              18.2      14.5       7.4       0.0       0.0       0.0
 3 C  s               5.9       1.2      23.7       0.0       0.0       0.0
 4 C  s              18.1       0.7       7.5       0.0       0.0       0.0
 5 C  s              15.6       5.4       3.9       0.0       0.0       0.0
 6 C  s               0.1       9.5       6.5       0.0       0.0       0.0
 7 C  s               8.0      10.9       1.1       0.0       0.0       0.0
 8 C  s              13.5       8.8       0.7       0.0       0.0       0.0
 9 C  s               5.6       7.7       0.3       0.0       0.0       0.0
10 C  s               6.1       9.6       1.3       0.0       0.0       0.0
11 C  s               0.2      12.0       6.5       0.0       0.0       0.0
12 C  s               0.6       0.3      17.4       0.0       0.0       0.0
13 O  s               0.0       0.0       0.0       0.0       0.6      99.3
14 C  s               0.2       0.2       0.0       0.0       0.0       0.0
15 C  s               2.2      14.2      19.4       0.0       0.1       0.0
16 O  s               0.0       0.0       0.1      32.3      67.2       0.4
17 O  s               0.0       0.0       0.0      67.6      32.0       0.2



                      *****************************
                      * MAYER POPULATION ANALYSIS *
                      *****************************

  NA   - Mulliken gross atomic population
  ZA   - Total nuclear charge
  QA   - Mulliken gross atomic charge
  VA   - Mayer's total valence
  BVA  - Mayer's bonded valence
  FA   - Mayer's free valence

  ATOM       NA         ZA         QA         VA         BVA        FA
  0 C      6.5458     6.0000    -0.5458     3.8078     3.8078    -0.0000
  1 C      6.0117     6.0000    -0.0117     3.6542     3.6542    -0.0000
  2 H      0.8158     1.0000     0.1842     0.9589     0.9589    -0.0000
  3 C      5.8730     6.0000     0.1270     3.4078     3.4078    -0.0000
  4 C      6.2526     6.0000    -0.2526     3.7584     3.7584    -0.0000
  5 C      6.3218     6.0000    -0.3218     3.6642     3.6642     0.0000
  6 C      5.7938     6.0000     0.2062     3.6727     3.6727     0.0000
  7 C      6.4277     6.0000    -0.4277     3.6269     3.6269    -0.0000
  8 C      5.6612     6.0000     0.3388     3.7292     3.7292    -0.0000
  9 C      6.2864     6.0000    -0.2864     3.6702     3.6702    -0.0000
 10 C      6.3002     6.0000    -0.3002     3.6395     3.6395     0.0000
 11 C      5.8925     6.0000     0.1075     3.7732     3.7732    -0.0000
 12 C      6.2555     6.0000    -0.2555     3.7892     3.7892    -0.0000
 13 O      8.2228     8.0000    -0.2228     1.9674     1.9674     0.0000
 14 C      6.3418     6.0000    -0.3418     3.7326     3.7326    -0.0000
 15 C      5.6966     6.0000     0.3034     3.9839     3.9839    -0.0000
 16 O      8.4700     8.0000    -0.4700     1.9144     1.9144     0.0000
 17 O      8.3497     8.0000    -0.3497     1.9720     1.9720    -0.0000
 18 H      0.8188     1.0000     0.1812     0.9532     0.9532    -0.0000
 19 H      0.8273     1.0000     0.1727     0.9562     0.9562     0.0000
 20 H      0.8285     1.0000     0.1715     0.9555     0.9555    -0.0000
 21 H      0.8196     1.0000     0.1804     0.9596     0.9596    -0.0000
 22 H      0.8249     1.0000     0.1751     0.9623     0.9623     0.0000
 23 H      0.8162     1.0000     0.1838     0.9607     0.9607    -0.0000
 24 H      0.8146     1.0000     0.1854     0.9576     0.9576     0.0000
 25 H      0.8215     1.0000     0.1785     0.9611     0.9611     0.0000
 26 H      0.8104     1.0000     0.1896     0.9516     0.9516    -0.0000
 27 H      0.8262     1.0000     0.1738     0.9514     0.9514     0.0000
 28 H      0.8274     1.0000     0.1726     0.9481     0.9481    -0.0000
 29 H      0.8274     1.0000     0.1726     0.9481     0.9481     0.0000
 30 H      0.6183     1.0000     0.3817     0.8618     0.8618    -0.0000

  Mayer bond orders larger than 0.100000
B(  0-C ,  1-C ) :   0.9024 B(  0-C , 18-H ) :   0.9639 B(  0-C , 19-H ) :   0.9697 
B(  0-C , 20-H ) :   0.9689 B(  1-C ,  2-H ) :   0.9631 B(  1-C ,  3-C ) :   0.7756 
B(  1-C , 15-C ) :   0.9859 B(  3-C ,  4-C ) :   1.2359 B(  3-C , 12-C ) :   1.4580 
B(  4-C ,  5-C ) :   1.4776 B(  4-C , 21-H ) :   0.9495 B(  5-C ,  6-C ) :   1.1856 
B(  5-C , 22-H ) :   0.9732 B(  6-C ,  7-C ) :   1.1750 B(  6-C , 11-C ) :   1.4002 
B(  7-C ,  8-C ) :   1.4425 B(  7-C , 23-H ) :   0.9491 B(  8-C ,  9-C ) :   1.2231 
B(  8-C , 13-O ) :   1.0384 B(  9-C , 10-C ) :   1.4506 B(  9-C , 24-H ) :   0.9310 
B( 10-C , 11-C ) :   1.2184 B( 10-C , 25-H ) :   0.9709 B( 11-C , 12-C ) :   1.2156 
B( 12-C , 26-H ) :   0.9326 B( 13-O , 14-C ) :   0.8432 B( 14-C , 27-H ) :   0.9603 
B( 14-C , 28-H ) :   0.9562 B( 14-C , 29-H ) :   0.9561 B( 15-C , 16-O ) :   1.8769 
B( 15-C , 17-O ) :   1.0781 B( 17-O , 30-H ) :   0.8336 

-------
TIMINGS
-------

Total SCF time: 0 days 0 hours 1 min 41 sec 

Total time                  ....     101.332 sec
Sum of individual times     ....     100.121 sec  ( 98.8%)

SCF preparation             ....       0.881 sec  (  0.9%)
Fock matrix formation       ....      96.259 sec  ( 95.0%)
  Startup                   ....       0.117 sec  (  0.1% of F)
  Split-RI-J                ....      23.377 sec  ( 24.3% of F)
  XC integration            ....      50.132 sec  ( 52.1% of F)
    XC Preparation          ....       0.000 sec  (  0.0% of XC)
    Basis function eval.    ....       8.197 sec  ( 16.4% of XC)
    Density eval.           ....      18.441 sec  ( 36.8% of XC)
    XC-Functional eval.     ....       4.185 sec  (  8.3% of XC)
    XC-Potential eval.      ....      17.155 sec  ( 34.2% of XC)
  CPCM terms                ....      21.747 sec  ( 22.6% of F)
Diagonalization             ....       0.000 sec  (  0.0%)
Density matrix formation    ....       0.516 sec  (  0.5%)
Total Energy calculation    ....       0.097 sec  (  0.1%)
Population analysis         ....       0.348 sec  (  0.3%)
Orbital Transformation      ....       0.171 sec  (  0.2%)
Orbital Orthonormalization  ....       0.000 sec  (  0.0%)
DIIS solution               ....       1.677 sec  (  1.7%)
  MO trafo                  ....       0.000 sec  (  0.0 % of DIIS)
  Orb grad                  ....       0.000 sec  (  0.0 % of DIIS)
  Energy W gradient         ....       0.000 sec  (  0.0 % of DIIS)
  DIIS error                ....       0.081 sec  (  4.8 % of DIIS)
  DIIS work                 ....       1.465 sec  ( 87.3 % of DIIS)
  Form Q                    ....       0.000 sec  (  0.0 % of DIIS)
  Form QpQm                 ....       0.000 sec  (  0.0 % of DIIS)
  Exp/Cayley                ....       0.000 sec  (  0.0 % of DIIS)
  Orb update                ....       0.000 sec  (  0.0 % of DIIS)
  Wake-sleep                ....       0.037 sec  (  2.2 % of DIIS)
SOSCF solution              ....       0.173 sec  (  0.2%)
  MO trafo                  ....       0.101 sec  ( 58.5 % of SOSCF)
  Orb grad                  ....       0.001 sec  (  0.6 % of SOSCF)
  Rot update                ....       0.000 sec  (  0.1 % of SOSCF)
  Step                      ....       0.070 sec  ( 40.7 % of SOSCF)
Finished LeanSCF after 101.5 sec

Maximum memory used throughout the entire LEANSCF-calculation: 71.1 MB


-------------------------------------------------------------------------------
                          DFT DISPERSION CORRECTION                            
                                                                               
                                DFTD4 V3.4.0                                   
-------------------------------------------------------------------------------
The R2SCAN3C composite method is recognized
Using three-body term ABC
Active option DFTDOPT                   ...         5   

-------------------------   ----------------
Dispersion correction           -0.013075220
-------------------------   ----------------

------------------   -----------------
gCP correction             0.013697283
------------------   -----------------

-------------------------   --------------------
FINAL SINGLE POINT ENERGY      -767.459611293702
-------------------------   --------------------


------------------------------------------------------------------------------
                              ORCA PROPERTY CALCULATIONS
------------------------------------------------------------------------------

GBWName                                 ... sp_solv.gbw
Number of atoms                         ...     31
Number of basis functions               ...    408
Max core memory                         ...   1024 MB

Electric properties:
Dipole moment                           ... YES
Quadrupole moment                       ...  NO
Static polarizability (Dipole/Dipole)   ...  NO
Static polarizability (Dipole/Quad.)    ...  NO
Static polarizability (Quad./Quad.)     ...  NO
Static polarizability (Velocity)        ...  NO

Atomic electric properties:
Dipole moment                           ...  NO
Quadrupole moment                       ...  NO
Static polarizability                   ...  NO

Choice of electric origin               ... Center of mass
Position of electric origin             ...     0.000013    -0.000003    -0.000013

General magnetic properties:
Magnetizability                         ...  NO

EPR properties:
g-Tensor (aka g-matrix)                 ...  NO
Zero-Field splitting spin-orbit         ...  NO
Zero-field splitting spin-spin          ...  NO
Hyperfine couplings                     ...  NO (   0 nuclei)
Quadrupole couplings                    ...  NO (   0 nuclei)
Contact density                         ...  NO (   0 nuclei)

NMR properties:
Chemical shifts                         ...  NO (   0 nuclei)
Spin-rotation constants                 ...  NO (   0 nuclei)
Spin-spin couplings                     ...  NO (   0 nuclei,    0 pairs)

Choice of magnetic origin               ... GIAO
Position of magnetic origin             ...     0.000000     0.000000     0.000000

Properties with geometric perturbations:
SCF Hessian                             ...  NO
IR spectrum                             ...  NO
VCD spectrum                            ...  NO
X-ray spectroscopy properties:
SCF XES/XAS/RIXS spectra                ...  NO


-------------
DIPOLE MOMENT
-------------

Method             : SCF
Type of density    : Electron Density
Multiplicity       :   1
Irrep              :   0
Energy             :  -767.4602333568449239 Eh
Relativity type    : 
Basis              : AO
                                X                 Y                 Z
Electronic contribution:     -3.020903376      -1.191271595       4.665526716
Nuclear contribution   :      3.889229583       2.595982709      -5.690717360
                        -----------------------------------------
Total Dipole Moment    :      0.868326207       1.404711114      -1.025190644
                        -----------------------------------------
Magnitude (a.u.)       :      1.943764278
Magnitude (Debye)      :      4.940656155



--------------------
Rotational spectrum 
--------------------
 
Rotational constants in cm-1:             0.041827             0.007191             0.006752 
Rotational constants in MHz :          1253.938922           215.581671           202.413418 

Dipole components along the rotational axes: 
x,y,z [a.u.] :     0.860624    -1.456270    -0.957509 
x,y,z [Debye]:     2.187531    -3.701545    -2.433795 

 

Dipole moment calculation done in   0.0 sec 

Maximum memory used throughout the entire PROP-calculation: 32.9 MB

--------------------------------
SUGGESTED CITATIONS FOR THIS RUN
--------------------------------

Below you find a list of papers that are relevant to this ORCA run
We neither can nor want to force you to cite these papers, but we appreciate if you do
You receive ORCA, which is the product of decades of hard work by many enthusiastic individuals, for free
The only thing we kindly ask in return is that you cite our papers,
We deeply appreciate it, if you show your appreciation for ORCA by not just citing the generic ORCA reference.

Please note that relegating all ORCA citations to the supporting information does *not* help us.
SI sections are not indexed - citations you put there will not count into any citation statistics
But we need these citations in order to attract the funding resources that allow us to do what we are doing

Therefore, if you are a happy ORCA user, please consider citing a few of the papers listed below in the main body of your paper

In addition to the list printed below, the program has created the file sp_solv.bibtex that contains the list in bibtex format
You can import this file easily into all common literature databanks and citation aid programs


List of essential papers. We consider these as the minimum necessary citations

  1. Neese,F.
     Software update: the ORCA program system, version 5.0
     WIRES Comput. Molec. Sci., 2022 12(1)e1606
     doi.org/10.1002/wcms.1606
  2. Grimme,S.; Hansen,A.; Ehlert,S.; Mewes,J.
     r2SCAN-3c: A 'Swiss army knife' composite electronic-structure method
     J. Chem. Phys., 2021 154 064103
     doi.org/10.1063/5.0040021

List of papers to cite with high priority. The work reported in these papers was absolutely
necessary for this run to complete.
Our perspective: the developers of density functionals and basis sets usually get cited in chemistry papers
Good! But without the algorithms to do something with them, the functionals or basis sets would not do anything.
Hence, in our opinion, the algorithm design and method developments papers are equally worthy of getting cited

  1. Neese,F.
     An improvement of the resolution of the identity approximation for the formation of the Coulomb matrix
     J. Comp. Chem., 2003 24(14)1740-1747
     doi.org/10.1002/jcc.10318
  2. Garcia-Rates,M.; Neese,F.
     Effect of the Solute Cavity on the Solvation Energy and its Derivatives within the Framework of the Gaussian Charge Scheme
     J. Comput. Chem., 2020 41 922-939
     doi.org/10.1002/jcc.26139
  3. Neese,F.
     The SHARK Integral Generation and Digestion System
     J. Comp. Chem., 2022  1-16
     doi.org/10.1002/jcc.26942
  4. Lehtola,S.; Steigemann,C.; Oliveira,M.; Marques,M.
     Recent developments in Libxc - A comprehensive library of functionals for density functional theory
     Software X, 2018 7 
     doi.org/10.1016/j.softx.2017.11.002
  5. Caldeweyher,E.; Bannwarth,C.; Grimme,S.
     Extension of the D3 dispersion coefficient model
     J. Chem. Phys., 2017 147 034112-XXXX
     doi.org/10.1063/1.4993215
  6. Caldeweyher,E.; Ehlert,S.; Hansen,A.; Neugebauer,H.; Spicher,S.; Bannwarth,C.; Grimme,S.
     A generally applicable atomic-charge dependent London dispersion correction
     J. Chem. Phys., 2019 150 154122-XXXX
     doi.org/10.1063/1.5090222
  7. Caldeweyher,E.; Mewes,J.; Ehlert,S.; Grimme,S.
     Extension and evaluation of the D4 London-dispersion model for periodic systems
     Phys. Chem. Chem. Phys., 2020 22(16)8499-8512
     doi.org/10.1039/D0CP00502A

List of suggested additional citations. These are papers that are important in the 'surrounding' of 
of this run, or papers that preceded the highly important papers. If you like your results we are grateful for a citation.

  1. Neese,F.
     The ORCA program system
     WIRES Comput. Molec. Sci., 2012 2(1)73-78
     doi.org/10.1002/wcms.81
  2. Neese,F.
     Software update: the ORCA program system, version 4.0
     WIRES Comput. Molec. Sci., 2018 8(1)1-6
     doi.org/10.1002/wcms.1327
  3. Neese,F.; Wennmohs,F.; Becker,U.; Riplinger,C.
     The ORCA quantum chemistry program package
     J. Chem. Phys., 2020 152 Art. No. L224108
     doi.org/10.1063/5.0004608

List of optional additional citations

  1. Neese,F.
     Approximate second-order SCF convergence for spin unrestricted wavefunctions
     Chem. Phys. Lett., 2000 325(1-3)93-98
     doi.org/10.1016/s0009-2614(00)00662-x

Timings for individual modules:

Sum of individual times          ...      105.337 sec (=   1.756 min)
Startup calculation              ...        2.915 sec (=   0.049 min)   2.8 %
SCF iterations                   ...      102.238 sec (=   1.704 min)  97.1 %
Property calculations            ...        0.184 sec (=   0.003 min)   0.2 %
                             ****ORCA TERMINATED NORMALLY****
TOTAL RUN TIME: 0 days 0 hours 1 minutes 46 seconds 395 msec
