
                                 *****************
                                 * O   R   C   A *
                                 *****************

                                            #,                                       
                                            ###                                      
                                            ####                                     
                                            #####                                    
                                            ######                                   
                                           ########,                                 
                                     ,,################,,,,,                         
                               ,,#################################,,                 
                          ,,##########################################,,             
                       ,#########################################, ''#####,          
                    ,#############################################,,   '####,        
                  ,##################################################,,,,####,       
                ,###########''''           ''''###############################       
              ,#####''   ,,,,##########,,,,          '''####'''          '####       
            ,##' ,,,,###########################,,,                        '##       
           ' ,,###''''                  '''############,,,                           
         ,,##''                                '''############,,,,        ,,,,,,###''
      ,#''                                            '''#######################'''  
     '                                                          ''''####''''         
             ,#######,   #######,   ,#######,      ##                                
            ,#'     '#,  ##    ##  ,#'     '#,    #''#        ,####,   ,####,        
            ##       ##  ##   ,#'  ##            #'  '#       #'       #'  '#        
            ##       ##  #######   ##           ,######,      #####,   #    #        
            '#,     ,#'  ##    ##  '#,     ,#' ,#      #,     #,   #   #,  ,#        
             '#######'   ##     ##  '#######'  #'      '#     '####' # '####'        



                #########################################################
                #                        -***-                          #
                #          Department of theory and spectroscopy        #
                #                                                       #
                #                      Frank Neese                      #
                #                                                       #
                #     Directorship, Architecture, Infrastructure        #
                #                    SHARK, DRIVERS                     #
                #        Core code/Algorithms in most modules           #
                #                                                       #
                #        Max Planck Institute fuer Kohlenforschung      #
                #                Kaiser Wilhelm Platz 1                 #
                #                 D-45470 Muelheim/Ruhr                 #
                #                      Germany                          #
                #                                                       #
                #                  All rights reserved                  #
                #                        -***-                          #
                #########################################################


                         Program Version 6.0.0  -   RELEASE  -


 With contributions from (in alphabetic order):
   Daniel Aravena         : Magnetic Suceptibility
   Michael Atanasov       : Ab Initio Ligand Field Theory (pilot matlab implementation)
   Alexander A. Auer      : GIAO ZORA, VPT2 properties, NMR spectrum
   Ute Becker             : All parallelization in ORCA, NUMFREQ, NUMCALC
   Giovanni Bistoni       : ED, misc. LED, open-shell LED, HFLD
   Martin Brehm           : Molecular dynamics
   Dmytro Bykov           : pre 5.0 version of the SCF Hessian
   Marcos Casanova-Páez   : Triplet and SCS-CIS(D). UHF-(DLPNO)-IP/EA/STEOM-CCSD. UHF-CVS-IP/STEOM-CCSD
   Vijay G. Chilkuri      : MRCI spin determinant printing, contributions to CSF-ICE
   Pauline Colinet        : FMM embedding
   Dipayan Datta          : RHF DLPNO-CCSD density
   Achintya Kumar Dutta   : EOM-CC, STEOM-CC
   Nicolas Foglia         : Exact transition moments, OPA infrastructure, MCD improvements
   Dmitry Ganyushin       : Spin-Orbit,Spin-Spin,Magnetic field MRCI
   Miquel Garcia          : C-PCM and meta-GGA Hessian, CCSD/C-PCM, Gaussian charge scheme
   Tiago L. C. Gouveia    : GS-ROHF, GS-ROCIS
   Yang Guo               : DLPNO-NEVPT2, F12-NEVPT2, CIM, IAO-localization
   Andreas Hansen         : Spin unrestricted coupled pair/coupled cluster methods
   Ingolf Harden          : AUTO-CI MPn and infrastructure 
   Benjamin Helmich-Paris : MC-RPA, TRAH-(SCF,CASSCF), AVAS, COSX integrals, SCF dyn. polar.
   Lee Huntington         : MR-EOM, pCC
   Robert Izsak           : Overlap fitted RIJCOSX, COSX-SCS-MP3, EOM
   Riya Kayal             : Wick's Theorem for AUTO-CI, AUTO-CI UHF-CCSDT
   Emily Kempfer          : AUTO-CI, RHF CISDT and CCSDT
   Christian Kollmar      : KDIIS, OOCD, Brueckner-CCSD(T), CCSD density, CASPT2, CASPT2-K, improved NEVPT2
   Axel Koslowski         : Symmetry handling
   Simone Kossmann        : Meta GGA functionals, TD-DFT gradient, OOMP2, (MP2 Hessian; deprecated post 5.0)
   Lucas Lang             : DCDCAS
   Marvin Lechner         : AUTO-CI (C++ implementation), FIC-MRCC
   Spencer Leger          : CASSCF response
   Dagmar Lenk            : GEPOL surface, SMD, ORCA-2-JSON
   Dimitrios Liakos       : Extrapolation schemes; Compound Job, initial MDCI parallelization
   Dimitrios Manganas     : Further ROCIS development; embedding schemes. LFT, Crystal Embedding
   Dimitrios Pantazis     : SARC Basis sets
   Anastasios Papadopoulos: AUTO-CI, single reference methods and gradients
   Taras Petrenko         : pre 6.0 DFT Hessian and TD-DFT gradient, (ASA, deprecated), ECA, 1-Electron XAS/XES, NRVS
   Peter Pinski           : DLPNO-MP2, DLPNO-MP2 Gradient
   Christoph Reimann      : Effective Core Potentials
   Marius Retegan         : Local ZFS, SOC
   Christoph Riplinger    : Optimizer, TS searches, QM/MM, DLPNO-CCSD(T), (RO)-DLPNO pert. Triples
   Michael Roemelt        : Original ROCIS implementation
   Masaaki Saitow         : Open-shell DLPNO-CCSD energy and density
   Barbara Sandhoefer     : DKH picture change effects
   Kantharuban Sivalingam : CASSCF convergence/infrastructure, NEVPT2 and variants, FIC-MRCI
   Bernardo de Souza      : ESD, SOC TD-DFT
   Georgi Stoychev        : AutoAux, RI-MP2 NMR, DLPNO-MP2 response, X2C
   Van Anh Tran           : RI-MP2 g-tensors
   Willem Van den Heuvel  : Paramagnetic NMR
   Zikuan Wang            : NOTCH, Electric field optimization 
   Frank Wennmohs         : Technical directorship and infrastructure
   Hang Xu                : AUTO-CI-Response properties 


 We gratefully acknowledge several colleagues who have allowed us to
 interface, adapt or use parts of their codes:
   Stefan Grimme, W. Hujo, H. Kruse, P. Pracht,  : VdW corrections, initial TS optimization,
                  C. Bannwarth, S. Ehlert,         DFT functionals, gCP, sTDA/sTD-DF
                  L. Wittmann, M. Mueller
   Ed Valeev, F. Pavosevic, A. Kumar             : LibInt (2-el integral package), F12 methods
   Garnet Chan, S. Sharma, J. Yang, R. Olivares  : DMRG
   Ulf Ekstrom                                   : XCFun DFT Library
   Mihaly Kallay                                 : mrcc  (arbitrary order and MRCC methods)
   Frank Weinhold                                : gennbo (NPA and NBO analysis)
   Simon Mueller                                 : openCOSMO-RS
   Christopher J. Cramer and Donald G. Truhlar   : smd solvation model
   Lars Goerigk                                  : TD-DFT with DH, B97 family of functionals
   V. Asgeirsson, H. Jonsson                     : NEB implementation
   FAccTs GmbH                                   : IRC, NEB, NEB-TS, DLPNO-Multilevel, CI-OPT
                                                   MM, QMMM, 2- and 3-layer-ONIOM, Crystal-QMMM,
                                                   LR-CPCM, SF, NACMEs, symmetry and pop. for TD-DFT,
                                                   nearIR, NL-DFT gradient (VV10), updates on ESD,
                                                   ML-optimized integration grids, MBIS, APM,
                                                   GOAT, DOCKER, SOLVATOR, interface openCOSMO-RS
   S Lehtola, MJT Oliveira, MAL Marques          : LibXC Library
   Liviu Ungur et al                             : ANISO software


 Your calculation uses the libint2 library for the computation of 2-el integrals
 For citations please refer to: http://libint.valeyev.net

 Your ORCA version has been built with support for libXC version: 6.2.2
 For citations please refer to: https://libxc.gitlab.io

 This ORCA versions uses:
   CBLAS   interface :  Fast vector & matrix operations
   LAPACKE interface :  Fast linear algebra routines
   SCALAPACK package :  Parallel linear algebra routines
   Shared memory     :  Shared parallel matrices
   BLAS/LAPACK       :  OpenBLAS 0.3.27  USE64BITINT DYNAMIC_ARCH NO_AFFINITY SkylakeX SINGLE_THREADED
        Core in use  :  SkylakeX
   Copyright (c) 2011-2014, The OpenBLAS Project


Your calculation utilizes the geometrical counterpoise correction gCP
Please cite in your paper:
H.Kruse, S. Grimme J.Chem.Phys., 136, (2012), 154101 
   

Your calculation utilizes the atom-pairwise dispersion correction
based on EEQ partial charges (D4)


================================================================================

----- Orbital basis set information -----
Your calculation utilizes the basis: def2-SV(P)
   F. Weigend and R. Ahlrichs, Phys. Chem. Chem. Phys. 7, 3297 (2005).

----- AuxJ basis set information -----
Your calculation utilizes the auxiliary basis: def2/J
   F. Weigend, Phys. Chem. Chem. Phys. 8, 1057 (2006).

================================================================================
                                        WARNINGS
                       Please study these warnings very carefully!
================================================================================


================================================================================
                                       INPUT FILE
================================================================================
NAME = sp.inp
|  1> ! pbe def2-sv(p) def2/J RI DEFGRID1 loosescf d4 GCP(DFT/SV(P)) printgap
|  2> %output
|  3>     printlevel normal
|  4> end
|  5> * xyz 0 1
|  6> C -3.6426985647 -0.7312124516 0.2358486321
|  7> C -2.3886752645 0.1287102119 0.3225961523
|  8> C -1.1748545864 -0.5920874499 -0.265288695
|  9> C 0.0411449581 0.2959438784 -0.2988464261
| 10> O 0.0284376709 1.4914018858 -0.5100056934
| 11> O 1.1523095155 -0.392082815 -0.0745523992
| 12> C 2.4073507109 0.311002578 -0.0878067628
| 13> C 3.4296155362 -0.5252521004 0.6581681232
| 14> H -4.4887976601 -0.2061333034 0.6702591526
| 15> H -3.8760706729 -0.9628627146 -0.80023936
| 16> H -3.5016906204 -1.6643546436 0.7753646111
| 17> H -2.1856871609 0.3808080595 1.3652211702
| 18> H -2.5348092006 1.0650883662 -0.2189629512
| 19> H -1.3899736551 -0.8786585338 -1.2979252221
| 20> H -0.9322066248 -1.494298839 0.2954711287
| 21> H 2.6991531258 0.4639706651 -1.1316272315
| 22> H 2.2599659712 1.2912347359 0.3771330386
| 23> H 3.1167942307 -0.6672383045 1.6885412085
| 24> H 3.5283851972 -1.4975519847 0.1849246345
| 25> H 4.3887442727 -0.0183750582 0.6420085677
| 26> *
| 27> 
| 28>                          ****END OF INPUT****
================================================================================

                       ****************************
                       * Single Point Calculation *
                       ****************************

---------------------------------
CARTESIAN COORDINATES (ANGSTROEM)
---------------------------------
  C     -3.642699   -0.731212    0.235849
  C     -2.388675    0.128710    0.322596
  C     -1.174855   -0.592087   -0.265289
  C      0.041145    0.295944   -0.298846
  O      0.028438    1.491402   -0.510006
  O      1.152310   -0.392083   -0.074552
  C      2.407351    0.311003   -0.087807
  C      3.429616   -0.525252    0.658168
  H     -4.488798   -0.206133    0.670259
  H     -3.876071   -0.962863   -0.800239
  H     -3.501691   -1.664355    0.775365
  H     -2.185687    0.380808    1.365221
  H     -2.534809    1.065088   -0.218963
  H     -1.389974   -0.878659   -1.297925
  H     -0.932207   -1.494299    0.295471
  H      2.699153    0.463971   -1.131627
  H      2.259966    1.291235    0.377133
  H      3.116794   -0.667238    1.688541
  H      3.528385   -1.497552    0.184925
  H      4.388744   -0.018375    0.642009

----------------------------
CARTESIAN COORDINATES (A.U.)
----------------------------
  NO LB      ZA    FRAG     MASS         X           Y           Z
   0 C     6.0000    0    12.011   -6.883703   -1.381791    0.445689
   1 C     6.0000    0    12.011   -4.513942    0.243227    0.609618
   2 C     6.0000    0    12.011   -2.220153   -1.118883   -0.501323
   3 C     6.0000    0    12.011    0.077753    0.559253   -0.564738
   4 O     8.0000    0    15.999    0.053739    2.818341   -0.963771
   5 O     8.0000    0    15.999    2.177549   -0.740929   -0.140884
   6 C     6.0000    0    12.011    4.549234    0.587710   -0.165931
   7 C     6.0000    0    12.011    6.481034   -0.992583    1.243758
   8 H     1.0000    0     1.008   -8.482598   -0.389535    1.266606
   9 H     1.0000    0     1.008   -7.324712   -1.819547   -1.512233
  10 H     1.0000    0     1.008   -6.617236   -3.145174    1.465227
  11 H     1.0000    0     1.008   -4.130350    0.719623    2.579894
  12 H     1.0000    0     1.008   -4.790095    2.012725   -0.413780
  13 H     1.0000    0     1.008   -2.626670   -1.660424   -2.452723
  14 H     1.0000    0     1.008   -1.761615   -2.823816    0.558360
  15 H     1.0000    0     1.008    5.100660    0.876777   -2.138466
  16 H     1.0000    0     1.008    4.270717    2.440080    0.712678
  17 H     1.0000    0     1.008    5.889888   -1.260898    3.190880
  18 H     1.0000    0     1.008    6.667682   -2.829963    0.349457
  19 H     1.0000    0     1.008    8.293525   -0.034724    1.213220

--------------------------------
INTERNAL COORDINATES (ANGSTROEM)
--------------------------------
 C      0   0   0     0.000000000000     0.00000000     0.00000000
 C      1   0   0     1.523012329860     0.00000000     0.00000000
 C      2   1   0     1.529221534482   111.44030243     0.00000000
 C      3   2   1     1.506114422474   111.80843003   174.79802268
 O      4   3   2     1.214030295656   125.17123604   324.72399969
 O      4   3   2     1.326037410843   111.52147620   145.10189126
 C      6   4   3     1.438621962211   118.41743220   179.33721542
 C      7   6   4     1.516847319520   108.29872016   159.97684649
 H      1   2   3     1.086418101576   110.21757724   179.25128330
 H      1   2   3     1.087015507069   110.57213299   299.18200566
 H      1   2   3     1.087067193159   110.46276213    59.35079867
 H      2   1   3     1.091707114073   109.74754994   238.94594617
 H      2   1   3     1.091533525694   110.23482691   120.73230806
 H      3   2   1     1.093040437014   109.30218029    56.51157374
 H      3   2   1     1.089639850486   111.66564176   296.78172633
 H      7   6   4     1.094581680776   108.03838138   280.87549499
 H      7   6   4     1.094872761468   108.43332409    38.16902524
 H      8   7   6     1.086133484541   110.15200170   298.99564267
 H      8   7   6     1.085855381964   109.91480073    58.89228539
 H      8   7   6     1.084948570359   109.32297113   178.93110488

---------------------------
INTERNAL COORDINATES (A.U.)
---------------------------
 C      0   0   0     0.000000000000     0.00000000     0.00000000
 C      1   0   0     2.878076202021     0.00000000     0.00000000
 C      2   1   0     2.889809898266   111.44030243     0.00000000
 C      3   2   1     2.846143784824   111.80843003   174.79802268
 O      4   3   2     2.294184777074   125.17123604   324.72399969
 O      4   3   2     2.505847549828   111.52147620   145.10189126
 C      6   4   3     2.718601518823   118.41743220   179.33721542
 C      7   6   4     2.866426020865   108.29872016   159.97684649
 H      1   2   3     2.053032678913   110.21757724   179.25128330
 H      1   2   3     2.054161611685   110.57213299   299.18200566
 H      1   2   3     2.054259284241   110.46276213    59.35079867
 H      2   1   3     2.063027464052   109.74754994   238.94594617
 H      2   1   3     2.062699429555   110.23482691   120.73230806
 H      3   2   1     2.065547079258   109.30218029    56.51157374
 H      3   2   1     2.059120902025   111.66564176   296.78172633
 H      7   6   4     2.068459607873   108.03838138   280.87549499
 H      7   6   4     2.069009670664   108.43332409    38.16902524
 H      8   7   6     2.052494830663   110.15200170   298.99564267
 H      8   7   6     2.051969292957   109.91480073    58.89228539
 H      8   7   6     2.050255667367   109.32297113   178.93110488

---------------------
BASIS SET INFORMATION
---------------------
There are 3 groups of distinct atoms

 Group   1 Type C   : 7s4p1d contracted to 3s2p1d pattern {511/31/1}
 Group   2 Type O   : 7s4p1d contracted to 3s2p1d pattern {511/31/1}
 Group   3 Type H   : 4s contracted to 2s pattern {31}

Atom   0C    basis set group =>   1
Atom   1C    basis set group =>   1
Atom   2C    basis set group =>   1
Atom   3C    basis set group =>   1
Atom   4O    basis set group =>   2
Atom   5O    basis set group =>   2
Atom   6C    basis set group =>   1
Atom   7C    basis set group =>   1
Atom   8H    basis set group =>   3
Atom   9H    basis set group =>   3
Atom  10H    basis set group =>   3
Atom  11H    basis set group =>   3
Atom  12H    basis set group =>   3
Atom  13H    basis set group =>   3
Atom  14H    basis set group =>   3
Atom  15H    basis set group =>   3
Atom  16H    basis set group =>   3
Atom  17H    basis set group =>   3
Atom  18H    basis set group =>   3
Atom  19H    basis set group =>   3
---------------------------------
AUXILIARY/J BASIS SET INFORMATION
---------------------------------
There are 3 groups of distinct atoms

 Group   1 Type C   : 12s5p4d2f1g contracted to 6s4p3d1f1g pattern {711111/2111/211/2/1}
 Group   2 Type O   : 12s5p4d2f1g contracted to 6s4p3d1f1g pattern {711111/2111/211/2/1}
 Group   3 Type H   : 5s2p1d contracted to 3s1p1d pattern {311/2/1}

Atom   0C    basis set group =>   1
Atom   1C    basis set group =>   1
Atom   2C    basis set group =>   1
Atom   3C    basis set group =>   1
Atom   4O    basis set group =>   2
Atom   5O    basis set group =>   2
Atom   6C    basis set group =>   1
Atom   7C    basis set group =>   1
Atom   8H    basis set group =>   3
Atom   9H    basis set group =>   3
Atom  10H    basis set group =>   3
Atom  11H    basis set group =>   3
Atom  12H    basis set group =>   3
Atom  13H    basis set group =>   3
Atom  14H    basis set group =>   3
Atom  15H    basis set group =>   3
Atom  16H    basis set group =>   3
Atom  17H    basis set group =>   3
Atom  18H    basis set group =>   3
Atom  19H    basis set group =>   3
------------------------------------------------------------------------------
                             ORCA STARTUP CALCULATIONS
                           -- RI-GTO INTEGRALS CHOSEN --
------------------------------------------------------------------------------
------------------------------------------------------------------------------
                   ___                                                        
                  /   \      - P O W E R E D   B Y -                         
                 /     \                                                     
                 |  |  |   _    _      __       _____    __    __             
                 |  |  |  | |  | |    /  \     |  _  \  |  |  /  |          
                  \  \/   | |  | |   /    \    | | | |  |  | /  /          
                 / \  \   | |__| |  /  /\  \   | |_| |  |  |/  /          
                |  |  |   |  __  | /  /__\  \  |    /   |      \           
                |  |  |   | |  | | |   __   |  |    \   |  |\   \          
                \     /   | |  | | |  |  |  |  | |\  \  |  | \   \       
                 \___/    |_|  |_| |__|  |__|  |_| \__\ |__|  \__/        
                                                                              
                      - O R C A' S   B I G   F R I E N D -                    
                                      &                                       
                       - I N T E G R A L  F E E D E R -                       
                                                                              
 v1 FN, 2020, v2 2021, v3 2022-2024                                           
------------------------------------------------------------------------------


----------------------
SHARK INTEGRAL PACKAGE
----------------------

Number of atoms                             ...     20
Number of basis functions                   ...    136
Number of shells                            ...     72
Maximum angular momentum                    ...      2
Integral batch strategy                     ... SHARK/LIBINT Hybrid
RI-J (if used) integral strategy            ... SPLIT-RIJ (Revised 2003 algorithm where possible)
Printlevel                                  ...      1
Contraction scheme used                     ... SEGMENTED contraction
Prescreening option                         ... SCHWARTZ
   Thresh                                   ... 1.000e-09
   Tcut                                     ... 1.000e-10
   Tpresel                                  ... 1.000e-10 
Coulomb Range Separation                    ... NOT USED
Exchange Range Separation                   ... NOT USED
Multipole approximations                    ... NOT USED
Finite Nucleus Model                        ... NOT USED
CABS basis                                  ... NOT available
Auxiliary Coulomb fitting basis             ... AVAILABLE
   # of basis functions in Aux-J            ...    524
   # of shells in Aux-J                     ...    180
   Maximum angular momentum in Aux-J        ...      4
Auxiliary J/K fitting basis                 ... NOT available
Auxiliary Correlation fitting basis         ... NOT available
Auxiliary 'external' fitting basis          ... NOT available

Checking pre-screening integrals            ... done (  0.0 sec) Dimension = 72
Check shell pair data                       ... done (  0.0 sec)
Shell pair information
Shell pair cut-off parameter TPreSel        ...   1.0e-10
Total number of shell pairs                 ...      2628
Shell pairs after pre-screening             ...      2346
Total number of primitive shell pairs       ...     10580
Primitive shell pairs kept                  ...      6482
          la=0 lb=0:   1029 shell pairs
          la=1 lb=0:    712 shell pairs
          la=1 lb=1:    132 shell pairs
          la=2 lb=0:    325 shell pairs
          la=2 lb=1:    119 shell pairs
          la=2 lb=2:     29 shell pairs

Calculating one electron integrals          ... done (  0.0 sec)
Calculating RI/J V-Matrix + Cholesky decomp.... done (  0.1 sec)
Calculating Nuclear repulsion               ... done (  0.0 sec) ENN=    383.824426424842 Eh

Diagonalization of the overlap matrix:
Smallest eigenvalue                        ... 1.402e-03
Time for diagonalization                   ...    0.004 sec
Threshold for overlap eigenvalues          ... 1.000e-07
Number of eigenvalues below threshold      ... 0
Time for construction of square roots      ...    0.014 sec
Total time needed                          ...    0.026 sec

-------------------
DFT GRID GENERATION
-------------------

General Integration Accuracy     IntAcc      ... 4.159
Radial Grid Type                 RadialGrid  ... OptM3 with GC (2021)
Angular Grid (max. ang.)         AngularGrid ... 3 (Lebedev-194)
Angular grid pruning method      GridPruning ... 4 (adaptive)
Weight generation scheme         WeightScheme... mBecke (2022)
Basis function cutoff            BFCut       ... 1.0000e-10
Integration weight cutoff        WCut        ... 1.0000e-14
Partially contracted basis set               ... off
Rotationally invariant grid construction     ... off
Angular grids for H and He will be reduced by one unit

Total number of grid points                  ...    43119
Total number of batches                      ...      684
Average number of points per batch           ...       63
Average number of grid points per atom       ...     2156
Initializing property integral containers    ... done (  0.0 sec)

SHARK setup successfully completed in   0.7 seconds

Maximum memory used throughout the entire STARTUP-calculation: 21.1 MB
-------------------------------------------------------------------------------
                                 ORCA GUESS
                   Start orbitals & Density for SCF / CASSCF
-------------------------------------------------------------------------------

------------
SCF SETTINGS
------------
Hamiltonian:
 Density Functional     Method          .... DFT(GTOs)
 Exchange Functional    Exchange        .... PBE
   PBE kappa parameter   XKappa         ....  0.804000
   PBE mue parameter    XMuePBE         ....  0.219520
 Correlation Functional Correlation     .... PBE
   PBE beta parameter  CBetaPBE         ....  0.066725
 LDA part of GGA corr.  LDAOpt          .... PW91-LDA
 Gradients option       PostSCFGGA      .... off
   NL short-range parameter             ....  6.400000
 RI-approximation to the Coulomb term is turned on
   Number of AuxJ basis functions       .... 524


General Settings:
 Integral files         IntName         .... sp
 Hartree-Fock type      HFTyp           .... RHF
 Total Charge           Charge          ....    0
 Multiplicity           Mult            ....    1
 Number of Electrons    NEL             ....   64
 Basis Dimension        Dim             ....  136
 Nuclear Repulsion      ENuc            ....    383.8244264248 Eh

Convergence Acceleration:
 AO-DIIS                CNVDIIS         .... on
   Start iteration      DIISMaxIt       ....    12
   Startup error        DIISStart       ....  0.200000
   # of expansion vecs  DIISMaxEq       ....     5
   Bias factor          DIISBfac        ....   1.050
   Max. coefficient     DIISMaxC        ....  10.000
 MO-DIIS                CNVKDIIS        .... off
 Trust-Rad. Augm. Hess. CNVTRAH         .... auto
   Auto Start mean grad. ratio tolernc. ....  1.125000
   Auto Start start iteration           ....    50
   Auto Start num. interpolation iter.  ....    10
   Max. Number of Micro iterations      ....    24
   Max. Number of Macro iterations      .... Maxiter - #DIIS iter
   Number of Davidson start vectors     ....     2
   Converg. threshold    (grad. norm)   ....   1.000e-04
   Grad. Scal. Fac. for Micro threshold ....   0.100
   Minimum threshold for Micro iter.    ....   1.000e-02
   NR start threshold (gradient norm)   ....   1.000e-04
   Initial trust radius                 ....   0.400
   Minimum AH scaling param. (alpha)    ....   1.000
   Maximum AH scaling param. (alpha)    .... 1000.000
   Quad. conv. algorithm                .... NR
   White noise on init. David. guess    .... on
   Maximum white noise                  ....   0.010
   Pseudo random numbers                .... off
   Inactive MOs                         .... canonical
   Orbital update algorithm             .... Taylor
   Preconditioner                       .... Diag
   Full preconditioner red. dimension   ....   250
 SOSCF                  CNVSOSCF        .... on
   Start iteration      SOSCFMaxIt      ....   150
   Startup grad/error   SOSCFStart      ....  0.003300
   Hessian update       SOSCFHessUp     .... L-BFGS
 Level Shifting         CNVShift        .... on
   Level shift para.    LevelShift      ....    0.2500
   Turn off err/grad.   ShiftErr        ....    0.0010
 Zerner damping         CNVZerner       .... off
 Static damping         CNVDamp         .... on
   Fraction old density DampFac         ....    0.7000
   Max. Damping (<1)    DampMax         ....    0.9800
   Min. Damping (>=0)   DampMin         ....    0.0000
   Turn off err/grad.   DampErr         ....    0.1000

SCF Procedure:
 Maximum # iterations   MaxIter         ....   125
 SCF integral mode      SCFMode         .... Direct
   Integral package                     .... SHARK and LIBINT hybrid scheme
 Reset frequency        DirectResetFreq ....    20
 Integral Threshold     Thresh          ....  1.000e-09 Eh
 Primitive CutOff       TCut            ....  1.000e-10 Eh

Convergence Tolerance:
 Convergence Check Mode ConvCheckMode   .... Total+1el-Energy
 Convergence forced     ConvForced      .... 0
 Energy Change          TolE            ....  1.000e-05 Eh
 1-El. energy change                    ....  1.000e-02 Eh
 Orbital Gradient       TolG            ....  1.000e-04
 Orbital Rotation angle TolX            ....  1.000e-04
 DIIS Error             TolErr          ....  5.000e-04

------------------------------
INITIAL GUESS: MODEL POTENTIAL
------------------------------
Loading Hartree-Fock densities                     ... done
Calculating cut-offs                               ... done
Initializing the effective Hamiltonian             ... done
Setting up the integral package (SHARK)            ... done
Starting the Coulomb interaction                   ... done (   0.2 sec)
Making the grid                                    ... done (   0.2 sec)
Mapping shells                                     ... done
Starting the XC term evaluation                    ... done (   0.2 sec)
  promolecular density results
     # of electrons  =     63.998231605
     EX              =    -50.544161583
     EC              =     -2.105142248
     EX+EC           =    -52.649303831
Transforming the Hamiltonian                       ... done (   0.0 sec)
Diagonalizing the Hamiltonian                      ... done (   0.0 sec)
Back transforming the eigenvectors                 ... done (   0.0 sec)
Now organizing SCF variables                       ... done
                      ------------------
                      INITIAL GUESS DONE (   0.6 sec)
                      ------------------
             **** ENERGY FILE WAS UPDATED (sp.en.tmp) ****
Finished Guess after   0.8 sec
Maximum memory used throughout the entire GUESS-calculation: 16.0 MB

-------------------------------------------------------------------------------------------
                                      ORCA LEAN-SCF
                              memory conserving SCF solver
-------------------------------------------------------------------------------------------

----------------------------------------D-I-I-S--------------------------------------------
Iteration    Energy (Eh)           Delta-E    RMSDP     MaxDP     DIISErr   Damp  Time(sec)
-------------------------------------------------------------------------------------------
               ***  Starting incremental Fock matrix formation  ***
    1    -385.2840713497807883     0.00e+00  4.99e-03  1.07e-01  2.48e-01  0.700   0.8
    2    -385.4101381503579660    -1.26e-01  3.13e-03  5.49e-02  7.75e-02  0.700   0.9
                               ***Turning on AO-DIIS***
    3    -385.4486981784385762    -3.86e-02  1.27e-03  1.41e-02  2.48e-02  0.700   0.9
    4    -385.4739068042090366    -2.52e-02  1.80e-03  2.22e-02  1.84e-02  0.000   0.9
    5    -385.5324855190925746    -5.86e-02  5.81e-04  6.47e-03  8.71e-03  0.000   0.9
    6    -385.5332587579875963    -7.73e-04  2.15e-04  2.68e-03  3.35e-03  0.000   0.8
                              *** Initializing SOSCF ***
---------------------------------------S-O-S-C-F--------------------------------------
Iteration    Energy (Eh)           Delta-E    RMSDP     MaxDP     MaxGrad    Time(sec)
--------------------------------------------------------------------------------------
    7    -385.5333176441815795    -5.89e-05  7.54e-05  1.11e-03  1.40e-03     0.8
               *** Restarting incremental Fock matrix formation ***
    8    -385.5333252945538334    -7.65e-06  5.54e-05  8.26e-04  1.09e-04     0.9
    9    -385.5333244637059806     8.31e-07  2.46e-05  5.78e-04  3.66e-04     0.8
                 **** Energy Check signals convergence ****

               *****************************************************
               *                     SUCCESS                       *
               *           SCF CONVERGED AFTER   9 CYCLES          *
               *****************************************************

             **** ENERGY FILE WAS UPDATED (sp.en.tmp) ****

----------------
TOTAL SCF ENERGY
----------------

Total Energy       :       -385.53332446370598 Eh          -10490.89511 eV

Components:
Nuclear Repulsion  :        383.82442642484182 Eh           10444.39363 eV
Electronic Energy  :       -769.35775088854780 Eh          -20935.28873 eV
One Electron Energy:      -1284.12125179926284 Eh          -34942.71571 eV
Two Electron Energy:        514.76350091071504 Eh           14007.42698 eV

Virial components:
Potential Energy   :       -767.94000275171470 Eh          -20896.70984 eV
Kinetic Energy     :        382.40667828800866 Eh           10405.81474 eV
Virial Ratio       :          2.00817623319157

DFT components:
N(Alpha)           :       31.999863522295 electrons
N(Beta)            :       31.999863522295 electrons
N(Total)           :       63.999727044591 electrons
E(X)               :      -51.601714415952 Eh       
E(C)               :       -2.122657405988 Eh       
E(XC)              :      -53.724371821940 Eh       

---------------
SCF CONVERGENCE
---------------

  Last Energy change         ...   -8.3085e-07  Tolerance :   1.0000e-05
  Last MAX-Density change    ...    5.7778e-04  Tolerance :   1.0000e-03
  Last RMS-Density change    ...    2.4625e-05  Tolerance :   1.0000e-04
  Last DIIS Error            ...    1.3966e-03  Tolerance :   5.0000e-04
  Last Orbital Gradient      ...    3.6639e-04  Tolerance :   1.0000e-04
  Last Orbital Rotation      ...    5.8325e-04  Tolerance :   1.0000e-04


----------------
ORBITAL ENERGIES
----------------

  NO   OCC          E(Eh)            E(eV) 
   0   2.0000     -18.795496      -511.4515 
   1   2.0000     -18.731911      -509.7212 
   2   2.0000     -10.001033      -272.1419 
   3   2.0000      -9.944685      -270.6086 
   4   2.0000      -9.894626      -269.2465 
   5   2.0000      -9.888328      -269.0751 
   6   2.0000      -9.887632      -269.0561 
   7   2.0000      -9.876485      -268.7528 
   8   2.0000      -1.002298       -27.2739 
   9   2.0000      -0.906686       -24.6722 
  10   2.0000      -0.725112       -19.7313 
  11   2.0000      -0.699733       -19.0407 
  12   2.0000      -0.638293       -17.3688 
  13   2.0000      -0.580427       -15.7942 
  14   2.0000      -0.529114       -14.3979 
  15   2.0000      -0.502385       -13.6706 
  16   2.0000      -0.447142       -12.1673 
  17   2.0000      -0.439569       -11.9613 
  18   2.0000      -0.424628       -11.5547 
  19   2.0000      -0.400639       -10.9019 
  20   2.0000      -0.384031       -10.4500 
  21   2.0000      -0.366412        -9.9706 
  22   2.0000      -0.359867        -9.7925 
  23   2.0000      -0.353887        -9.6298 
  24   2.0000      -0.342259        -9.3134 
  25   2.0000      -0.316501        -8.6124 
  26   2.0000      -0.313989        -8.5441 
  27   2.0000      -0.299923        -8.1613 
  28   2.0000      -0.291387        -7.9290 
  29   2.0000      -0.289251        -7.8709 
  30   2.0000      -0.255012        -6.9392 
  31   2.0000      -0.216276        -5.8852 
  32   0.0000      -0.016730        -0.4552 
  33   0.0000       0.038676         1.0524 
  34   0.0000       0.049105         1.3362 
  35   0.0000       0.077043         2.0965 
  36   0.0000       0.082475         2.2443 
  37   0.0000       0.085747         2.3333 
  38   0.0000       0.093555         2.5458 
  39   0.0000       0.101388         2.7589 
  40   0.0000       0.102306         2.7839 
  41   0.0000       0.115187         3.1344 
  42   0.0000       0.130507         3.5513 
*Only the first 10 virtual orbitals were printed.

                    ********************************
                    * MULLIKEN POPULATION ANALYSIS *
                    ********************************

-----------------------
MULLIKEN ATOMIC CHARGES
-----------------------
   0 C :   -0.253175
   1 C :   -0.213944
   2 C :   -0.160064
   3 C :    0.121508
   4 O :   -0.212996
   5 O :   -0.238503
   6 C :   -0.029229
   7 C :   -0.275680
   8 H :    0.105882
   9 H :    0.097333
  10 H :    0.096490
  11 H :    0.092833
  12 H :    0.108686
  13 H :    0.111534
  14 H :    0.096526
  15 H :    0.102666
  16 H :    0.111238
  17 H :    0.113983
  18 H :    0.113981
  19 H :    0.110932
Sum of atomic charges:    0.0000000

--------------------------------
MULLIKEN REDUCED ORBITAL CHARGES
--------------------------------
  0 C s       :     3.074311  s :     3.074311
      pz      :     1.064480  p :     3.149422
      px      :     1.035919
      py      :     1.049022
      dz2     :     0.006061  d :     0.029443
      dxz     :     0.004852
      dyz     :     0.005968
      dx2y2   :     0.006540
      dxy     :     0.006022

  1 C s       :     3.094606  s :     3.094606
      pz      :     1.048370  p :     3.082598
      px      :     0.977308
      py      :     1.056920
      dz2     :     0.008283  d :     0.036740
      dxz     :     0.005667
      dyz     :     0.006871
      dx2y2   :     0.008673
      dxy     :     0.007246

  2 C s       :     3.009187  s :     3.009187
      pz      :     1.055449  p :     3.117431
      px      :     0.997161
      py      :     1.064821
      dz2     :     0.008383  d :     0.033446
      dxz     :     0.004216
      dyz     :     0.006207
      dx2y2   :     0.006444
      dxy     :     0.008197

  3 C s       :     3.049079  s :     3.049079
      pz      :     0.853379  p :     2.698570
      px      :     0.909265
      py      :     0.935927
      dz2     :     0.008773  d :     0.130844
      dxz     :     0.013485
      dyz     :     0.024513
      dx2y2   :     0.030452
      dxy     :     0.053622

  4 O s       :     3.750335  s :     3.750335
      pz      :     1.394039  p :     4.445142
      px      :     1.738208
      py      :     1.312895
      dz2     :     0.002090  d :     0.017518
      dxz     :     0.000151
      dyz     :     0.005563
      dx2y2   :     0.005829
      dxy     :     0.003885

  5 O s       :     3.733792  s :     3.733792
      pz      :     1.701290  p :     4.488666
      px      :     1.180148
      py      :     1.607229
      dz2     :     0.002089  d :     0.016045
      dxz     :     0.002631
      dyz     :     0.002032
      dx2y2   :     0.002866
      dxy     :     0.006427

  6 C s       :     3.084736  s :     3.084736
      pz      :     1.083712  p :     2.885679
      px      :     0.802156
      py      :     0.999811
      dz2     :     0.012505  d :     0.058814
      dxz     :     0.010222
      dyz     :     0.006975
      dx2y2   :     0.014777
      dxy     :     0.014335

  7 C s       :     3.086035  s :     3.086035
      pz      :     1.067887  p :     3.161788
      px      :     1.037710
      py      :     1.056192
      dz2     :     0.008345  d :     0.027857
      dxz     :     0.003323
      dyz     :     0.004718
      dx2y2   :     0.005499
      dxy     :     0.005972

  8 H s       :     0.894118  s :     0.894118

  9 H s       :     0.902667  s :     0.902667

 10 H s       :     0.903510  s :     0.903510

 11 H s       :     0.907167  s :     0.907167

 12 H s       :     0.891314  s :     0.891314

 13 H s       :     0.888466  s :     0.888466

 14 H s       :     0.903474  s :     0.903474

 15 H s       :     0.897334  s :     0.897334

 16 H s       :     0.888762  s :     0.888762

 17 H s       :     0.886017  s :     0.886017

 18 H s       :     0.886019  s :     0.886019

 19 H s       :     0.889068  s :     0.889068


------------------------
MULLIKEN OVERLAP CHARGES
------------------------
B(  0-C ,  1-C ) :   0.9057 B(  0-C ,  2-C ) :  -0.1281 B(  0-C ,  8-H ) :   0.7391 
B(  0-C ,  9-H ) :   0.7565 B(  0-C , 10-H ) :   0.7498 B(  0-C , 11-H ) :  -0.0518 
B(  1-C ,  2-C ) :   0.7589 B(  1-C , 11-H ) :   0.7357 B(  1-C , 12-H ) :   0.7004 
B(  2-C ,  3-C ) :   0.5229 B(  2-C ,  4-O ) :  -0.2196 B(  2-C ,  5-O ) :  -0.2608 
B(  2-C , 11-H ) :  -0.0677 B(  2-C , 13-H ) :   0.6180 B(  2-C , 14-H ) :   0.6090 
B(  3-C ,  4-O ) :   1.3720 B(  3-C ,  5-O ) :   0.7620 B(  3-C ,  6-C ) :  -0.0706 
B(  4-O ,  5-O ) :  -0.1642 B(  4-O , 16-H ) :   0.0505 B(  5-O ,  6-C ) :   0.5359 
B(  5-O ,  7-C ) :  -0.1083 B(  5-O , 15-H ) :  -0.0609 B(  5-O , 16-H ) :  -0.0677 
B(  6-C ,  7-C ) :   0.8580 B(  6-C , 15-H ) :   0.7464 B(  6-C , 16-H ) :   0.7226 
B(  7-C , 15-H ) :  -0.0558 B(  7-C , 17-H ) :   0.7453 B(  7-C , 18-H ) :   0.7294 
B(  7-C , 19-H ) :   0.7185 B(  9-H , 10-H ) :  -0.0541 B( 11-H , 12-H ) :  -0.0608 
B( 15-H , 16-H ) :  -0.0790 B( 17-H , 18-H ) :  -0.0528 


                     *******************************
                     * LOEWDIN POPULATION ANALYSIS *
                     *******************************

----------------------
LOEWDIN ATOMIC CHARGES
----------------------
   0 C :   -0.339771
   1 C :   -0.229190
   2 C :   -0.249139
   3 C :    0.036547
   4 O :   -0.170905
   5 O :   -0.071145
   6 C :   -0.110151
   7 C :   -0.350892
   8 H :    0.121261
   9 H :    0.117351
  10 H :    0.116492
  11 H :    0.118647
  12 H :    0.124462
  13 H :    0.141898
  14 H :    0.128976
  15 H :    0.115436
  16 H :    0.118050
  17 H :    0.126112
  18 H :    0.126001
  19 H :    0.129958

-------------------------------
LOEWDIN REDUCED ORBITAL CHARGES
-------------------------------
  0 C s       :     2.944474  s :     2.944474
      pz      :     1.124430  p :     3.324132
      px      :     1.088327
      py      :     1.111376
      dz2     :     0.015606  d :     0.071165
      dxz     :     0.010479
      dyz     :     0.013938
      dx2y2   :     0.014970
      dxy     :     0.016173

  1 C s       :     2.906363  s :     2.906363
      pz      :     1.102145  p :     3.234360
      px      :     1.037291
      py      :     1.094924
      dz2     :     0.020201  d :     0.088467
      dxz     :     0.012460
      dyz     :     0.015775
      dx2y2   :     0.019649
      dxy     :     0.020382

  2 C s       :     2.916799  s :     2.916799
      pz      :     1.103737  p :     3.247855
      px      :     1.055391
      py      :     1.088727
      dz2     :     0.019617  d :     0.084485
      dxz     :     0.010055
      dyz     :     0.015480
      dx2y2   :     0.015697
      dxy     :     0.023636

  3 C s       :     2.846407  s :     2.846407
      pz      :     0.839189  p :     2.819598
      px      :     0.952719
      py      :     1.027691
      dz2     :     0.020039  d :     0.297448
      dxz     :     0.026010
      dyz     :     0.048623
      dx2y2   :     0.072568
      dxy     :     0.130209

  4 O s       :     3.551799  s :     3.551799
      pz      :     1.397333  p :     4.588243
      px      :     1.737087
      py      :     1.453823
      dz2     :     0.004224  d :     0.030863
      dxz     :     0.000206
      dyz     :     0.007716
      dx2y2   :     0.012579
      dxy     :     0.006138

  5 O s       :     3.452323  s :     3.452323
      pz      :     1.684842  p :     4.586117
      px      :     1.255491
      py      :     1.645784
      dz2     :     0.004276  d :     0.032704
      dxz     :     0.004959
      dyz     :     0.002497
      dx2y2   :     0.007002
      dxy     :     0.013971

  6 C s       :     2.924837  s :     2.924837
      pz      :     1.125051  p :     3.054292
      px      :     0.869495
      py      :     1.059746
      dz2     :     0.027101  d :     0.131022
      dxz     :     0.023277
      dyz     :     0.016380
      dx2y2   :     0.030794
      dxy     :     0.033470

  7 C s       :     2.949210  s :     2.949210
      pz      :     1.119990  p :     3.332594
      px      :     1.098326
      py      :     1.114278
      dz2     :     0.019481  d :     0.069089
      dxz     :     0.008726
      dyz     :     0.011872
      dx2y2   :     0.013482
      dxy     :     0.015527

  8 H s       :     0.878739  s :     0.878739

  9 H s       :     0.882649  s :     0.882649

 10 H s       :     0.883508  s :     0.883508

 11 H s       :     0.881353  s :     0.881353

 12 H s       :     0.875538  s :     0.875538

 13 H s       :     0.858102  s :     0.858102

 14 H s       :     0.871024  s :     0.871024

 15 H s       :     0.884564  s :     0.884564

 16 H s       :     0.881950  s :     0.881950

 17 H s       :     0.873888  s :     0.873888

 18 H s       :     0.873999  s :     0.873999

 19 H s       :     0.870042  s :     0.870042


---------------------------------
LOEWDIN BOND ORDERS (THRESH 0.050000)
---------------------------------
B(  0-C ,  1-C ) :   1.1319 B(  0-C ,  2-C ) :   0.0574 B(  0-C ,  8-H ) :   0.9383 
B(  0-C ,  9-H ) :   0.9408 B(  0-C , 10-H ) :   0.9408 B(  1-C ,  2-C ) :   1.0799 
B(  1-C ,  3-C ) :   0.0620 B(  1-C , 11-H ) :   0.9089 B(  1-C , 12-H ) :   0.9028 
B(  2-C ,  3-C ) :   1.0594 B(  2-C ,  4-O ) :   0.0948 B(  2-C ,  5-O ) :   0.0751 
B(  2-C , 13-H ) :   0.8798 B(  2-C , 14-H ) :   0.8954 B(  3-C ,  4-O ) :   2.1995 
B(  3-C ,  5-O ) :   1.4051 B(  3-C ,  6-C ) :   0.0764 B(  4-O ,  5-O ) :   0.2077 
B(  5-O ,  6-C ) :   1.0647 B(  5-O ,  7-C ) :   0.0558 B(  6-C ,  7-C ) :   1.1566 
B(  6-C , 15-H ) :   0.9164 B(  6-C , 16-H ) :   0.9081 B(  7-C , 17-H ) :   0.9380 
B(  7-C , 18-H ) :   0.9371 B(  7-C , 19-H ) :   0.9307 

------------------------------------------
LOEWDIN REDUCED ORBITAL POPULATIONS PER MO
-------------------------------------------
THRESHOLD FOR PRINTING IS 0.1%%
                      0         1         2         3         4         5   
                 -18.79550 -18.73191 -10.00103  -9.94468  -9.89463  -9.88833
                   2.00000   2.00000   2.00000   2.00000   2.00000   2.00000
                  --------  --------  --------  --------  --------  --------
 2 C  s               0.0       0.0       0.0       0.0      99.6       0.0
 3 C  s               0.0       0.0      99.3       0.0       0.0       0.0
 4 O  s               0.0      99.9       0.0       0.0       0.0       0.0
 4 O  py              0.0       0.0       0.3       0.0       0.0       0.0
 5 O  s              99.9       0.0       0.0       0.0       0.0       0.0
 5 O  px              0.0       0.0       0.1       0.1       0.0       0.0
 6 C  s               0.0       0.0       0.0      99.7       0.0       0.0
 7 C  s               0.0       0.0       0.0       0.0       0.0      99.7

                      6         7         8         9        10        11   
                  -9.88763  -9.87649  -1.00230  -0.90669  -0.72511  -0.69973
                   2.00000   2.00000   2.00000   2.00000   2.00000   2.00000
                  --------  --------  --------  --------  --------  --------
 0 C  s               0.0      99.7       0.0       0.0       6.6       6.7
 0 C  px              0.1       0.0       0.0       0.0       1.4       0.8
 0 C  py              0.0       0.0       0.0       0.0       0.4       0.3
 1 C  s              99.6       0.0       0.1       0.1      15.6       9.6
 1 C  pz              0.0       0.0       0.0       0.0       0.3       0.1
 1 C  px              0.0       0.1       0.1       0.1       0.3       0.1
 1 C  py              0.0       0.0       0.0       0.0       1.1       0.4
 2 C  s               0.0       0.0       1.0       0.3      19.3       2.3
 2 C  pz              0.0       0.0       0.0       0.0       0.2       0.1
 2 C  px              0.1       0.0       1.4       0.0       0.2       2.6
 2 C  py              0.0       0.0       0.4       0.6       0.4       0.1
 3 C  s               0.0       0.0      18.5       5.2       3.3       0.8
 3 C  pz              0.0       0.0       0.0       0.9       0.1       0.0
 3 C  px              0.0       0.0       5.2       3.1       2.9       1.9
 3 C  py              0.0       0.0       0.1      20.1       6.3       0.8
 3 C  dz2             0.0       0.0       0.5       0.1       0.0       0.0
 3 C  dx2y2           0.0       0.0       0.0       1.6       0.1       0.0
 3 C  dxy             0.0       0.0       0.4       0.2       0.0       0.2
 4 O  s               0.0       0.0      11.0      41.9       1.7       0.1
 4 O  pz              0.0       0.0       0.1       0.1       0.0       0.0
 4 O  py              0.0       0.0       2.6       4.3       0.2       0.0
 4 O  dx2y2           0.0       0.0       0.1       0.1       0.0       0.0
 5 O  s               0.0       0.0      41.6      15.1       0.0       0.9
 5 O  pz              0.0       0.0       0.1       0.0       0.0       0.1
 5 O  px              0.0       0.0       0.4       0.5       6.4       8.3
 5 O  py              0.0       0.0       2.7       0.2       0.1       0.1
 5 O  dxy             0.0       0.0       0.0       0.0       0.1       0.1
 6 C  s               0.0       0.0       4.7       2.3       6.4      16.0
 6 C  pz              0.0       0.0       0.0       0.0       0.1       0.5
 6 C  px              0.0       0.0       4.7       0.9       0.2       2.1
 6 C  py              0.0       0.0       0.8       0.8       0.2       0.6
 6 C  dz2             0.0       0.0       0.1       0.0       0.0       0.0
 6 C  dx2y2           0.0       0.0       0.1       0.0       0.0       0.0
 6 C  dxy             0.0       0.0       0.2       0.1       0.0       0.0
 7 C  s               0.0       0.0       0.3       0.2       4.0      17.7
 7 C  pz              0.0       0.0       0.1       0.1       0.2       0.5
 7 C  px              0.0       0.0       0.4       0.3       0.4       0.8
 7 C  py              0.0       0.0       0.0       0.0       0.2       0.6
 8 H  s               0.0       0.1       0.0       0.0       1.1       1.2
 9 H  s               0.0       0.1       0.0       0.0       1.2       1.3
10 H  s               0.0       0.1       0.0       0.0       1.3       1.3
11 H  s               0.1       0.0       0.0       0.0       2.8       1.8
12 H  s               0.1       0.0       0.0       0.1       2.6       1.8
13 H  s               0.0       0.0       0.1       0.0       3.7       0.5
14 H  s               0.0       0.0       0.2       0.0       3.8       0.3
15 H  s               0.0       0.0       0.6       0.2       1.2       3.1
16 H  s               0.0       0.0       0.8       0.1       1.2       2.9
17 H  s               0.0       0.0       0.0       0.0       0.7       3.4
18 H  s               0.0       0.0       0.1       0.0       0.8       3.5
19 H  s               0.0       0.0       0.0       0.0       0.7       3.5

                     12        13        14        15        16        17   
                  -0.63829  -0.58043  -0.52911  -0.50238  -0.44714  -0.43957
                   2.00000   2.00000   2.00000   2.00000   2.00000   2.00000
                  --------  --------  --------  --------  --------  --------
 0 C  s              18.8       7.0       6.9       0.3       0.0       0.5
 0 C  pz              0.0       0.0       0.2       0.2       0.1       0.7
 0 C  px              0.0       0.9       3.8       0.3       0.7       4.2
 0 C  py              0.1       0.2       3.6       1.0       1.1       0.0
 0 C  dxy             0.0       0.0       0.1       0.0       0.0       0.0
 1 C  s               2.6       1.2      13.4       2.1       0.1       0.3
 1 C  pz              0.3       0.1       0.9       0.9       0.4       1.4
 1 C  px              8.3       3.8       0.5       0.1       0.7       0.1
 1 C  py              0.1       0.2       4.9       1.6       4.1       3.2
 1 C  dxy             0.2       0.1       0.0       0.0       0.0       0.0
 2 C  s              11.5       3.5       2.6       1.7       0.7       0.5
 2 C  pz              0.2       0.0       2.2       0.9       3.5       2.0
 2 C  px              3.2       1.6       3.5       0.1       1.7       9.7
 2 C  py              0.0       0.0       2.7       1.4       5.8      10.5
 2 C  dz2             0.0       0.0       0.0       0.0       0.0       0.1
 2 C  dxy             0.1       0.0       0.1       0.0       0.1       0.3
 3 C  s               3.0       1.6       0.7       1.6       0.9       2.4
 3 C  pz              0.0       0.1       0.5       0.5       7.4       4.5
 3 C  px              4.3       2.5       0.9       2.8       2.2      13.3
 3 C  py              3.9       1.0       0.9       0.8       0.9       0.3
 3 C  dxy             0.1       0.2       0.1       0.0       0.0       0.0
 4 O  s               0.7       0.0       0.1       1.4       0.4       1.2
 4 O  pz              0.0       0.0       0.1       0.2       2.0       1.7
 4 O  px              0.2       0.1       0.0       1.0       1.6       5.3
 4 O  py              0.2       0.1       0.1       0.6       1.3       1.5
 4 O  dxy             0.0       0.0       0.0       0.0       0.0       0.1
 5 O  s               0.9       0.0       1.3       3.7       0.1       0.1
 5 O  pz              0.0       0.0       0.3       0.6      11.9       8.6
 5 O  px              2.1      17.0       0.0      14.5       0.2       0.8
 5 O  py              0.3       0.1       0.2       5.9       3.6       1.6
 5 O  dxy             0.0       0.2       0.0       0.1       0.0       0.0
 6 C  s               0.3       5.4       4.3       5.2       0.0       0.5
 6 C  pz              0.4       1.5       0.9       0.8      15.2       5.6
 6 C  px              3.3       4.2       0.3       3.8       1.8       0.0
 6 C  py              0.1       0.6       2.5      16.5       4.2       0.3
 6 C  dz2             0.0       0.0       0.0       0.2       0.0       0.0
 6 C  dxy             0.1       0.2       0.0       0.4       0.0       0.0
 7 C  s               8.2      14.3       1.5       0.3       0.0       0.3
 7 C  pz              0.0       0.9       0.8       0.5       5.6       0.1
 7 C  px              0.1       2.3       0.4       0.2       0.3       4.5
 7 C  py              0.0       0.6       1.4       4.5       0.9       0.7
 8 H  s               4.7       2.5       2.8       0.1       0.4       2.2
 9 H  s               4.3       2.1       4.0       0.5       0.0       0.0
10 H  s               4.3       2.1       3.9       0.4       0.3       0.2
11 H  s               0.6       0.4       7.0       1.8       0.0       0.4
12 H  s               0.5       0.4       6.3       1.1       1.8       0.1
13 H  s               2.7       1.1       2.5       2.0       0.0       4.7
14 H  s               2.8       0.6       1.7       1.0       4.3       1.4
15 H  s               0.1       2.0       3.1       5.7       5.5       1.0
16 H  s               0.0       1.5       2.5       8.3       4.4       0.4
17 H  s               1.9       4.8       1.1       0.7       1.9       0.0
18 H  s               1.9       4.6       1.0       1.2       1.2       0.9
19 H  s               2.3       5.7       0.5       0.1       0.0       1.4

                     18        19        20        21        22        23   
                  -0.42463  -0.40064  -0.38403  -0.36641  -0.35987  -0.35389
                   2.00000   2.00000   2.00000   2.00000   2.00000   2.00000
                  --------  --------  --------  --------  --------  --------
 0 C  pz              6.9       1.3      15.0       0.0       0.0       1.2
 0 C  px              0.2       0.2       0.5       7.6       7.0       0.0
 0 C  py              1.2       3.0       2.0      13.8       0.0       6.2
 0 C  dz2             0.0       0.0       0.1       0.0       0.0       0.0
 0 C  dyz             0.0       0.0       0.0       0.1       0.0       0.0
 1 C  s               0.0       0.0       0.0       0.1       0.2       0.0
 1 C  pz             14.9       1.6       9.8       0.0       0.0       0.1
 1 C  px              0.7       2.1       1.7       1.9       2.5       3.5
 1 C  py              2.2       2.4       0.6       3.6       1.8       0.1
 2 C  s               0.0       0.0       0.0       0.5       0.4       0.0
 2 C  pz             14.9       1.0       3.0       0.0       0.7       1.2
 2 C  px              1.3       0.5       2.6       1.7       0.3       0.1
 2 C  py              3.5       1.1       1.5       5.2       0.8       4.4
 2 C  dxz             0.0       0.0       0.0       0.1       0.0       0.0
 3 C  s               0.3       2.2       0.0       0.0       0.5       0.2
 3 C  pz              1.3       0.1      12.0       2.9       0.9       0.1
 3 C  px              0.0       0.0       0.0       0.4       1.5       0.3
 3 C  py              0.2       3.7       0.6       0.1       0.3       3.7
 3 C  dx2y2           0.2       0.2       0.0       0.0       0.1       0.1
 3 C  dxy             0.0       0.2       0.1       0.2       0.0       0.0
 4 O  s               2.2      12.4       0.0       0.0       0.5       2.0
 4 O  pz              0.1       1.1       6.8       2.4       0.4       1.0
 4 O  px              0.0       0.3       0.1       1.4       0.6       0.1
 4 O  py              3.0      27.5       0.0       0.1       3.9      10.6
 4 O  dx2y2           0.0       0.2       0.0       0.0       0.0       0.1
 5 O  s               0.2       1.8       0.1       1.5       0.3       0.3
 5 O  pz              0.2       1.2       4.6       1.1       0.1       2.7
 5 O  px              0.1       2.7       0.8       0.0       3.5       0.3
 5 O  py              4.1      13.5       0.0       4.9       1.1       0.3
 6 C  s               0.0       0.2       0.0       0.0       0.5       0.1
 6 C  pz              5.3       1.4       1.4       0.9       2.8       2.2
 6 C  px              1.9       3.6       1.6       1.3       6.5       2.3
 6 C  py              1.4       0.2       0.7       0.0       3.1       2.8
 6 C  dz2             0.0       0.0       0.0       0.0       0.0       0.1
 6 C  dx2y2           0.0       0.1       0.0       0.0       0.2       0.2
 6 C  dxy             0.0       0.0       0.0       0.0       0.3       0.0
 7 C  s               0.0       0.1       0.0       0.0       0.0       0.0
 7 C  pz              4.7       0.1       9.6       1.0       1.8       8.7
 7 C  px              0.0       0.7       0.5       0.6      33.0       3.2
 7 C  py              0.3       4.2       0.4      15.0       1.1      14.0
 7 C  dz2             0.0       0.0       0.0       0.0       0.1       0.2
 7 C  dx2y2           0.0       0.0       0.0       0.1       0.1       0.1
 7 C  dxy             0.0       0.0       0.0       0.0       0.4       0.0
 8 H  s               0.0       0.2       3.3       7.3       2.3       1.3
 9 H  s               2.0       0.2       6.5       0.0       0.2       1.5
10 H  s               2.0       2.0       0.1       6.3       0.0       1.4
11 H  s               4.0       0.3       3.8       0.0       0.0       0.0
12 H  s               3.5       2.6       0.1       1.0       0.2       0.0
13 H  s               4.4       0.4       1.5       0.4       0.2       1.6
14 H  s               5.9       0.2       0.2       4.0       0.1       0.9
15 H  s               2.6       0.0       0.8       0.3       0.1       1.5
16 H  s               1.3       0.8       0.7       0.0       0.1       1.3
17 H  s               1.8       0.2       4.4       0.0       0.1       8.6
18 H  s               0.6       1.7       1.5       7.9       0.5       2.4
19 H  s               0.0       0.0       0.1       3.2      18.1       6.6

                     24        25        26        27        28        29   
                  -0.34226  -0.31650  -0.31399  -0.29992  -0.29139  -0.28925
                   2.00000   2.00000   2.00000   2.00000   2.00000   2.00000
                  --------  --------  --------  --------  --------  --------
 0 C  s               0.0       0.1       0.2       0.1       0.0       0.1
 0 C  pz             13.9       5.3       2.3       1.4       6.6       1.1
 0 C  px              0.1       7.1      11.8       0.7       1.2       5.5
 0 C  py              3.1       3.9       2.2      11.6       1.1       0.6
 0 C  dz2             0.1       0.2       0.0       0.1       0.1       0.0
 0 C  dxz             0.0       0.0       0.1       0.1       0.2       0.0
 0 C  dyz             0.1       0.0       0.0       0.0       0.2       0.1
 0 C  dx2y2           0.0       0.0       0.0       0.4       0.0       0.2
 0 C  dxy             0.0       0.0       0.2       0.0       0.0       0.1
 1 C  s               0.0       0.0       0.1       0.1       0.0       0.0
 1 C  pz              0.0       2.3       0.4       2.7      14.8       4.0
 1 C  px              0.2       7.1       8.8       1.7       0.8       6.6
 1 C  py              0.0       4.1       3.3      16.8       2.3       1.8
 1 C  dz2             0.0       0.1       0.0       0.2       0.2       0.2
 1 C  dxz             0.2       0.1       0.1       0.1       0.1       0.0
 1 C  dyz             0.0       0.0       0.0       0.0       0.3       0.3
 1 C  dx2y2           0.0       0.0       0.0       0.6       0.1       0.1
 1 C  dxy             0.0       0.1       0.2       0.0       0.2       0.0
 2 C  s               0.0       0.0       0.3       0.9       0.0       0.0
 2 C  pz             12.5       1.1       0.4       4.4       5.6       1.2
 2 C  px              0.8       0.0       5.2       3.6       1.4       7.8
 2 C  py              2.8       0.1       0.0       8.5       0.5       0.4
 2 C  dz2             0.1       0.0       0.1       0.1       0.2       0.2
 2 C  dxz             0.0       0.0       0.0       0.1       0.0       0.0
 2 C  dyz             0.2       0.0       0.1       0.0       0.2       0.1
 2 C  dx2y2           0.0       0.0       0.0       0.2       0.1       0.0
 2 C  dxy             0.0       0.1       0.1       0.0       0.2       0.0
 3 C  s               0.1       0.0       0.3       0.1       0.3       0.6
 3 C  pz              0.6       5.3       2.1       0.4       1.3       0.1
 3 C  px              0.1       1.2       3.5       0.1       0.3       0.2
 3 C  py              1.0       0.3       0.7       1.3       1.4       2.4
 3 C  dxz             0.2       0.0       0.0       0.0       0.0       0.0
 3 C  dyz             0.0       0.1       0.1       0.0       0.2       0.0
 3 C  dx2y2           0.1       0.1       0.0       0.4       0.1       0.2
 3 C  dxy             0.0       0.1       0.0       0.0       0.1       0.2
 4 O  s               0.6       0.0       0.0       0.5       0.5       0.4
 4 O  pz              0.3       9.9       4.4       3.7       2.5       0.1
 4 O  px              0.0       1.8       1.2       0.1       0.0       0.1
 4 O  py              4.7       0.0       0.3       2.3       4.7       3.4
 5 O  s               0.0       0.4       0.1       0.1       0.8       2.8
 5 O  pz              4.7       1.2       0.5       1.0       0.1       0.7
 5 O  px              0.4       0.0       0.9       0.0       0.2       1.0
 5 O  py              1.6       3.1       1.0       2.8       7.3      20.6
 6 C  s               0.0       0.1       0.0       0.0       0.1       0.3
 6 C  pz              1.0       8.8       1.7       0.8       0.5       0.0
 6 C  px              0.1       0.0       3.7       0.0       0.0       0.5
 6 C  py              0.3       0.7       6.0       0.8       3.2       6.4
 6 C  dz2             0.1       0.3       0.2       0.0       0.0       0.0
 6 C  dxz             0.1       0.1       0.0       0.0       0.0       0.1
 6 C  dyz             0.0       0.0       0.2       0.0       0.0       0.0
 6 C  dx2y2           0.0       0.0       0.1       0.0       0.2       0.3
 7 C  s               0.0       0.1       0.1       0.1       0.0       0.2
 7 C  pz              9.3       8.9       1.7       0.6       0.1       0.1
 7 C  px              0.7       0.3       4.9       0.5       0.1       0.3
 7 C  py              3.3       0.3       4.9       0.4       1.0       2.0
 7 C  dz2             0.1       0.2       0.2       0.0       0.0       0.0
 7 C  dyz             0.1       0.0       0.1       0.0       0.0       0.0
 8 H  s               0.1       0.0       3.9       6.7       1.3       2.3
 9 H  s               5.6       6.1       0.3       2.1       4.6       1.5
10 H  s               6.1       0.0       1.2       4.4       3.7       3.0
11 H  s               0.0       4.1       0.1       4.2       8.6       4.1
12 H  s               0.0       0.3       1.0       6.0       8.3       5.6
13 H  s               5.8       0.2       1.8       3.1       3.6       2.2
14 H  s               6.6       0.5       0.1       1.8       4.0       2.0
15 H  s               0.7       6.8       1.6       0.7       0.2       0.4
16 H  s               0.8       0.2       6.6       0.2       2.8       3.7
17 H  s               5.0       5.2       2.5       0.2       0.1       0.1
18 H  s               5.4       0.7       5.3       0.0       1.0       1.1
19 H  s               0.0       0.0       0.5       0.0       0.0       0.1

                     30        31        32        33        34        35   
                  -0.25501  -0.21628  -0.01673   0.03868   0.04910   0.07704
                   2.00000   2.00000   0.00000   0.00000   0.00000   0.00000
                  --------  --------  --------  --------  --------  --------
 0 C  s               0.0       0.0       0.0       5.9       6.5       0.5
 0 C  pz              0.0       0.0       0.1       0.0       0.0       3.8
 0 C  px              0.1       0.2       0.2       0.8       0.7       0.0
 0 C  py              0.0       0.0       0.1       1.0       0.7       0.1
 0 C  dxy             0.0       0.0       0.0       0.1       0.1       0.0
 1 C  s               0.0       0.1       1.0       3.8       2.1       1.0
 1 C  pz              0.0       0.2       0.0       0.5       0.2       2.8
 1 C  px              0.0       0.1       0.7       0.0       0.0       1.0
 1 C  py              0.0       0.1       0.3       1.0       0.7       0.1
 1 C  dz2             0.0       0.0       0.0       0.1       0.1       0.3
 1 C  dyz             0.0       0.0       0.0       0.1       0.0       0.4
 2 C  s               0.0       0.6       0.1       4.5       1.2       2.1
 2 C  pz              0.0       0.0       0.4       0.4       0.1       6.7
 2 C  px              0.1       3.2       0.1       0.1       0.0       0.7
 2 C  py              0.0       3.7       0.0       1.8       1.2       0.1
 2 C  dz2             0.0       0.0       0.2       0.0       0.0       0.2
 2 C  dxz             0.0       0.0       1.2       0.0       0.0       0.1
 2 C  dyz             0.0       0.0       0.5       0.1       0.1       0.3
 2 C  dxy             0.0       0.0       0.2       0.1       0.0       0.0
 3 C  s               0.0       0.4       0.0       1.1       0.1       0.5
 3 C  pz              0.5       0.0      44.9       0.5       0.7       0.8
 3 C  px              0.0       0.9       0.4       0.3       0.2       0.5
 3 C  py              0.0       0.5       1.4       0.4       0.0       0.0
 3 C  dz2             0.3       0.0       0.1       0.5       0.0       0.2
 3 C  dxz             0.5       0.1       0.3       0.0       0.0       0.2
 3 C  dyz             1.6       0.0       0.8       0.1       0.0       0.0
 3 C  dx2y2           0.0       0.1       0.0       0.1       0.0       0.1
 3 C  dxy             0.0       4.4       0.0       0.0       0.0       0.0
 4 O  s               0.0       0.0       0.0       0.5       0.0       0.1
 4 O  pz             32.9       0.2      24.9       0.1       0.5       0.2
 4 O  px              0.0      72.7       0.2       0.0       0.3       0.2
 4 O  py              0.9       0.1       0.7       0.2       0.0       0.0
 4 O  dyz             0.0       0.0       0.5       0.0       0.0       0.0
 5 O  s               0.0       0.3       0.0       0.8       0.1       1.0
 5 O  pz             43.5       0.9       9.8       0.0       0.3       0.1
 5 O  px              0.5       1.9       0.1       0.0       0.1       0.2
 5 O  py              2.0       5.3       0.4       0.1       0.3       0.6
 5 O  dxz             0.0       0.0       0.4       0.0       0.0       0.0
 6 C  s               0.0       0.1       0.0       3.3       4.6       0.3
 6 C  pz              4.2       0.2       0.1       0.6       0.8       2.1
 6 C  px              0.1       0.5       0.0       0.3       0.1       4.0
 6 C  py              0.1       0.4       0.0       1.6       1.3       0.4
 6 C  dz2             0.2       0.0       0.0       0.1       0.0       0.4
 6 C  dxz             0.5       0.0       0.2       0.0       0.1       0.0
 6 C  dyz             0.3       0.0       0.1       0.1       0.1       0.1
 6 C  dx2y2           0.1       0.0       0.0       0.0       0.0       0.1
 6 C  dxy             0.0       0.0       0.0       0.0       0.1       0.2
 7 C  s               0.1       0.0       0.0       5.5      11.3       2.1
 7 C  pz              0.6       0.0       0.0       0.3       0.3       1.2
 7 C  px              0.2       0.1       0.0       0.7       1.5       0.2
 7 C  py              0.0       0.1       0.1       0.3       0.5       0.1
 7 C  dz2             0.0       0.0       0.0       0.0       0.0       0.2
 7 C  dyz             0.0       0.0       0.0       0.1       0.1       0.1
 7 C  dx2y2           0.0       0.0       0.0       0.0       0.0       0.1
 8 H  s               0.0       0.1       0.0       3.5       4.1       1.8
 9 H  s               0.0       0.0       0.3       4.7       5.2       3.8
10 H  s               0.0       0.1       0.0       6.0       5.9       4.9
11 H  s               0.1       0.1       0.5       5.4       2.5      10.6
12 H  s               0.0       0.3       0.0       3.1       2.0       1.5
13 H  s               0.0       0.2       5.8       6.9       2.0      20.4
14 H  s               0.0       0.8       0.6       7.9       3.0       2.1
15 H  s               6.1       0.1       1.1       6.6       7.4       8.5
16 H  s               3.2       0.3       0.3       4.4       5.2       0.1
17 H  s               0.6       0.0       0.0       4.2       6.7       8.2
18 H  s               0.3       0.1       0.0       3.7       8.2       0.6
19 H  s               0.1       0.3       0.1       5.3      10.7       0.4

                     36        37        38        39        40        41   
                   0.08247   0.08575   0.09355   0.10139   0.10231   0.11519
                   0.00000   0.00000   0.00000   0.00000   0.00000   0.00000
                  --------  --------  --------  --------  --------  --------
 0 C  s               3.6       3.9       1.3       4.9       0.5       1.5
 0 C  pz              0.2       3.0       0.4       0.0       0.1       0.5
 0 C  px              1.9       0.5       0.0       0.6       0.1       0.4
 0 C  py              3.4       0.0       0.5       2.2       1.3       0.7
 0 C  dz2             0.0       0.0       0.0       0.1       0.0       0.2
 0 C  dxz             0.1       0.2       0.0       0.0       0.1       0.0
 0 C  dyz             0.1       0.1       0.0       0.0       0.0       0.0
 0 C  dxy             0.0       0.0       0.0       0.2       0.0       0.0
 1 C  s               1.4       0.4       0.1       7.4       0.0       4.5
 1 C  pz              0.1       4.4       0.1       0.1       0.8       0.0
 1 C  px              0.3       0.2       0.5       0.3       0.5       0.0
 1 C  py              1.7       0.0       0.6       2.2       0.6       0.4
 1 C  dz2             0.0       0.1       0.0       0.0       0.0       0.0
 1 C  dxz             0.0       0.1       0.0       0.0       0.1       0.0
 1 C  dyz             0.1       0.2       0.1       0.1       0.0       0.1
 1 C  dx2y2           0.7       0.0       0.1       0.0       0.1       0.1
 1 C  dxy             0.4       0.3       0.1       0.1       0.1       0.0
 2 C  s               5.4       1.1       1.0       0.0       1.1       0.1
 2 C  pz              0.0       2.0       0.4       0.5       0.0       0.1
 2 C  px              0.8       0.7       0.2       0.2       0.4       0.0
 2 C  py              7.2       0.0       0.1       0.2       0.2       0.9
 2 C  dz2             0.1       0.1       0.0       0.1       0.0       0.2
 2 C  dyz             0.0       0.0       0.0       0.0       0.0       0.1
 2 C  dx2y2           0.4       0.0       0.0       0.0       0.3       0.1
 2 C  dxy             0.5       0.0       0.0       0.0       0.1       0.0
 3 C  s               0.9       1.6       0.5       0.8       0.1       0.4
 3 C  pz              0.1       0.2       0.5       0.4       0.1       0.1
 3 C  px              0.0       0.2       0.3       0.0       0.7       0.4
 3 C  py              0.7       0.3       0.2       0.3       0.9       0.2
 3 C  dz2             0.0       0.3       0.2       0.1       0.0       0.1
 3 C  dx2y2           0.4       0.0       0.1       0.2       0.7       0.3
 4 O  s               0.0       0.4       0.2       0.3       0.2       0.0
 4 O  pz              0.0       0.2       0.0       0.1       0.0       0.1
 4 O  px              0.1       0.3       0.1       0.5       0.1       0.5
 4 O  py              0.1       0.0       0.0       0.1       0.1       0.0
 5 O  s               0.2       2.1       0.9       0.8       4.0       2.6
 5 O  pz              0.0       0.0       0.2       0.1       0.0       0.1
 5 O  px              0.0       0.9       0.3       1.7       2.0       1.1
 5 O  py              0.5       0.8       0.3       0.3       1.3       0.7
 5 O  dz2             0.0       0.0       0.0       0.1       0.2       0.0
 5 O  dx2y2           0.1       0.0       0.1       0.1       0.1       0.1
 5 O  dxy             0.0       0.0       0.0       0.0       0.2       0.1
 6 C  s               0.3       0.7       0.5       0.7      14.7       0.2
 6 C  pz              0.1       0.6       7.2       0.2       0.0       0.2
 6 C  px              0.8       7.4       0.5       2.7       6.3       6.9
 6 C  py              1.1       2.3       3.7       1.0       1.5       4.8
 6 C  dz2             0.1       0.4       0.3       0.1       0.6       0.4
 6 C  dyz             0.0       0.0       0.2       0.0       0.0       0.4
 6 C  dx2y2           0.2       0.3       0.4       0.6       0.2       0.0
 6 C  dxy             0.0       0.8       0.5       0.3       0.3       0.9
 7 C  s               0.2       4.7       0.0       0.1       4.5       0.0
 7 C  pz              0.3       0.3       7.3       0.0       0.9       1.6
 7 C  px              0.4       0.3       0.2       3.7       0.8       8.9
 7 C  py              0.9       0.5       4.1       3.6       0.8       5.0
 7 C  dz2             0.1       0.1       0.4       0.1       0.3       0.3
 7 C  dxz             0.0       0.0       0.0       0.0       0.2       0.0
 7 C  dyz             0.0       0.1       0.3       0.0       0.0       0.2
 7 C  dx2y2           0.1       0.4       0.5       0.4       0.1       0.1
 7 C  dxy             0.0       0.1       0.2       0.2       0.0       0.2
 8 H  s              18.6       1.4       0.6       0.3       1.1       6.3
 9 H  s               0.4      15.1       0.1       3.0       1.5       0.1
10 H  s               0.7       0.0       4.5      13.1       2.8       0.4
11 H  s               1.7      11.2       0.0       7.9       1.7       3.2
12 H  s               6.2       1.5       1.9      13.4       0.3       5.2
13 H  s               6.5       0.9       2.0       0.9       0.6       0.0
14 H  s              21.4       4.7       0.0       0.4       0.4       0.2
15 H  s               1.5       6.4      14.0       0.6       7.1       0.7
16 H  s               1.5       1.4      10.1       0.2      18.6       0.6
17 H  s               2.2       7.2      12.1       1.3       0.6       9.0
18 H  s               1.3       4.7      17.6       3.6       9.8       2.0
19 H  s               1.6       1.1       1.1      16.0       7.1      24.7

                     42        43        44        45        46        47   
                   0.13051   0.13566   0.13949   0.14418   0.18547   0.18937
                   0.00000   0.00000   0.00000   0.00000   0.00000   0.00000
                  --------  --------  --------  --------  --------  --------
 0 C  s               0.1       0.0       0.0       0.1       0.4       0.9
 0 C  pz              6.9       0.0      10.7       1.0       0.0       0.7
 0 C  px              6.0       0.1       2.7       0.1       3.1       5.6
 0 C  py              3.4       0.3       4.9       0.1       0.7       0.3
 0 C  dz2             0.4       0.0       0.5       0.0       0.1       0.1
 0 C  dxz             0.4       0.0       0.0       0.5       0.0       0.0
 0 C  dyz             0.1       0.1       0.7       0.1       0.0       0.3
 0 C  dx2y2           0.0       0.0       0.1       0.0       0.6       0.4
 0 C  dxy             0.4       0.0       0.0       0.3       0.5       0.8
 1 C  s               1.1       0.1       0.1       0.6       2.6       3.8
 1 C  pz              0.2       1.5       0.9      13.1       0.5       2.6
 1 C  px              0.7       0.1       0.1       0.4       0.3       1.2
 1 C  py              1.9       0.1       0.9       1.5       6.3       9.3
 1 C  dz2             0.2       0.0       0.1       0.2       0.7       1.1
 1 C  dxz             0.2       0.0       0.9       0.1       0.1       0.6
 1 C  dyz             0.2       0.0       0.0       0.1       0.5       0.9
 1 C  dx2y2           0.1       0.1       0.0       0.0       0.2       0.0
 1 C  dxy             0.4       0.0       0.4       0.0       0.0       0.1
 2 C  s               2.9       0.4       0.0       0.1       1.5       0.3
 2 C  pz              0.7       1.0       4.4       4.7       2.6       0.6
 2 C  px              0.8       0.2       0.1       0.7       3.1      18.5
 2 C  py              0.9       0.3       1.8       1.5       0.0       0.6
 2 C  dz2             0.0       0.0       0.3       0.1       0.0       0.2
 2 C  dxz             0.0       0.0       0.1       0.1       0.2       0.3
 2 C  dyz             0.1       0.0       0.3       0.0       0.0       0.1
 2 C  dx2y2           0.0       0.0       0.1       0.2       0.3       0.3
 2 C  dxy             0.0       0.0       0.2       0.2       0.7       4.1
 3 C  s               0.1       0.2       0.7       0.1       0.4       8.1
 3 C  pz              0.1       0.0       0.3       1.3       1.3       0.8
 3 C  px              0.1       0.1       0.2       0.3       0.7       1.3
 3 C  py              0.1       0.3       0.2       0.7       0.7       1.6
 3 C  dz2             0.0       0.0       0.3       0.1       0.0       1.4
 3 C  dxz             0.0       0.2       0.1       0.1       0.1       0.1
 3 C  dx2y2           0.2       0.1       0.1       0.2       0.4       0.3
[...]
 2 C  px              2.6       0.5       0.0       0.0       0.1       0.2
 2 C  py              0.2       0.1       0.0       0.0       0.1       0.0
 2 C  dz2             0.0       0.4       0.0       0.0       0.1       0.2
 2 C  dxz             3.1       0.3       0.1       0.5       0.1       0.0
 2 C  dyz             0.3       0.4       0.2       0.8       0.1       0.0
 2 C  dx2y2           1.9       0.0       0.0       0.0       3.5       1.3
 2 C  dxy            12.5       2.5       0.1       0.0       1.5       0.2
 3 C  s               0.8       0.0       0.0       0.0       0.3       1.1
 3 C  pz              0.0       0.0       0.1       1.1       0.0       0.1
 3 C  px              0.7       0.4       0.0       0.0       0.3       1.8
 3 C  py              0.1       0.3       0.0       0.0       0.2       1.3
 3 C  dz2             0.0       2.4       0.0       0.1       0.8       1.9
 3 C  dxz             0.1       0.0       0.8      12.4       0.0       0.0
 3 C  dyz             0.0       0.1       0.0       0.2       0.2       0.2
 3 C  dx2y2           0.4       0.6       0.2       0.0      10.9       0.3
 3 C  dxy             0.3       0.2       0.1       0.3       0.3       3.6
 4 O  s               0.0       0.0       0.0       0.0       1.1       0.4
 4 O  pz              0.0       0.0       0.0       0.3       0.0       0.0
 4 O  px              0.0       0.0       0.0       0.0       0.2       0.4
 4 O  py              0.0       0.0       0.0       0.0       0.4       0.4
 4 O  dz2             5.4      48.7       1.9       1.9       3.7       0.1
 4 O  dxz             1.9       0.5       2.5      11.0       0.2       0.9
 4 O  dyz             0.1       3.2       4.3      11.2       0.5       0.0
 4 O  dx2y2           2.3      20.2       0.0       0.2       0.0       2.0
 4 O  dxy             0.1       0.1       0.1       1.4       8.8      24.1
 5 O  s               0.0       0.2       0.0       0.0       0.7       7.3
 5 O  pz              0.0       0.0       0.9       0.6       0.0       0.0
 5 O  px              0.1       0.2       0.0       0.0       1.1       0.2
 5 O  py              0.0       0.5       0.0       0.1       1.5       0.8
 5 O  dz2             1.5       4.7       1.5       6.7      23.8      30.2
 5 O  dxz             0.1       0.7      30.5      29.0       0.1       1.9
 5 O  dyz             0.1       0.0      38.6      18.3       7.6       1.4
 5 O  dx2y2           3.7       2.5       3.8       0.4      13.7      11.1
 5 O  dxy             0.0       0.0       0.3       1.9       5.1       1.1
 6 C  s               0.0       0.2       0.0       0.0       0.8       0.3
 6 C  pz              0.0       0.2       0.5       0.0       0.0       0.0
 6 C  px              0.0       0.4       0.1       0.0       0.6       0.6
 6 C  py              0.0       0.1       0.1       0.0       0.1       0.2
 6 C  dz2             0.0       0.2       0.0       0.1       1.3       0.9
 6 C  dxz             0.1       0.5      10.3       0.0       0.5       0.1
 6 C  dyz             0.0       0.8       1.3       0.7       0.0       0.0
 6 C  dx2y2           0.3       0.9       0.0       0.0       6.1       0.0
 6 C  dxy             0.5       1.8       0.0       0.0       0.0       2.4
 7 C  s               0.0       0.3       0.0       0.0       0.0       0.1
 7 C  pz              0.0       0.1       0.1       0.0       0.0       0.0
 7 C  px              0.0       0.1       0.0       0.0       0.0       0.0
 7 C  py              0.0       0.1       0.0       0.0       0.0       0.0
 7 C  dz2             0.0       0.0       0.1       0.1       0.1       0.0
 7 C  dxz             0.0       0.6       0.2       0.0       0.0       0.0
 7 C  dyz             0.1       0.7       0.0       0.0       0.4       0.0
 7 C  dx2y2           0.0       0.0       0.5       0.0       0.7       0.0
 7 C  dxy             0.1       0.7       0.3       0.0       0.1       0.1
 8 H  s               0.2       0.0       0.0       0.0       0.0       0.0
16 H  s               0.0       0.1       0.0       0.1       0.1       0.0

                    132       133       134       135   
                   3.11396   3.32634   3.50138   3.55682
                   0.00000   0.00000   0.00000   0.00000
                  --------  --------  --------  --------
 1 C  dxy             0.1       0.1       0.0       0.1
 2 C  s               0.0       0.2       0.1       0.0
 2 C  px              0.0       0.1       0.3       0.1
 2 C  dz2             0.1       0.0       0.2       0.0
 2 C  dxz             0.7       0.0       0.0       0.0
 2 C  dx2y2           0.1       0.2       1.4       0.2
 2 C  dxy             0.1       0.5       0.4       0.5
 3 C  s               0.0       4.1       0.1       5.7
 3 C  pz              0.4       0.0       0.2       0.1
 3 C  px              0.0       1.3       1.2       0.0
 3 C  py              0.0       0.4       2.4       4.1
 3 C  dz2             2.1       0.4       0.1       1.1
 3 C  dxz             0.9       0.0       0.8       0.1
 3 C  dyz            17.0       0.0       0.1       0.9
 3 C  dx2y2           0.6       3.7       1.8       7.1
 3 C  dxy             0.2       2.0      17.8       4.1
 4 O  s               0.0       1.7       0.9       4.0
 4 O  pz              0.9       0.0       0.0       0.1
 4 O  px              0.0       0.2       0.6       0.1
 4 O  py              0.0       0.7       0.5       3.2
 4 O  dz2             5.2       3.8       0.9       9.4
 4 O  dxz             0.3       0.3       0.6       0.1
 4 O  dyz            52.0       1.6       1.4       3.6
 4 O  dx2y2           1.9       7.5       5.1      35.4
 4 O  dxy             0.2       7.6      19.0       3.8
 5 O  s               0.0       0.1       0.9       0.3
 5 O  px              0.0       2.6       3.4       0.1
 5 O  py              0.0       0.1       0.2       0.2
 5 O  dz2             0.7       0.6       2.0       1.3
 5 O  dxz            14.9       0.3       2.1       0.2
 5 O  dyz             0.2       1.0       0.2       0.1
 5 O  dx2y2           0.1      12.9       6.9      12.0
 5 O  dxy             0.3      36.6      25.8       0.3
 6 C  s               0.0       0.7       0.2       0.0
 6 C  px              0.0       1.4       0.3       0.1
 6 C  py              0.0       0.3       0.0       0.1
 6 C  dz2             0.0       1.0       0.0       0.2
 6 C  dxz             0.4       0.1       0.0       0.0
 6 C  dyz             0.4       0.0       0.0       0.0
 6 C  dx2y2           0.0       0.7       1.3       0.1
 6 C  dxy             0.0       4.3       0.0       0.8
 7 C  dx2y2           0.0       0.0       0.2       0.0


                      *****************************
                      * MAYER POPULATION ANALYSIS *
                      *****************************

  NA   - Mulliken gross atomic population
  ZA   - Total nuclear charge
  QA   - Mulliken gross atomic charge
  VA   - Mayer's total valence
  BVA  - Mayer's bonded valence
  FA   - Mayer's free valence

  ATOM       NA         ZA         QA         VA         BVA        FA
  0 C      6.2532     6.0000    -0.2532     4.0110     4.0110     0.0000
  1 C      6.2139     6.0000    -0.2139     4.1790     4.1790     0.0000
  2 C      6.1601     6.0000    -0.1601     3.9376     3.9376     0.0000
  3 C      5.8785     6.0000     0.1215     4.3895     4.3895    -0.0000
  4 O      8.2130     8.0000    -0.2130     2.2840     2.2840     0.0000
  5 O      8.2385     8.0000    -0.2385     2.2588     2.2588     0.0000
  6 C      6.0292     6.0000    -0.0292     4.0151     4.0151     0.0000
  7 C      6.2757     6.0000    -0.2757     4.0017     4.0017    -0.0000
  8 H      0.8941     1.0000     0.1059     0.9506     0.9506     0.0000
  9 H      0.9027     1.0000     0.0973     0.9581     0.9581     0.0000
 10 H      0.9035     1.0000     0.0965     0.9550     0.9550     0.0000
 11 H      0.9072     1.0000     0.0928     0.9431     0.9431     0.0000
 12 H      0.8913     1.0000     0.1087     0.9622     0.9622    -0.0000
 13 H      0.8885     1.0000     0.1115     0.9570     0.9570     0.0000
 14 H      0.9035     1.0000     0.0965     0.9725     0.9725    -0.0000
 15 H      0.8973     1.0000     0.1027     0.9512     0.9512     0.0000
 16 H      0.8888     1.0000     0.1112     0.9748     0.9748     0.0000
 17 H      0.8860     1.0000     0.1140     0.9593     0.9593    -0.0000
 18 H      0.8860     1.0000     0.1140     0.9574     0.9574    -0.0000
 19 H      0.8891     1.0000     0.1109     0.9551     0.9551    -0.0000

  Mayer bond orders larger than 0.100000
B(  0-C ,  1-C ) :   1.1573 B(  0-C ,  8-H ) :   0.9534 B(  0-C ,  9-H ) :   0.9543 
B(  0-C , 10-H ) :   0.9527 B(  1-C ,  2-C ) :   1.1274 B(  1-C , 11-H ) :   0.9334 
B(  1-C , 12-H ) :   0.9190 B(  2-C ,  3-C ) :   1.0236 B(  2-C , 13-H ) :   0.8897 
B(  2-C , 14-H ) :   0.9093 B(  3-C ,  4-O ) :   2.0478 B(  3-C ,  5-O ) :   1.2206 
B(  5-O ,  6-C ) :   0.9114 B(  6-C ,  7-C ) :   1.1538 B(  6-C , 15-H ) :   0.9359 
B(  6-C , 16-H ) :   0.9221 B(  7-C , 17-H ) :   0.9521 B(  7-C , 18-H ) :   0.9487 
B(  7-C , 19-H ) :   0.9447 

-------
TIMINGS
-------

Total SCF time: 0 days 0 hours 0 min 7 sec 

Total time                  ....       7.956 sec
Sum of individual times     ....       7.455 sec  ( 93.7%)

SCF preparation             ....       0.159 sec  (  2.0%)
Fock matrix formation       ....       6.458 sec  ( 81.2%)
  Startup                   ....       0.082 sec  (  1.3% of F)
  Split-RI-J                ....       2.322 sec  ( 36.0% of F)
  XC integration            ....       3.501 sec  ( 54.2% of F)
    Basis function eval.    ....       1.280 sec  ( 36.6% of XC)
    Density eval.           ....       0.429 sec  ( 12.2% of XC)
    XC-Functional eval.     ....       0.341 sec  (  9.7% of XC)
    XC-Potential eval.      ....       0.675 sec  ( 19.3% of XC)
Diagonalization             ....       0.000 sec  (  0.0%)
Density matrix formation    ....       0.184 sec  (  2.3%)
Total Energy calculation    ....       0.040 sec  (  0.5%)
Population analysis         ....       0.082 sec  (  1.0%)
Orbital Transformation      ....       0.047 sec  (  0.6%)
Orbital Orthonormalization  ....       0.000 sec  (  0.0%)
DIIS solution               ....       0.389 sec  (  4.9%)
  MO trafo                  ....       0.000 sec  (  0.0 % of DIIS)
  Orb grad                  ....       0.000 sec  (  0.0 % of DIIS)
  Energy W gradient         ....       0.000 sec  (  0.0 % of DIIS)
  DIIS error                ....       0.006 sec  (  1.6 % of DIIS)
  DIIS work                 ....       0.339 sec  ( 87.0 % of DIIS)
  Form Q                    ....       0.000 sec  (  0.0 % of DIIS)
  Form QpQm                 ....       0.000 sec  (  0.0 % of DIIS)
  Exp/Cayley                ....       0.000 sec  (  0.0 % of DIIS)
  Orb update                ....       0.000 sec  (  0.0 % of DIIS)
  Wake-sleep                ....       0.020 sec  (  5.1 % of DIIS)
SOSCF solution              ....       0.096 sec  (  1.2%)
  MO trafo                  ....       0.048 sec  ( 50.0 % of SOSCF)
  Orb grad                  ....       0.002 sec  (  1.8 % of SOSCF)
  Rot update                ....       0.023 sec  ( 24.4 % of SOSCF)
  Step                      ....       0.023 sec  ( 23.6 % of SOSCF)
Finished LeanSCF after   8.1 sec

Maximum memory used throughout the entire LEANSCF-calculation: 12.5 MB


-------------------------------------------------------------------------------
                          DFT DISPERSION CORRECTION                            
                                                                               
                                DFTD4 V3.4.0                                   
-------------------------------------------------------------------------------
The PBE functional is recognized
Active option DFTDOPT                   ...         5   

-------------------------   ----------------
Dispersion correction           -0.014200392
-------------------------   ----------------

------------------   -----------------
gCP correction             0.089404510
------------------   -----------------

-------------------------   --------------------
FINAL SINGLE POINT ENERGY      -385.458120345926
-------------------------   --------------------


------------------------------------------------------------------------------
                              ORCA PROPERTY CALCULATIONS
------------------------------------------------------------------------------

GBWName                                 ... sp.gbw
Number of atoms                         ...     20
Number of basis functions               ...    136
Max core memory                         ...   1024 MB

Electric properties:
Dipole moment                           ... YES
Quadrupole moment                       ...  NO
Static polarizability (Dipole/Dipole)   ...  NO
Static polarizability (Dipole/Quad.)    ...  NO
Static polarizability (Quad./Quad.)     ...  NO
Static polarizability (Velocity)        ...  NO

Atomic electric properties:
Dipole moment                           ...  NO
Quadrupole moment                       ...  NO
Static polarizability                   ...  NO

Choice of electric origin               ... Center of mass
Position of electric origin             ...    -0.000012    -0.000014     0.000008

General magnetic properties:
Magnetizability                         ...  NO

EPR properties:
g-Tensor (aka g-matrix)                 ...  NO
Zero-Field splitting spin-orbit         ...  NO
Zero-field splitting spin-spin          ...  NO
Hyperfine couplings                     ...  NO (   0 nuclei)
Quadrupole couplings                    ...  NO (   0 nuclei)
Contact density                         ...  NO (   0 nuclei)

NMR properties:
Chemical shifts                         ...  NO (   0 nuclei)
Spin-rotation constants                 ...  NO (   0 nuclei)
Spin-spin couplings                     ...  NO (   0 nuclei,    0 pairs)

Choice of magnetic origin               ... GIAO
Position of magnetic origin             ...     0.000000     0.000000     0.000000

Properties with geometric perturbations:
SCF Hessian                             ...  NO
IR spectrum                             ...  NO
VCD spectrum                            ...  NO
X-ray spectroscopy properties:
SCF XES/XAS/RIXS spectra                ...  NO


-------------
DIPOLE MOMENT
-------------

Method             : SCF
Type of density    : Electron Density
Multiplicity       :   1
Irrep              :   0
Energy             :  -385.5333244637059806 Eh
Relativity type    : 
Basis              : AO
                                X                 Y                 Z
Electronic contribution:      3.063014532       3.293685240      -2.227427985
Nuclear contribution   :     -2.718366653      -3.913089829       2.383815470
                        -----------------------------------------
Total Dipole Moment    :      0.344647879      -0.619404588       0.156387485
                        -----------------------------------------
Magnitude (a.u.)       :      0.725879639
Magnitude (Debye)      :      1.845039415



--------------------
Rotational spectrum 
--------------------
 
Rotational constants in cm-1:             0.188520             0.027610             0.025274 
Rotational constants in MHz :          5651.695045           827.727709           757.704598 

Dipole components along the rotational axes: 
x,y,z [a.u.] :     0.319000    -0.647067    -0.080275 
x,y,z [Debye]:     0.810833    -1.644715    -0.204043 

 

Dipole moment calculation done in   0.0 sec 

Maximum memory used throughout the entire PROP-calculation: 7.8 MB

--------------------------------
SUGGESTED CITATIONS FOR THIS RUN
--------------------------------

Below you find a list of papers that are relevant to this ORCA run
We neither can nor want to force you to cite these papers, but we appreciate if you do
You receive ORCA, which is the product of decades of hard work by many enthusiastic individuals, for free
The only thing we kindly ask in return is that you cite our papers,
We deeply appreciate it, if you show your appreciation for ORCA by not just citing the generic ORCA reference.

Please note that relegating all ORCA citations to the supporting information does *not* help us.
SI sections are not indexed - citations you put there will not count into any citation statistics
But we need these citations in order to attract the funding resources that allow us to do what we are doing

Therefore, if you are a happy ORCA user, please consider citing a few of the papers listed below in the main body of your paper

In addition to the list printed below, the program has created the file sp.bibtex that contains the list in bibtex format
You can import this file easily into all common literature databanks and citation aid programs


List of essential papers. We consider these as the minimum necessary citations

  1. Neese,F.
     Software update: the ORCA program system, version 5.0
     WIRES Comput. Molec. Sci., 2022 12(1)e1606
     doi.org/10.1002/wcms.1606

List of papers to cite with high priority. The work reported in these papers was absolutely
necessary for this run to complete.
Our perspective: the developers of density functionals and basis sets usually get cited in chemistry papers
Good! But without the algorithms to do something with them, the functionals or basis sets would not do anything.
Hence, in our opinion, the algorithm design and method developments papers are equally worthy of getting cited

  1. Neese,F.
     An improvement of the resolution of the identity approximation for the formation of the Coulomb matrix
     J. Comp. Chem., 2003 24(14)1740-1747
     doi.org/10.1002/jcc.10318
  2. Neese,F.
     The SHARK Integral Generation and Digestion System
     J. Comp. Chem., 2022  1-16
     doi.org/10.1002/jcc.26942
  3. Caldeweyher,E.; Bannwarth,C.; Grimme,S.
     Extension of the D3 dispersion coefficient model
     J. Chem. Phys., 2017 147 034112-XXXX
     doi.org/10.1063/1.4993215
  4. Caldeweyher,E.; Ehlert,S.; Hansen,A.; Neugebauer,H.; Spicher,S.; Bannwarth,C.; Grimme,S.
     A generally applicable atomic-charge dependent London dispersion correction
     J. Chem. Phys., 2019 150 154122-XXXX
     doi.org/10.1063/1.5090222
  5. Caldeweyher,E.; Mewes,J.; Ehlert,S.; Grimme,S.
     Extension and evaluation of the D4 London-dispersion model for periodic systems
     Phys. Chem. Chem. Phys., 2020 22(16)8499-8512
     doi.org/10.1039/D0CP00502A

List of suggested additional citations. These are papers that are important in the 'surrounding' of 
of this run, or papers that preceded the highly important papers. If you like your results we are grateful for a citation.

  1. Neese,F.
     The ORCA program system
     WIRES Comput. Molec. Sci., 2012 2(1)73-78
     doi.org/10.1002/wcms.81
  2. Neese,F.
     Software update: the ORCA program system, version 4.0
     WIRES Comput. Molec. Sci., 2018 8(1)1-6
     doi.org/10.1002/wcms.1327
  3. Neese,F.; Wennmohs,F.; Becker,U.; Riplinger,C.
     The ORCA quantum chemistry program package
     J. Chem. Phys., 2020 152 Art. No. L224108
     doi.org/10.1063/5.0004608

List of optional additional citations

  1. Neese,F.
     Approximate second-order SCF convergence for spin unrestricted wavefunctions
     Chem. Phys. Lett., 2000 325(1-3)93-98
     doi.org/10.1016/s0009-2614(00)00662-x

Timings for individual modules:

Sum of individual times          ...        9.738 sec (=   0.162 min)
Startup calculation              ...        0.746 sec (=   0.012 min)   7.7 %
SCF iterations                   ...        8.875 sec (=   0.148 min)  91.1 %
Property calculations            ...        0.117 sec (=   0.002 min)   1.2 %
                             ****ORCA TERMINATED NORMALLY****
TOTAL RUN TIME: 0 days 0 hours 0 minutes 10 seconds 598 msec
