      -----------------------------------------------------------      
     |                   =====================                   |     
     |                           x T B                           |     
     |                   =====================                   |     
     |                         S. Grimme                         |     
     |          Mulliken Center for Theoretical Chemistry        |     
     |                    University of Bonn                     |     
      -----------------------------------------------------------      

   * xtb version 6.7.1 (edcfbbe) compiled by 'albert@albert-system' on 2024-07-22

   xtb is free software: you can redistribute it and/or modify it under
   the terms of the GNU Lesser General Public License as published by
   the Free Software Foundation, either version 3 of the License, or
   (at your option) any later version.
   
   xtb is distributed in the hope that it will be useful,
   but WITHOUT ANY WARRANTY; without even the implied warranty of
   MERCHANTABILITY or FITNESS FOR A PARTICULAR PURPOSE.  See the
   GNU Lesser General Public License for more details.
   
   Cite this work as:
   * C. Bannwarth, E. Caldeweyher, S. Ehlert, A. Hansen, P. Pracht,
     J. Seibert, S. Spicher, S. Grimme, WIREs Comput. Mol. Sci., 2020, 11,
     e01493. DOI: 10.1002/wcms.1493
   
   for GFN2-xTB:
   * C. Bannwarth, S. Ehlert and S. Grimme., J. Chem. Theory Comput., 2019,
     15, 1652-1671. DOI: 10.1021/acs.jctc.8b01176
   for GFN1-xTB:
   * S. Grimme, C. Bannwarth, P. Shushkov, J. Chem. Theory Comput., 2017,
     13, 1989-2009. DOI: 10.1021/acs.jctc.7b00118
   for GFN0-xTB:
   * P. Pracht, E. Caldeweyher, S. Ehlert, S. Grimme, ChemRxiv, 2019, preprint.
     DOI: 10.26434/chemrxiv.8326202.v1
   for GFN-FF:
   * S. Spicher and S. Grimme, Angew. Chem. Int. Ed., 2020, 59, 15665-15673.
     DOI: 10.1002/anie.202004239
   
   for ALPB and GBSA implicit solvation:
   * S. Ehlert, M. Stahn, S. Spicher, S. Grimme, J. Chem. Theory Comput.,
     2021, 17, 4250-4261. DOI: 10.1021/acs.jctc.1c00471
   
   for ddCOSMO and CPCM-X implicit solvation:
   * M. Stahn, S. Ehlert, S. Grimme, J. Phys. Chem. A,
     2023, XX, XXXX-XXXX. DOI: 10.1021/acs.jpca.3c04382
   
   for DFT-D4:
   * E. Caldeweyher, C. Bannwarth and S. Grimme, J. Chem. Phys., 2017,
     147, 034112. DOI: 10.1063/1.4993215
   * E. Caldeweyher, S. Ehlert, A. Hansen, H. Neugebauer, S. Spicher,
     C. Bannwarth and S. Grimme, J. Chem. Phys., 2019, 150, 154122.
     DOI: 10.1063/1.5090222
   * E. Caldeweyher, J.-M. Mewes, S. Ehlert and S. Grimme, Phys. Chem. Chem. Phys.
     2020, 22, 8499-8512. DOI: 10.1039/D0CP00502A
   
   for sTDA-xTB:
   * S. Grimme and C. Bannwarth, J. Chem. Phys., 2016, 145, 054103.
     DOI: 10.1063/1.4959605
   
   in the mass-spec context:
   * V. Asgeirsson, C. Bauer and S. Grimme, Chem. Sci., 2017, 8, 4879.
     DOI: 10.1039/c7sc00601b
   * J. Koopman and S. Grimme, ACS Omega 2019, 4, 12, 15120-15133.
     DOI: 10.1021/acsomega.9b02011
   
   for metadynamics refer to:
   * S. Grimme, J. Chem. Theory Comput., 2019, 155, 2847-2862
     DOI: 10.1021/acs.jctc.9b00143
   
   for SPH calculations refer to:
   * S. Spicher and S. Grimme, J. Chem. Theory Comput., 2021, 17, 1701-1714
     DOI: 10.1021/acs.jctc.0c01306
   
   for ONIOM refer to:
   * C. Plett, A. Katbashev, S. Ehlert, S. Grimme, M. Bursch,
     Phys. Chem. Chem. Phys., 2023, 25, 17860-17868. DOI: 10.1039/D3CP02178E
   
   for DIPRO refer to:
   * J. Kohn, N. Gildemeister, S. Grimme, D. Fazzi, A. Hansen,
     J. Chem. Phys., 2023, just accepted.
   
   for PTB refer to:
   * S. Grimme, M. Mueller, A. Hansen, J. Chem. Phys., 2023, 158, 124111.
     DOI: 10.1063/5.0137838
   
   with help from (in alphabetical order)
   P. Atkinson, C. Bannwarth, F. Bohle, G. Brandenburg, E. Caldeweyher
   M. Checinski, S. Dohm, S. Ehlert, S. Ehrlich, I. Gerasimov, C. Hölzer
   A. Katbashev, J. Kohn, J. Koopman, C. Lavigne, S. Lehtola, F. März, M. Müller,
   F. Musil, H. Neugebauer, J. Pisarek, C. Plett, P. Pracht, F. Pultar,
   J. Seibert, P. Shushkov, S. Spicher, M. Stahn, M. Steiner, T. Strunk,
   J. Stückrath, T. Rose, and J. Unsleber
   
 * started run on 2025/04/11 at 14:46:02.776     
   ID    Z sym.   atoms
    1    6 C      1, 2, 4-9, 11-17
    2    1 H      3, 20-31
    3    9 F      10
    4    8 O      18, 19

           -------------------------------------------------
          |                Calculation Setup                |
           -------------------------------------------------

          program call               : /software/projects/pawsey0265/mwang1/xtb/bin/xtb xtb_opt.coord --opt normal --orca -I xtb_opt-xcontrol-inp
          hostname                   : nid002050
          coordinate file            : xtb_opt.coord
          omp threads                :                    32

           -------------------------------------------------
          |                   Orca driver                   |
           -------------------------------------------------
orca executable           : /software/projects/pawsey0265/mwang1/orca_avx2/orca
orca input file           : xtb_opt.inp
orca input line           : 
orca parallel             : true
orca number of threads    : 32
                         * ORCA takes the control...
  ------------------------------------------------------------------------

                                 *****************
                                 * O   R   C   A *
                                 *****************

                                            #,                                       
                                            ###                                      
                                            ####                                     
                                            #####                                    
                                            ######                                   
                                           ########,                                 
                                     ,,################,,,,,                         
                               ,,#################################,,                 
                          ,,##########################################,,             
                       ,#########################################, ''#####,          
                    ,#############################################,,   '####,        
                  ,##################################################,,,,####,       
                ,###########''''           ''''###############################       
              ,#####''   ,,,,##########,,,,          '''####'''          '####       
            ,##' ,,,,###########################,,,                        '##       
           ' ,,###''''                  '''############,,,                           
         ,,##''                                '''############,,,,        ,,,,,,###''
      ,#''                                            '''#######################'''  
     '                                                          ''''####''''         
             ,#######,   #######,   ,#######,      ##                                
            ,#'     '#,  ##    ##  ,#'     '#,    #''#        ,####,   ,####,        
            ##       ##  ##   ,#'  ##            #'  '#       #'       #'  '#        
            ##       ##  #######   ##           ,######,      #####,   #    #        
            '#,     ,#'  ##    ##  '#,     ,#' ,#      #,     #,   #   #,  ,#        
             '#######'   ##     ##  '#######'  #'      '#     '####' # '####'        



                #########################################################
                #                        -***-                          #
                #          Department of theory and spectroscopy        #
                #                                                       #
                #                      Frank Neese                      #
                #                                                       #
                #     Directorship, Architecture, Infrastructure        #
                #                    SHARK, DRIVERS                     #
                #        Core code/Algorithms in most modules           #
                #                                                       #
                #        Max Planck Institute fuer Kohlenforschung      #
                #                Kaiser Wilhelm Platz 1                 #
                #                 D-45470 Muelheim/Ruhr                 #
                #                      Germany                          #
                #                                                       #
                #                  All rights reserved                  #
                #                        -***-                          #
                #########################################################


                         Program Version 6.0.1  -  RELEASE   -


 With contributions from (in alphabetic order):
[Max-Planck-Institut fuer Kohlenforschung]                               
  Daniel Aravena         : Magnetic Suceptibility                        
  Michael Atanasov       : Ab Initio Ligand Field Theory (pilot matlab implementation)
  Alexander A. Auer      : GIAO ZORA, VPT2 properties, NMR spectrum      
  Ute Becker             : All parallelization in ORCA, NUMFREQ, NUMCALC 
  Giovanni Bistoni       : ED, misc. LED, open-shell LED, HFLD           
  Martin Brehm           : Molecular dynamics                            
  Dmytro Bykov           : pre 5.0 version of the SCF Hessian            
  Marcos Casanova-Páez   : Triplet and SCS-CIS(D). UHF-(DLPNO)-IP/EA/STEOM-CCSD. UHF-CVS-IP/STEOM-CCSD   
  Vijay G. Chilkuri      : MRCI spin determinant printing, contributions to CSF-ICE 
  Pauline Colinet        : FMM embedding                                 
  Dipayan Datta          : RHF DLPNO-CCSD density                        
  Achintya Kumar Dutta   : EOM-CC, STEOM-CC                              
  Nicolas Foglia         : Exact transition moments, OPA infrastructure, MCD improvements    
  Dmitry Ganyushin       : Spin-Orbit,Spin-Spin,Magnetic field MRCI      
  Miquel Garcia-Rates    : C-PCM and meta-GGA Hessian, CCSD/C-PCM, Gaussian charge scheme 
  Tiago L. C. Gouveia    : GS-ROHF, GS-ROCIS                             
  Yang Guo               : DLPNO-NEVPT2, F12-NEVPT2, CIM, IAO-localization        
  Andreas Hansen         : Spin unrestricted coupled pair/coupled cluster methods 
  Ingolf Harden          : AUTO-CI MPn and infrastructure                
  Benjamin Helmich-Paris : MC-RPA, TRAH-(SCF,CASSCF), AVAS, COSX integrals, SCF dyn. polar. 
  Lee Huntington         : MR-EOM, pCC                                   
  Robert Izsak           : Overlap fitted RIJCOSX, COSX-SCS-MP3, EOM     
  Riya Kayal             : Wick's Theorem for AUTO-CI, AUTO-CI UHF-CCSDT 
  Emily Kempfer          : AUTO-CI, RHF CISDT and CCSDT                  
  Christian Kollmar      : KDIIS, OOCD, Brueckner-CCSD(T), CCSD density, CASPT2, CASPT2-K, improved NEVPT2 
  Axel Koslowski         : Symmetry handling                             
  Simone Kossmann        : meta-GGA functionals, TD-DFT gradient, OOMP2, (MP2 Hessian; deprecated post 5.0) 
  Lucas Lang             : DCDCAS                                        
  Marvin Lechner         : AUTO-CI (C++ implementation), FIC-MRCC        
  Spencer Leger          : CASSCF response                               
  Dagmar Lenk            : GEPOL surface, SMD, ORCA-2-JSON               
  Dimitrios Liakos       : Extrapolation schemes; Compound Job, initial MDCI parallelization 
  Dimitrios Manganas     : Further ROCIS development; embedding schemes. LFT, Crystal Embedding 
  Dimitrios Pantazis     : SARC Basis sets                               
  Anastasios Papadopoulos: AUTO-CI, single reference methods and gradients 
  Taras Petrenko         : pre 6.0 DFT Hessian and TD-DFT gradient, (ASA, deprecated), ECA, 1-Electron XAS/XES, NRVS 
  Peter Pinski           : DLPNO-MP2, DLPNO-MP2 Gradient                 
  Christoph Reimann      : Effective Core Potentials                     
  Marius Retegan         : Local ZFS, SOC                                
  Christoph Riplinger    : Optimizer, TS searches, QM/MM, DLPNO-CCSD(T), (RO)-DLPNO pert. Triples 
  Michael Roemelt        : Original ROCIS implementation                 
  Masaaki Saitow         : Open-shell DLPNO-CCSD energy and density      
  Barbara Sandhoefer     : DKH picture change effects                    
  Kantharuban Sivalingam : CASSCF convergence/infrastructure, NEVPT2 and variants, FIC-MRCI 
  Bernardo de Souza      : ESD, SOC TD-DFT                               
  Georgi L. Stoychev     : AutoAux, RI-MP2 NMR, DLPNO-MP2 response, X2C  
  Van Anh Tran           : RI-MP2 g-tensors                              
  Willem Van den Heuvel  : Paramagnetic NMR                              
  Zikuan Wang            : NOTCH, Electric field optimization            
  Frank Wennmohs         : Technical directorship and infrastructure     
  Hang Xu                : AUTO-CI-Response properties                   
                                                                         
[FACCTs GmbH]                                                            
  Markus Bursch, Miquel Garcia-Rates, Christoph Riplinger, Bernardo de Souza, Georgi L. Stoychev 
                                                                 
  APM, Basis sets (HGBS, AHGBS, def-TZVP (Ac-Lr), def2-XVPD (La-Lu)), CI-OPT, improved COSX, DLPNO-Multilevel,           
  DOCKER, DRACO, updates on ESD, GOAT, IRC, LR-CPCM, MBIS, meta-GGA TD-DFT gradient, ML-optimized integration grids, 
  MM, NACMEs, nearIR, NEB, NEB-TS, NL-DFT gradient (VV10), 2- and 3-layer-ONIOM, interface openCOSMO-RS, QMMM,   
  Crystal-QMMM, SF, symmetry and pop. for TD-DFT, r2SCAN hybrids, SOLVATOR                                   
                                                                         
[Other institutions]                                                     
  V. Asgeirsson          : NEB                                           
  Christoph Bannwarth    : sTDA-DFT, sTD-DFT, PBEh-3c, B97-3c, D3        
  Sebastian Ehlert       : rSCAN, r2SCAN, r2SCAN-3c, D4, dhf basis sets  
  Marvin Friede          : D4 for Fr, Ra, Ac-Lr                          
  Lars Goerigk           : TD-DFT with DH, B97 family of functionals     
  Stefan Grimme          : VdW corrections, initial TS optimization, DFT functionals, gCP, sTDA/sTD-DF 
  Waldemar Hujo          : DFT-NL                                        
  H. Jonsson             : NEB                                           
  Holger Kruse           : gCP                                           
  Marcel Mueller         : wB97X-3c, vDZP basis set                      
  Hagen Neugebauer       : wr2SCAN                                       
  Tobias Risthaus        : range-separated hybrid DFT                    
  Lukas Wittmann         : regularized MP2, r2SCAN double-hybrids, wr2SCAN        
                                                                         
We gratefully acknowledge several colleagues who have allowed us to      
interface, adapt or use parts of their codes:                            
  Ed Valeev, F. Pavosevic, A. Kumar             : LibInt (2-el integral package), F12 methods 
  Garnet Chan, S. Sharma, J. Yang, R. Olivares  : DMRG                   
  Ulf Ekstrom                                   : XCFun DFT Library      
  Mihaly Kallay                                 : mrcc  (arbitrary order and MRCC methods)
  Frank Weinhold                                : gennbo (NPA and NBO analysis)           
  Simon Mueller                                 : openCOSMO-RS                            
  Christopher J. Cramer and Donald G. Truhlar   : smd solvation model                     
  S Lehtola, MJT Oliveira, MAL Marques          : LibXC Library                           
  Liviu Ungur et al                             : ANISO software                          


 Your calculation uses the libint2 library for the computation of 2-el integrals
 For citations please refer to: http://libint.valeyev.net

 Your ORCA version has been built with support for libXC version: 6.2.2
 For citations please refer to: https://libxc.gitlab.io

 This ORCA versions uses:
   CBLAS   interface :  Fast vector & matrix operations
   LAPACKE interface :  Fast linear algebra routines
   SCALAPACK package :  Parallel linear algebra routines
   Shared memory     :  Shared parallel matrices
   BLAS/LAPACK       :  OpenBLAS 0.3.27  USE64BITINT DYNAMIC_ARCH NO_AFFINITY Zen SINGLE_THREADED
        Core in use  :  Zen
   Copyright (c) 2011-2014, The OpenBLAS Project




***************************************
The coordinates will be read from file: xtb_opt.xyz
***************************************


Your calculation utilizes the geometrical counterpoise correction gCP
Please cite in your paper:
H.Kruse, S. Grimme J.Chem.Phys., 136, (2012), 154101 
   

Your calculation utilizes the atom-pairwise dispersion correction
based on EEQ partial charges (D4)


Your calculation utilizes the SMD solvation module
Please cite in your paper:
A.V. Marenich, C.J. Cramer, D.G. Truhlar J. Phys. Chem. B, 113, (2009), 6378 

================================================================================

----- Orbital basis set information -----
Your calculation utilizes the basis: def2-mTZVPP
   Stefan Grimme, Andreas Hansen, Sebastian Ehlert, and Jan-Michael Mewes 
   J. Chem. Phys. 154, 064103 (2021). DOI: 10.1063/5.0040021

----- AuxJ basis set information -----
Your calculation utilizes the auxiliary basis: def2/J
   F. Weigend, Phys. Chem. Chem. Phys. 8, 1057 (2006).

================================================================================
                                        WARNINGS
                       Please study these warnings very carefully!
================================================================================

WARNING: Old DensityContainer found on disk!
         Will remove this file - 
         If you want to keep old densities, please start your calculation with a different basename. 



WARNING: SCAN, rSCAN, or r2SCAN functional requested.
  ===> : libXC variant has now been activated.



================================================================================
                                       INPUT FILE
================================================================================
NAME = xtb_opt.inp
|  1> ! r2scan-3c def2/J RI DEFGRID2 scfconv7 ENGRAD tightSCF miniprint
|  2> %cpcm
|  3>     smd true
|  4>     smdsolvent "water"
|  5> end
|  6> * xyzfile 0 1 xtb_opt.xyz
|  7> 
|  8>                          ****END OF INPUT****
================================================================================

                     *******************************
                     * Energy+Gradient Calculation *
                     *******************************

---------------------------------
CARTESIAN COORDINATES (ANGSTROEM)
---------------------------------
  C     -3.836115   -0.158377   -1.981056
  C     -3.340289   -0.349131   -0.549149
  H     -3.627877   -1.339898   -0.182957
  C     -1.830644   -0.232540   -0.428603
  C     -1.167261    0.927856   -0.837681
  C      0.211864    1.028697   -0.721074
  C      0.987164   -0.011647   -0.187247
  C      0.286784   -1.150164    0.208815
  C     -1.085402   -1.283926    0.101557
  F      0.979252   -2.214057    0.697583
  C      2.453788    0.108288   -0.068050
  C      3.121063   -0.266020    1.106326
  C      4.498577   -0.109598    1.214850
  C      5.232602    0.415912    0.153504
  C      4.578547    0.788247   -1.018638
  C      3.200174    0.637670   -1.129280
  C     -3.965792    0.659339    0.393205
  O     -4.530487    1.684584    0.063186
  O     -3.805001    0.296132    1.687303
  H     -4.918910   -0.298520   -2.031125
  H     -3.599317    0.840367   -2.354613
  H     -3.359531   -0.894859   -2.632217
  H     -1.731962    1.763053   -1.240110
  H      0.712557    1.941412   -1.028667
  H     -1.559339   -2.205735    0.423189
  H      2.555094   -0.657820    1.944708
  H      4.999325   -0.394177    2.135018
  H      6.307846    0.535504    0.240119
  H      5.143834    1.193085   -1.852298
  H      2.696592    0.917397   -2.049648
  H     -4.193269    0.987973    2.251012

----------------------------
CARTESIAN COORDINATES (A.U.)
----------------------------
  NO LB      ZA    FRAG     MASS         X           Y           Z
   0 C     6.0000    0    12.011   -7.249207   -0.299290   -3.743653
   1 C     6.0000    0    12.011   -6.312231   -0.659761   -1.037741
   2 H     1.0000    0     1.008   -6.855693   -2.532041   -0.345739
   3 C     6.0000    0    12.011   -3.459415   -0.439436   -0.809942
   4 C     6.0000    0    12.011   -2.205804    1.753394   -1.582988
   5 C     6.0000    0    12.011    0.400366    1.943955   -1.362632
   6 C     6.0000    0    12.011    1.865469   -0.022009   -0.353845
   7 C     6.0000    0    12.011    0.541943   -2.173495    0.394603
   8 C     6.0000    0    12.011   -2.051112   -2.426268    0.191914
   9 F     9.0000    0    18.998    1.850517   -4.183962    1.318242
  10 C     6.0000    0    12.011    4.636988    0.204635   -0.128595
  11 C     6.0000    0    12.011    5.897954   -0.502705    2.090654
  12 C     6.0000    0    12.011    8.501079   -0.207110    2.295734
  13 C     6.0000    0    12.011    9.888184    0.785960    0.290080
  14 C     6.0000    0    12.011    8.652199    1.489571   -1.924947
  15 C     6.0000    0    12.011    6.047452    1.205021   -2.134029
  16 C     6.0000    0    12.011   -7.494260    1.245969    0.743050
  17 O     8.0000    0    15.999   -8.561379    3.183402    0.119404
  18 O     8.0000    0    15.999   -7.190410    0.559609    3.188541
  19 H     1.0000    0     1.008   -9.295393   -0.564121   -3.838270
  20 H     1.0000    0     1.008   -6.801723    1.588063   -4.449573
  21 H     1.0000    0     1.008   -6.348594   -1.691038   -4.974169
  22 H     1.0000    0     1.008   -3.272934    3.331687   -2.343467
  23 H     1.0000    0     1.008    1.346537    3.668737   -1.943899
  24 H     1.0000    0     1.008   -2.946723   -4.168234    0.799712
  25 H     1.0000    0     1.008    4.828428   -1.243100    3.674965
  26 H     1.0000    0     1.008    9.447356   -0.744887    4.034598
  27 H     1.0000    0     1.008   11.920102    1.011956    0.453758
  28 H     1.0000    0     1.008    9.720438    2.254604   -3.500336
  29 H     1.0000    0     1.008    5.095820    1.733628   -3.873274
  30 H     1.0000    0     1.008   -7.924130    1.866998    4.253796

------------------------------------------------------------------------------
                   ___                                                        
                  /   \      - P O W E R E D   B Y -                         
                 /     \                                                     
                 |  |  |   _    _      __       _____    __    __             
                 |  |  |  | |  | |    /  \     |  _  \  |  |  /  |          
                  \  \/   | |  | |   /    \    | | | |  |  | /  /          
                 / \  \   | |__| |  /  /\  \   | |_| |  |  |/  /          
                |  |  |   |  __  | /  /__\  \  |    /   |      \           
                |  |  |   | |  | | |   __   |  |    \   |  |\   \          
                \     /   | |  | | |  |  |  |  | |\  \  |  | \   \       
                 \___/    |_|  |_| |__|  |__|  |_| \__\ |__|  \__/        
                                                                              
                      - O R C A' S   B I G   F R I E N D -                    
                                      &                                       
                       - I N T E G R A L  F E E D E R -                       
                                                                              
 v1 FN, 2020, v2 2021, v3 2022-2024                                           
------------------------------------------------------------------------------


----------------------
SHARK INTEGRAL PACKAGE
----------------------

Number of atoms                             ...     31
Number of basis functions                   ...    422
Number of shells                            ...    204
Maximum angular momentum                    ...      2
Integral batch strategy                     ... SHARK/LIBINT Hybrid
RI-J (if used) integral strategy            ... SPLIT-RIJ (Revised 2003 algorithm where possible)
Printlevel                                  ...      1
Contraction scheme used                     ... SEGMENTED contraction
Prescreening option                         ... SCHWARTZ
   Thresh                                   ... 3.000e-11
   Tcut                                     ... 1.000e-12
   Tpresel                                  ... 1.000e-12 
Coulomb Range Separation                    ... NOT USED
Exchange Range Separation                   ... NOT USED
Multipole approximations                    ... NOT USED
Finite Nucleus Model                        ... NOT USED
CABS basis                                  ... NOT available
Auxiliary Coulomb fitting basis             ... AVAILABLE
   # of basis functions in Aux-J            ...   1025
   # of shells in Aux-J                     ...    335
   Maximum angular momentum in Aux-J        ...      4
Auxiliary J/K fitting basis                 ... NOT available
Auxiliary Correlation fitting basis         ... NOT available
Auxiliary 'external' fitting basis          ... NOT available

Checking pre-screening integrals            ... done (  0.0 sec) Dimension = 204
Check shell pair data                       ... done (  0.0 sec)
Shell pair information
Shell pair cut-off parameter TPreSel        ...   1.0e-12
Total number of shell pairs                 ...     20910
Shell pairs after pre-screening             ...     15210
Total number of primitive shell pairs       ...     77463
Primitive shell pairs kept                  ...     36418
          la=0 lb=0:   4682 shell pairs
          la=1 lb=0:   5836 shell pairs
          la=1 lb=1:   1813 shell pairs
          la=2 lb=0:   1666 shell pairs
          la=2 lb=1:   1050 shell pairs
          la=2 lb=2:    163 shell pairs

Calculating one electron integrals          ... done (  0.1 sec)
Calculating RI/J V-Matrix + Cholesky decomp.... done (  0.1 sec)
Calculating Nuclear repulsion               ... done (  0.0 sec) ENN=   1220.500184223913 Eh

Diagonalization of the overlap matrix:
Smallest eigenvalue                        ... 2.023e-05
Time for diagonalization                   ...    0.020 sec
Threshold for overlap eigenvalues          ... 1.000e-07
Number of eigenvalues below threshold      ... 0
Time for construction of square roots      ...    0.014 sec
Total time needed                          ...    0.036 sec

-------------------
DFT GRID GENERATION
-------------------

General Integration Accuracy     IntAcc      ... 4.388
Radial Grid Type                 RadialGrid  ... OptM3 with GC (2021)
Angular Grid (max. ang.)         AngularGrid ... 4 (Lebedev-302)
Angular grid pruning method      GridPruning ... 4 (adaptive)
Weight generation scheme         WeightScheme... mBecke (2022)
Basis function cutoff            BFCut       ... 1.0000e-11
Integration weight cutoff        WCut        ... 1.0000e-14
Partially contracted basis set               ... off
Rotationally invariant grid construction     ... off
Angular grids for H and He will be reduced by one unit
Diffuse basis detected: some atoms will have their outermost
                        angular grid increased by 1.

Total number of grid points                  ...   150028
Total number of batches                      ...     2360
Average number of points per batch           ...       63
Average number of grid points per atom       ...     4840
Initializing property integral containers    ... done (  0.0 sec)

SHARK setup successfully completed in   2.0 seconds

Maximum memory used throughout the entire STARTUP-calculation: 77.9 MB
Occupation numbers will be reassigned to an Aufbau configuration
             **** ENERGY FILE WAS UPDATED (xtb_opt.en.tmp) ****
Finished Guess after   0.2 sec
Maximum memory used throughout the entire GUESS-calculation: 39.9 MB
--------------------
CPCM SOLVATION MODEL
--------------------
CPCM parameters:
  Epsilon                                         ...      78.3550
  Refrac                                          ...       1.3328
  Rsolv                                           ...       1.3000
  Surface type                                    ... GAUSSIAN VDW
  Discretization scheme                           ... Constant charge density
    Threshold for H atoms                         ...       5.0000 (charges/Ang^2)
    Threshold for non-H atoms                     ...       5.0000 (charges/Ang^2)
  Epsilon function type                           ...         CPCM
Solvent:                                          ... WATER
SMD-CDS solvent descriptors:
  Soln                                            ...       1.3328
  Soln25                                          ...       1.3323
  Sola                                            ...       0.0000
  Solb                                            ...       0.0000
  Solg                                            ...       0.0000
  Solc                                            ...       0.0000
  Solh                                            ...       0.0000
Radii:
  Scheme                                          ... Element-dependent radii
  Radius for C  used is    3.4960 Bohr (=   1.8500 Ang.)
  Radius for H  used is    2.2677 Bohr (=   1.2000 Ang.)
  Radius for F  used is    3.2692 Bohr (=   1.7300 Ang.)
  Radius for O  used is    2.8724 Bohr (=   1.5200 Ang.)
Calculating surface                               ...        done! (  0.0s)
Cavity surface points                             ...         2392
Cavity Volume                                     ...    1643.1218
Cavity Surface-area                               ...     962.7760
Calculating surface distance matrix               ...        done! (  0.0s)
Performing Cholesky decomposition & store         ...        done! (  0.2s)
Overall time for CPCM initialization              ...                 0.2s

----------------------------------------D-I-I-S--------------------------------------------
Iteration    Energy (Eh)           Delta-E    RMSDP     MaxDP     DIISErr   Damp  Time(sec)
-------------------------------------------------------------------------------------------
               ***  Starting incremental Fock matrix formation  ***
                              *** Initializing SOSCF ***
---------------------------------------S-O-S-C-F--------------------------------------
Iteration    Energy (Eh)           Delta-E    RMSDP     MaxDP     MaxGrad    Time(sec)
--------------------------------------------------------------------------------------
    1    -829.6030065880390794     0.00e+00  1.11e-06  4.55e-05  9.06e-07     8.4
               *** Restarting incremental Fock matrix formation ***
    2    -829.6030065880663642    -2.73e-11  3.04e-07  1.15e-05  1.24e-06     8.3
                  *** Gradient check signals convergence ***

               *****************************************************
               *                     SUCCESS                       *
               *           SCF CONVERGED AFTER   2 CYCLES          *
               *****************************************************


SMD CDS free energy correction energy :                 7.38968     Kcal/mol
Total Energy after SMD CDS correction =              -829.591230382 Eh
             **** ENERGY FILE WAS UPDATED (xtb_opt.en.tmp) ****

----------------
TOTAL SCF ENERGY
----------------

Total Energy       :       -829.59123038213875 Eh          -22574.32504 eV

Components:
Nuclear Repulsion  :       1220.50018422391349 Eh           33211.49845 eV
Electronic Energy  :      -2050.07359661097416 Eh          -55785.33864 eV
One Electron Energy:      -3553.31149119457541 Eh          -96690.52133 eV
Two Electron Energy:       1503.23789458360102 Eh           40905.18269 eV
CPCM Dielectric    :         -0.02959420100567 Eh              -0.80530 eV
SMD CDS (Gcds)     :          0.01177620592758 Eh               0.32045 eV

Virial components:
Potential Energy   :      -1655.62083655308061 Eh          -45051.73335 eV
Kinetic Energy     :        826.02960617094197 Eh           22477.40831 eV
Virial Ratio       :          2.00431173917326

DFT components:
N(Alpha)           :       63.999961165606 electrons
N(Beta)            :       63.999961165606 electrons
N(Total)           :      127.999922331212 electrons
E(X)               :     -109.417057566649 Eh       
E(C)               :       -4.196996906261 Eh       
E(XC)              :     -113.614054472910 Eh       

CPCM Solvation Model Properties:
Surface-charge          :         -0.05483511123324
Corrected charge        :          0.00000000000000
Outlying charge corr.   :          0.00017734151727 Eh               0.00483 eV
Free-energy (cav+disp)  :          0.01177620592758 Eh               0.32045 eV

---------------
SCF CONVERGENCE
---------------

  Last Energy change         ...    2.7285e-11  Tolerance :   1.0000e-07
  Last MAX-Density change    ...    1.1495e-05  Tolerance :   1.0000e-07
  Last RMS-Density change    ...    3.0403e-07  Tolerance :   5.0000e-09
  Last DIIS Error            ...    6.8192e-06  Tolerance :   1.0000e-07
  Last Orbital Gradient      ...    1.2350e-06  Tolerance :   1.0000e-04
  Last Orbital Rotation      ...    6.1033e-06  Tolerance :   1.0000e-04


----------------
ORBITAL ENERGIES
----------------

  NO   OCC          E(Eh)            E(eV) 
   0   2.0000     -24.503070      -666.7624 
   1   2.0000     -19.003142      -517.1018 
   2   2.0000     -18.954581      -515.7804 
   3   2.0000     -10.175347      -276.8853 
   4   2.0000     -10.126089      -275.5449 
   5   2.0000     -10.062275      -273.8084 
   6   2.0000     -10.060807      -273.7685 
   7   2.0000     -10.058992      -273.7191 
   8   2.0000     -10.056107      -273.6406 
   9   2.0000     -10.047461      -273.4053 
  10   2.0000     -10.045436      -273.3502 
  11   2.0000     -10.040561      -273.2175 
  12   2.0000     -10.040034      -273.2032 
  13   2.0000     -10.039900      -273.1996 
  14   2.0000     -10.038704      -273.1670 
  15   2.0000     -10.038539      -273.1625 
  16   2.0000     -10.037841      -273.1435 
  17   2.0000     -10.023627      -272.7568 
  18   2.0000      -1.189074       -32.3564 
  19   2.0000      -1.075370       -29.2623 
  20   2.0000      -0.990154       -26.9435 
  21   2.0000      -0.849781       -23.1237 
  22   2.0000      -0.827261       -22.5109 
  23   2.0000      -0.784075       -21.3358 
  24   2.0000      -0.740443       -20.1485 
  25   2.0000      -0.723323       -19.6826 
  26   2.0000      -0.716541       -19.4981 
  27   2.0000      -0.690312       -18.7844 
  28   2.0000      -0.644048       -17.5254 
  29   2.0000      -0.604337       -16.4449 
  30   2.0000      -0.596983       -16.2447 
  31   2.0000      -0.570997       -15.5376 
  32   2.0000      -0.561689       -15.2843 
  33   2.0000      -0.547276       -14.8921 
  34   2.0000      -0.507919       -13.8212 
  35   2.0000      -0.490964       -13.3598 
  36   2.0000      -0.477762       -13.0006 
  37   2.0000      -0.463518       -12.6130 
  38   2.0000      -0.456722       -12.4280 
  39   2.0000      -0.449851       -12.2411 
  40   2.0000      -0.441419       -12.0116 
  41   2.0000      -0.435106       -11.8398 
  42   2.0000      -0.418646       -11.3919 
  43   2.0000      -0.411006       -11.1840 
  44   2.0000      -0.405286       -11.0284 
  45   2.0000      -0.391626       -10.6567 
  46   2.0000      -0.387664       -10.5489 
  47   2.0000      -0.382173       -10.3995 
  48   2.0000      -0.373478       -10.1628 
  49   2.0000      -0.368735       -10.0338 
  50   2.0000      -0.353401        -9.6165 
  51   2.0000      -0.349900        -9.5213 
  52   2.0000      -0.340709        -9.2712 
  53   2.0000      -0.332139        -9.0380 
  54   2.0000      -0.328571        -8.9409 
  55   2.0000      -0.317649        -8.6437 
  56   2.0000      -0.311865        -8.4863 
  57   2.0000      -0.304228        -8.2785 
  58   2.0000      -0.303359        -8.2548 
  59   2.0000      -0.268011        -7.2929 
  60   2.0000      -0.254636        -6.9290 
  61   2.0000      -0.242022        -6.5858 
  62   2.0000      -0.239724        -6.5232 
  63   2.0000      -0.217037        -5.9059 
  64   0.0000      -0.065661        -1.7867 
  65   0.0000      -0.042273        -1.1503 
  66   0.0000      -0.037368        -1.0168 
  67   0.0000      -0.030487        -0.8296 
  68   0.0000      -0.011284        -0.3070 
  69   0.0000       0.057705         1.5702 
  70   0.0000       0.068697         1.8693 
  71   0.0000       0.092433         2.5152 
  72   0.0000       0.099321         2.7027 
  73   0.0000       0.102035         2.7765 
  74   0.0000       0.107932         2.9370 
*Only the first 10 virtual orbitals were printed.
Total SCF time: 0 days 0 hours 0 min 19 sec 
Finished LeanSCF after  28.7 sec

Maximum memory used throughout the entire LEANSCF-calculation: 78.4 MB


-------------------------------------------------------------------------------
                          DFT DISPERSION CORRECTION                            
                                                                               
                                DFTD4 V3.4.0                                   
-------------------------------------------------------------------------------
-------------------------   ----------------
Dispersion correction           -0.013336428
-------------------------   ----------------

------------------   -----------------
gCP correction             0.010396414
------------------   -----------------

-------------------------   --------------------
FINAL SINGLE POINT ENERGY      -829.594170395269
-------------------------   --------------------

------------------------------------------------------------------------------
                         ORCA SCF GRADIENT CALCULATION
------------------------------------------------------------------------------

Nuc. rep. gradient        (SHARK) ... done (  0.0 sec)
HCore & Overlap gradient  (SHARK) ... done (  1.2 sec)
Split-RIJ-J gradient      (SHARK) ... done (  6.7 sec)
XC gradient                       ... done ( 15.9 sec)
CPCM gradient                     ... done (  6.5 sec)
SMD gradient                      ... done (  0.0 sec)
Dispersion correction             ... done (  0.0 sec)

-------------------
DISPERSION GRADIENT
-------------------

   1   C   :   -0.000086624   -0.000013684   -0.000095177
   2   C   :   -0.000094340   -0.000022937   -0.000016964
   3   H   :   -0.000039673   -0.000026186    0.000002821
   4   C   :   -0.000048783   -0.000023932   -0.000013120
   5   C   :   -0.000013124    0.000082882   -0.000050244
   6   C   :    0.000015715    0.000100203   -0.000047982
   7   C   :    0.000010805   -0.000006446   -0.000002051
   8   C   :    0.000006142   -0.000105658    0.000033932
   9   C   :   -0.000010783   -0.000121252    0.000028848
  10   F   :   -0.000001593   -0.000103469    0.000037435
  11   C   :    0.000066264    0.000004904    0.000004327
  12   C   :    0.000078071   -0.000022722    0.000088134
  13   C   :    0.000106096   -0.000006414    0.000071104
  14   C   :    0.000103947    0.000012338    0.000008597
  15   C   :    0.000110682    0.000032871   -0.000054299
  16   C   :    0.000084106    0.000041638   -0.000077650
  17   C   :   -0.000111967    0.000035267    0.000048180
  18   O   :   -0.000091040    0.000071808    0.000028734
  19   O   :   -0.000092570    0.000025274    0.000114861
  20   H   :   -0.000036359   -0.000008306   -0.000032337
  21   H   :   -0.000037298    0.000007397   -0.000041264
  22   H   :   -0.000035769   -0.000020406   -0.000053426
  23   H   :   -0.000001944    0.000053537   -0.000024620
  24   H   :   -0.000004321    0.000059629   -0.000022146
  25   H   :    0.000001571   -0.000065995    0.000020954
  26   H   :    0.000017090   -0.000019301    0.000055597
  27   H   :    0.000029038   -0.000008124    0.000037069
  28   H   :    0.000040651    0.000004724    0.000003367
  29   H   :    0.000031658    0.000015229   -0.000031827
  30   H   :    0.000025315    0.000020331   -0.000054266
  31   H   :   -0.000020964    0.000006799    0.000033416

Difference to translation invariance:
           :   -0.0000000000   -0.0000000000   -0.0000000000

Difference to rotation invariance:
           :    0.0000000000    0.0000000000    0.0000000000

Norm of the Dispersion gradient    ...    0.0005122697
RMS gradient                       ...    0.0000531199
MAX gradient                       ...    0.0001212518
gCP correction                   ... done

------------------
CARTESIAN GRADIENT
------------------

   1   C   :   -0.000347319    0.000142421   -0.000637230
   2   C   :    0.000431337   -0.000093540    0.000607455
   3   H   :   -0.000054934    0.000044008   -0.000024406
   4   C   :   -0.000319722   -0.000041194   -0.000075835
   5   C   :    0.000038314    0.000027315    0.000030657
   6   C   :   -0.000161314    0.000025142   -0.000052053
   7   C   :    0.000249852   -0.000119272    0.000074164
   8   C   :   -0.000206782    0.000469395   -0.000178488
   9   C   :    0.000065103    0.000001111   -0.000037550
  10   F   :    0.000101750   -0.000319276    0.000235608
  11   C   :   -0.000166725   -0.000010580   -0.000063712
  12   C   :    0.000135901   -0.000001779    0.000070037
  13   C   :    0.000035882    0.000045867   -0.000029728
  14   C   :   -0.000068151    0.000023356    0.000024162
  15   C   :   -0.000068028   -0.000063857    0.000003834
  16   C   :    0.000108973   -0.000015136   -0.000100458
  17   C   :   -0.000358505    0.000672262   -0.001491493
  18   O   :    0.000189245   -0.000082364    0.000244225
  19   O   :    0.000339245   -0.000593421    0.001125630
  20   H   :    0.000421685   -0.000186310    0.000051622
  21   H   :   -0.000186240   -0.000197374    0.000101577
  22   H   :   -0.000023026    0.000262591    0.000202005
  23   H   :    0.000041119    0.000017018    0.000026456
  24   H   :    0.000037590   -0.000041231    0.000031315
  25   H   :    0.000007293    0.000003920    0.000016762
  26   H   :   -0.000108269   -0.000004321   -0.000093028
  27   H   :   -0.000064022    0.000018718    0.000010115
  28   H   :   -0.000018594    0.000047470    0.000018522
  29   H   :    0.000053694   -0.000026700    0.000029006
  30   H   :   -0.000024279   -0.000074146   -0.000011590
  31   H   :   -0.000081071    0.000069907   -0.000107579

Difference to translation invariance:
           :   -0.0000000000    0.0000000000    0.0000000000

Difference to rotation invariance:
           :   -0.0006286401   -0.0001703301   -0.0003122228

Norm of the Cartesian gradient     ...    0.0026504839
RMS gradient                       ...    0.0002748424
MAX gradient                       ...    0.0014914931

-------
TIMINGS
-------

Total SCF gradient time     ....       30.360 sec

Densities                   ....       0.003 sec  (  0.0%)
One electron gradient       ....       1.154 sec  (  3.8%)
RI-J Coulomb gradient       ....       6.704 sec  ( 22.1%)
XC gradient                 ....      15.940 sec  ( 52.5%)
CPCM gradient               ....       6.507 sec  ( 21.4%)
   A-Matrix (El+Nuc)        ....       0.214 sec  (  0.7%)
   Potential                ....       6.293 sec  ( 20.7%)
SMD gradient                ....       0.004 sec  (  0.0%)

Maximum memory used throughout the entire SCFGRAD-calculation: 64.3 MB

------------------------------------------------------------------------------
                              ORCA PROPERTY CALCULATIONS
------------------------------------------------------------------------------

GBWName                                 ... xtb_opt.gbw
Number of atoms                         ...     31
Number of basis functions               ...    422
Max core memory                         ...   1024 MB

Electric properties:
Dipole moment                           ... YES
Quadrupole moment                       ...  NO
Static polarizability (Dipole/Dipole)   ...  NO
Static polarizability (Dipole/Quad.)    ...  NO
Static polarizability (Quad./Quad.)     ...  NO
Static polarizability (Velocity)        ...  NO

Atomic electric properties:
Dipole moment                           ...  NO
Quadrupole moment                       ...  NO
Static polarizability                   ...  NO

Choice of electric origin               ... Center of mass
Position of electric origin             ...    -0.023918     0.031719    -0.078302

General magnetic properties:
Magnetizability                         ...  NO

EPR properties:
g-Tensor (aka g-matrix)                 ...  NO
Zero-Field splitting spin-orbit         ...  NO
Zero-field splitting spin-spin          ...  NO
Hyperfine couplings                     ...  NO (   0 nuclei)
Quadrupole couplings                    ...  NO (   0 nuclei)
Contact density                         ...  NO (   0 nuclei)

NMR properties:
Chemical shifts                         ...  NO (   0 nuclei)
Spin-rotation constants                 ...  NO (   0 nuclei)
Spin-spin couplings                     ...  NO (   0 nuclei,    0 pairs)

Choice of magnetic origin               ... GIAO
Position of magnetic origin             ...     0.000000     0.000000     0.000000

Properties with geometric perturbations:
SCF Hessian                             ...  NO
IR spectrum                             ...  NO
VCD spectrum                            ...  NO
X-ray spectroscopy properties:
SCF XES/XAS/RIXS spectra                ...  NO


-------------
DIPOLE MOMENT
-------------

Method             : SCF
Type of density    : Electron Density
Multiplicity       :   1
Irrep              :   0
Energy             :  -829.5912303821387468 Eh
Relativity type    : 
Basis              : AO
                                X                 Y                 Z
Electronic contribution:      1.505984819      -4.280448725       6.212055349
Nuclear contribution   :     -1.426979136       4.131190260      -6.135556332
                        -----------------------------------------
Total Dipole Moment    :      0.079005684      -0.149258465       0.076499017
                        -----------------------------------------
Magnitude (a.u.)       :      0.185397106
Magnitude (Debye)      :      0.471241994



--------------------
Rotational spectrum 
--------------------
 
Rotational constants in cm-1:             0.036443             0.006324             0.006050 
Rotational constants in MHz :          1092.528526           189.603654           181.378702 

Dipole components along the rotational axes: 
x,y,z [a.u.] :     0.086884    -0.158196    -0.042394 
x,y,z [Debye]:     0.220842    -0.402102    -0.107757 

 

Dipole moment calculation done in   2.7 sec 

Maximum memory used throughout the entire PROP-calculation: 37.6 MB

--------------------------------
SUGGESTED CITATIONS FOR THIS RUN
--------------------------------

Below you find a list of papers that are relevant to this ORCA run
We neither can nor want to force you to cite these papers, but we appreciate if you do
You receive ORCA, which is the product of decades of hard work by many enthusiastic individuals, for free
The only thing we kindly ask in return is that you cite our papers,
We deeply appreciate it, if you show your appreciation for ORCA by not just citing the generic ORCA reference.

Please note that relegating all ORCA citations to the supporting information does *not* help us.
SI sections are not indexed - citations you put there will not count into any citation statistics
But we need these citations in order to attract the funding resources that allow us to do what we are doing

Therefore, if you are a happy ORCA user, please consider citing a few of the papers listed below in the main body of your paper

In addition to the list printed below, the program has created the file xtb_opt.bibtex that contains the list in bibtex format
You can import this file easily into all common literature databanks and citation aid programs


List of essential papers. We consider these as the minimum necessary citations

  1. Neese,F.
     Software update: the ORCA program system, version 5.0
     WIRES Comput. Molec. Sci., 2022 12(1)e1606
     doi.org/10.1002/wcms.1606
  2. Grimme,S.; Hansen,A.; Ehlert,S.; Mewes,J.
     r2SCAN-3c: A 'Swiss army knife' composite electronic-structure method
     J. Chem. Phys., 2021 154 064103
     doi.org/10.1063/5.0040021

List of papers to cite with high priority. The work reported in these papers was absolutely
necessary for this run to complete.
Our perspective: the developers of density functionals and basis sets usually get cited in chemistry papers
Good! But without the algorithms to do something with them, the functionals or basis sets would not do anything.
Hence, in our opinion, the algorithm design and method developments papers are equally worthy of getting cited

  1. Neese,F.
     An improvement of the resolution of the identity approximation for the formation of the Coulomb matrix
     J. Comp. Chem., 2003 24(14)1740-1747
     doi.org/10.1002/jcc.10318
  2. Garcia-Rates,M.; Neese,F.
     Effect of the Solute Cavity on the Solvation Energy and its Derivatives within the Framework of the Gaussian Charge Scheme
     J. Comput. Chem., 2020 41 922-939
     doi.org/10.1002/jcc.26139
  3. Neese,F.
     The SHARK Integral Generation and Digestion System
     J. Comp. Chem., 2022  1-16
     doi.org/10.1002/jcc.26942
  4. Lehtola,S.; Steigemann,C.; Oliveira,M.; Marques,M.
     Recent developments in Libxc - A comprehensive library of functionals for density functional theory
     Software X, 2018 7 
     doi.org/10.1016/j.softx.2017.11.002
  5. Caldeweyher,E.; Bannwarth,C.; Grimme,S.
     Extension of the D3 dispersion coefficient model
     J. Chem. Phys., 2017 147 034112
     doi.org/10.1063/1.4993215
  6. Caldeweyher,E.; Ehlert,S.; Hansen,A.; Neugebauer,H.; Spicher,S.; Bannwarth,C.; Grimme,S.
     A generally applicable atomic-charge dependent London dispersion correction
     J. Chem. Phys., 2019 150 154122
     doi.org/10.1063/1.5090222
  7. Caldeweyher,E.; Mewes,J.; Ehlert,S.; Grimme,S.
     Extension and evaluation of the D4 London-dispersion model for periodic systems
     Phys. Chem. Chem. Phys., 2020 22(16)8499-8512
     doi.org/10.1039/D0CP00502A
  8. Wittmann,L.; Gordiy,I.; Friede,M.; Helmich-Paris,B.; Grimme,S.; Hansen,A.; Bursch,M.
     Extension of the D3 and D4 London Dispersion Corrections to the full Actinides Series
     Phys. Chem. Chem. Phys., 2024 26(32)21379-21394
     doi.org/https://doi.org/10.1039/D4CP01514B 

List of suggested additional citations. These are papers that are important in the 'surrounding' of 
of this run, or papers that preceded the highly important papers. If you like your results we are grateful for a citation.

  1. Neese,F.
     The ORCA program system
     WIRES Comput. Molec. Sci., 2012 2(1)73-78
     doi.org/10.1002/wcms.81
  2. Neese,F.
     Software update: the ORCA program system, version 4.0
     WIRES Comput. Molec. Sci., 2018 8(1)1-6
     doi.org/10.1002/wcms.1327
  3. Neese,F.; Wennmohs,F.; Becker,U.; Riplinger,C.
     The ORCA quantum chemistry program package
     J. Chem. Phys., 2020 152 Art. No. L224108
     doi.org/10.1063/5.0004608

List of optional additional citations

  1. Neese,F.
     Approximate second-order SCF convergence for spin unrestricted wavefunctions
     Chem. Phys. Lett., 2000 325(1-3)93-98
     doi.org/10.1016/s0009-2614(00)00662-x

Timings for individual modules:

Sum of individual times          ...       66.708 sec (=   1.112 min)
Startup calculation              ...        2.065 sec (=   0.034 min)   3.1 %
SCF iterations                   ...       28.933 sec (=   0.482 min)  43.4 %
Property calculations            ...        2.793 sec (=   0.047 min)   4.2 %
SCF Gradient evaluation          ...       32.917 sec (=   0.549 min)  49.3 %
                             ****ORCA TERMINATED NORMALLY****
TOTAL RUN TIME: 0 days 0 hours 1 minutes 18 seconds 986 msec
  ------------------------------------------------------------------------
          * successful ORCA run, taking over control again...

         :::::::::::::::::::::::::::::::::::::::::::::::::::::
         ::                  ORCA SUMMARY                   ::
         :::::::::::::::::::::::::::::::::::::::::::::::::::::
         :: total energy            -829.594170395269 Eh    ::
         :: gradient norm              0.002650483860 Eh/a0 ::
         :: HOMO-LUMO gap              0.000000000000 eV    ::
         :::::::::::::::::::::::::::::::::::::::::::::::::::::

      ----------------------------------------------------------- 
     |                       L-ANC optimizer                     |
      ----------------------------------------------------------- 
          low memory version by Sebastian Ehlert

          ...................................................
          :                      SETUP                      :
          :.................................................:
          :   energy convergence        0.5000000E-05 Eh    :
          :   grad. convergence         0.1000000E-02 Eh/a0 :
          :   optimization log               true           :
          :   writing optlog all                1     steps :
          :   Hessian reset                     8     steps :
          :   maximium step len.        1.0000000     a0    :
          :   LBFGS images                      8           :
          ...................................................
 * calculating model hessian...
Using Lindh-Hessian (1995)
 Shifting diagonal of input Hessian by   1.000000000000000E-002
 Lowest  eigenvalues of input Hessian
    0.000000    0.000000    0.000000    0.000000    0.000000    0.000000
    0.010478    0.011083    0.011977    0.012832    0.012950    0.015858
    0.016556    0.019148    0.020627    0.021764    0.024554    0.024664
 Highest eigenvalues
    1.869799    1.934888    1.950529    2.013034    2.065805    2.285309
 

........................................................................
.............................. CYCLE    1 ..............................
........................................................................
                         * ORCA takes the control...
  ------------------------------------------------------------------------

                                 *****************
                                 * O   R   C   A *
                                 *****************

                                            #,                                       
                                            ###                                      
                                            ####                                     
                                            #####                                    
                                            ######                                   
                                           ########,                                 
                                     ,,################,,,,,                         
                               ,,#################################,,                 
                          ,,##########################################,,             
                       ,#########################################, ''#####,          
                    ,#############################################,,   '####,        
                  ,##################################################,,,,####,       
                ,###########''''           ''''###############################       
              ,#####''   ,,,,##########,,,,          '''####'''          '####       
            ,##' ,,,,###########################,,,                        '##       
           ' ,,###''''                  '''############,,,                           
         ,,##''                                '''############,,,,        ,,,,,,###''
      ,#''                                            '''#######################'''  
     '                                                          ''''####''''         
             ,#######,   #######,   ,#######,      ##                                
            ,#'     '#,  ##    ##  ,#'     '#,    #''#        ,####,   ,####,        
            ##       ##  ##   ,#'  ##            #'  '#       #'       #'  '#        
            ##       ##  #######   ##           ,######,      #####,   #    #        
            '#,     ,#'  ##    ##  '#,     ,#' ,#      #,     #,   #   #,  ,#        
             '#######'   ##     ##  '#######'  #'      '#     '####' # '####'        



                #########################################################
                #                        -***-                          #
                #          Department of theory and spectroscopy        #
                #                                                       #
                #                      Frank Neese                      #
                #                                                       #
                #     Directorship, Architecture, Infrastructure        #
                #                    SHARK, DRIVERS                     #
                #        Core code/Algorithms in most modules           #
                #                                                       #
                #        Max Planck Institute fuer Kohlenforschung      #
                #                Kaiser Wilhelm Platz 1                 #
                #                 D-45470 Muelheim/Ruhr                 #
                #                      Germany                          #
                #                                                       #
                #                  All rights reserved                  #
                #                        -***-                          #
                #########################################################


                         Program Version 6.0.1  -  RELEASE   -


 With contributions from (in alphabetic order):
[Max-Planck-Institut fuer Kohlenforschung]                               
  Daniel Aravena         : Magnetic Suceptibility                        
  Michael Atanasov       : Ab Initio Ligand Field Theory (pilot matlab implementation)
  Alexander A. Auer      : GIAO ZORA, VPT2 properties, NMR spectrum      
  Ute Becker             : All parallelization in ORCA, NUMFREQ, NUMCALC 
  Giovanni Bistoni       : ED, misc. LED, open-shell LED, HFLD           
  Martin Brehm           : Molecular dynamics                            
  Dmytro Bykov           : pre 5.0 version of the SCF Hessian            
  Marcos Casanova-Páez   : Triplet and SCS-CIS(D). UHF-(DLPNO)-IP/EA/STEOM-CCSD. UHF-CVS-IP/STEOM-CCSD   
  Vijay G. Chilkuri      : MRCI spin determinant printing, contributions to CSF-ICE 
  Pauline Colinet        : FMM embedding                                 
  Dipayan Datta          : RHF DLPNO-CCSD density                        
  Achintya Kumar Dutta   : EOM-CC, STEOM-CC                              
  Nicolas Foglia         : Exact transition moments, OPA infrastructure, MCD improvements    
  Dmitry Ganyushin       : Spin-Orbit,Spin-Spin,Magnetic field MRCI      
  Miquel Garcia-Rates    : C-PCM and meta-GGA Hessian, CCSD/C-PCM, Gaussian charge scheme 
  Tiago L. C. Gouveia    : GS-ROHF, GS-ROCIS                             
  Yang Guo               : DLPNO-NEVPT2, F12-NEVPT2, CIM, IAO-localization        
  Andreas Hansen         : Spin unrestricted coupled pair/coupled cluster methods 
  Ingolf Harden          : AUTO-CI MPn and infrastructure                
  Benjamin Helmich-Paris : MC-RPA, TRAH-(SCF,CASSCF), AVAS, COSX integrals, SCF dyn. polar. 
  Lee Huntington         : MR-EOM, pCC                                   
  Robert Izsak           : Overlap fitted RIJCOSX, COSX-SCS-MP3, EOM     
  Riya Kayal             : Wick's Theorem for AUTO-CI, AUTO-CI UHF-CCSDT 
  Emily Kempfer          : AUTO-CI, RHF CISDT and CCSDT                  
  Christian Kollmar      : KDIIS, OOCD, Brueckner-CCSD(T), CCSD density, CASPT2, CASPT2-K, improved NEVPT2 
  Axel Koslowski         : Symmetry handling                             
  Simone Kossmann        : meta-GGA functionals, TD-DFT gradient, OOMP2, (MP2 Hessian; deprecated post 5.0) 
  Lucas Lang             : DCDCAS                                        
  Marvin Lechner         : AUTO-CI (C++ implementation), FIC-MRCC        
  Spencer Leger          : CASSCF response                               
  Dagmar Lenk            : GEPOL surface, SMD, ORCA-2-JSON               
  Dimitrios Liakos       : Extrapolation schemes; Compound Job, initial MDCI parallelization 
  Dimitrios Manganas     : Further ROCIS development; embedding schemes. LFT, Crystal Embedding 
  Dimitrios Pantazis     : SARC Basis sets                               
  Anastasios Papadopoulos: AUTO-CI, single reference methods and gradients 
  Taras Petrenko         : pre 6.0 DFT Hessian and TD-DFT gradient, (ASA, deprecated), ECA, 1-Electron XAS/XES, NRVS 
  Peter Pinski           : DLPNO-MP2, DLPNO-MP2 Gradient                 
  Christoph Reimann      : Effective Core Potentials                     
  Marius Retegan         : Local ZFS, SOC                                
  Christoph Riplinger    : Optimizer, TS searches, QM/MM, DLPNO-CCSD(T), (RO)-DLPNO pert. Triples 
  Michael Roemelt        : Original ROCIS implementation                 
  Masaaki Saitow         : Open-shell DLPNO-CCSD energy and density      
  Barbara Sandhoefer     : DKH picture change effects                    
  Kantharuban Sivalingam : CASSCF convergence/infrastructure, NEVPT2 and variants, FIC-MRCI 
  Bernardo de Souza      : ESD, SOC TD-DFT                               
  Georgi L. Stoychev     : AutoAux, RI-MP2 NMR, DLPNO-MP2 response, X2C  
  Van Anh Tran           : RI-MP2 g-tensors                              
  Willem Van den Heuvel  : Paramagnetic NMR                              
  Zikuan Wang            : NOTCH, Electric field optimization            
  Frank Wennmohs         : Technical directorship and infrastructure     
  Hang Xu                : AUTO-CI-Response properties                   
                                                                         
[FACCTs GmbH]                                                            
  Markus Bursch, Miquel Garcia-Rates, Christoph Riplinger, Bernardo de Souza, Georgi L. Stoychev 
                                                                 
  APM, Basis sets (HGBS, AHGBS, def-TZVP (Ac-Lr), def2-XVPD (La-Lu)), CI-OPT, improved COSX, DLPNO-Multilevel,           
  DOCKER, DRACO, updates on ESD, GOAT, IRC, LR-CPCM, MBIS, meta-GGA TD-DFT gradient, ML-optimized integration grids, 
  MM, NACMEs, nearIR, NEB, NEB-TS, NL-DFT gradient (VV10), 2- and 3-layer-ONIOM, interface openCOSMO-RS, QMMM,   
  Crystal-QMMM, SF, symmetry and pop. for TD-DFT, r2SCAN hybrids, SOLVATOR                                   
                                                                         
[Other institutions]                                                     
  V. Asgeirsson          : NEB                                           
  Christoph Bannwarth    : sTDA-DFT, sTD-DFT, PBEh-3c, B97-3c, D3        
  Sebastian Ehlert       : rSCAN, r2SCAN, r2SCAN-3c, D4, dhf basis sets  
  Marvin Friede          : D4 for Fr, Ra, Ac-Lr                          
  Lars Goerigk           : TD-DFT with DH, B97 family of functionals     
  Stefan Grimme          : VdW corrections, initial TS optimization, DFT functionals, gCP, sTDA/sTD-DF 
  Waldemar Hujo          : DFT-NL                                        
  H. Jonsson             : NEB                                           
  Holger Kruse           : gCP                                           
  Marcel Mueller         : wB97X-3c, vDZP basis set                      
  Hagen Neugebauer       : wr2SCAN                                       
  Tobias Risthaus        : range-separated hybrid DFT                    
  Lukas Wittmann         : regularized MP2, r2SCAN double-hybrids, wr2SCAN        
                                                                         
We gratefully acknowledge several colleagues who have allowed us to      
interface, adapt or use parts of their codes:                            
  Ed Valeev, F. Pavosevic, A. Kumar             : LibInt (2-el integral package), F12 methods 
  Garnet Chan, S. Sharma, J. Yang, R. Olivares  : DMRG                   
  Ulf Ekstrom                                   : XCFun DFT Library      
  Mihaly Kallay                                 : mrcc  (arbitrary order and MRCC methods)
  Frank Weinhold                                : gennbo (NPA and NBO analysis)           
  Simon Mueller                                 : openCOSMO-RS                            
  Christopher J. Cramer and Donald G. Truhlar   : smd solvation model                     
  S Lehtola, MJT Oliveira, MAL Marques          : LibXC Library                           
  Liviu Ungur et al                             : ANISO software                          


 Your calculation uses the libint2 library for the computation of 2-el integrals
 For citations please refer to: http://libint.valeyev.net

 Your ORCA version has been built with support for libXC version: 6.2.2
 For citations please refer to: https://libxc.gitlab.io

 This ORCA versions uses:
   CBLAS   interface :  Fast vector & matrix operations
   LAPACKE interface :  Fast linear algebra routines
   SCALAPACK package :  Parallel linear algebra routines
   Shared memory     :  Shared parallel matrices
   BLAS/LAPACK       :  OpenBLAS 0.3.27  USE64BITINT DYNAMIC_ARCH NO_AFFINITY Zen SINGLE_THREADED
        Core in use  :  Zen
   Copyright (c) 2011-2014, The OpenBLAS Project




***************************************
The coordinates will be read from file: xtb_opt.xyz
***************************************


Your calculation utilizes the geometrical counterpoise correction gCP
Please cite in your paper:
H.Kruse, S. Grimme J.Chem.Phys., 136, (2012), 154101 
   

Your calculation utilizes the atom-pairwise dispersion correction
based on EEQ partial charges (D4)


Your calculation utilizes the SMD solvation module
Please cite in your paper:
A.V. Marenich, C.J. Cramer, D.G. Truhlar J. Phys. Chem. B, 113, (2009), 6378 

================================================================================

----- Orbital basis set information -----
Your calculation utilizes the basis: def2-mTZVPP
   Stefan Grimme, Andreas Hansen, Sebastian Ehlert, and Jan-Michael Mewes 
   J. Chem. Phys. 154, 064103 (2021). DOI: 10.1063/5.0040021

----- AuxJ basis set information -----
Your calculation utilizes the auxiliary basis: def2/J
   F. Weigend, Phys. Chem. Chem. Phys. 8, 1057 (2006).

================================================================================
                                        WARNINGS
                       Please study these warnings very carefully!
================================================================================

WARNING: Old DensityContainer found on disk!
         Will remove this file - 
         If you want to keep old densities, please start your calculation with a different basename. 



WARNING: SCAN, rSCAN, or r2SCAN functional requested.
  ===> : libXC variant has now been activated.



================================================================================
                                       INPUT FILE
================================================================================
NAME = xtb_opt.inp
|  1> ! r2scan-3c def2/J RI DEFGRID2 scfconv7 ENGRAD tightSCF miniprint
|  2> %cpcm
|  3>     smd true
|  4>     smdsolvent "water"
|  5> end
|  6> * xyzfile 0 1 xtb_opt.xyz
|  7> 
|  8>                          ****END OF INPUT****
================================================================================

                     *******************************
                     * Energy+Gradient Calculation *
                     *******************************

---------------------------------
CARTESIAN COORDINATES (ANGSTROEM)
---------------------------------
  C     -3.835792   -0.158847   -1.980760
  C     -3.340529   -0.349681   -0.549091
  H     -3.627903   -1.340415   -0.182563
  C     -1.830554   -0.232903   -0.428164
  C     -1.167448    0.927476   -0.837710
  C      0.211633    1.028920   -0.720663
  C      0.986976   -0.011200   -0.186636
  C      0.287094   -1.150348    0.208764
  C     -1.085183   -1.284230    0.101967
  F      0.980243   -2.214186    0.695805
  C      2.453722    0.109048   -0.067143
  C      3.121395   -0.265896    1.106819
  C      4.499119   -0.110301    1.214561
  C      5.232970    0.415135    0.152997
  C      4.578347    0.788957   -1.018374
  C      3.199802    0.639095   -1.128223
  C     -3.966337    0.658869    0.393237
  O     -4.532330    1.683077    0.061652
  O     -3.805583    0.297721    1.686975
  H     -4.919711   -0.294141   -2.030983
  H     -3.595019    0.838971   -2.355211
  H     -3.362074   -0.897803   -2.631854
  H     -1.732418    1.762229   -1.240745
  H      0.711986    1.941683   -1.028767
  H     -1.559000   -2.206236    0.423193
  H      2.556122   -0.657576    1.945745
  H      5.000389   -0.395424    2.134308
  H      6.308394    0.533658    0.238963
  H      5.143135    1.193878   -1.852339
  H      2.696064    0.919688   -2.048249
  H     -4.193644    0.989828    2.250452

----------------------------
CARTESIAN COORDINATES (A.U.)
----------------------------
  NO LB      ZA    FRAG     MASS         X           Y           Z
   0 C     6.0000    0    12.011   -7.248596   -0.300177   -3.743093
   1 C     6.0000    0    12.011   -6.312686   -0.660802   -1.037632
   2 H     1.0000    0     1.008   -6.855743   -2.533017   -0.344993
   3 C     6.0000    0    12.011   -3.459245   -0.440123   -0.809112
   4 C     6.0000    0    12.011   -2.206156    1.752676   -1.583042
   5 C     6.0000    0    12.011    0.399927    1.944376   -1.361856
   6 C     6.0000    0    12.011    1.865115   -0.021164   -0.352691
   7 C     6.0000    0    12.011    0.542529   -2.173843    0.394507
   8 C     6.0000    0    12.011   -2.050699   -2.426843    0.192690
   9 F     9.0000    0    18.998    1.852391   -4.184205    1.314881
  10 C     6.0000    0    12.011    4.636863    0.206071   -0.126881
  11 C     6.0000    0    12.011    5.898583   -0.502471    2.091585
  12 C     6.0000    0    12.011    8.502104   -0.208438    2.295187
  13 C     6.0000    0    12.011    9.888879    0.784492    0.289123
  14 C     6.0000    0    12.011    8.651822    1.490913   -1.924449
  15 C     6.0000    0    12.011    6.046749    1.207714   -2.132033
  16 C     6.0000    0    12.011   -7.495290    1.245081    0.743110
  17 O     8.0000    0    15.999   -8.564863    3.180554    0.116505
  18 O     8.0000    0    15.999   -7.191510    0.562611    3.187920
  19 H     1.0000    0     1.008   -9.296907   -0.555846   -3.838002
  20 H     1.0000    0     1.008   -6.793601    1.585426   -4.450704
  21 H     1.0000    0     1.008   -6.353399   -1.696602   -4.973483
  22 H     1.0000    0     1.008   -3.273796    3.330130   -2.344669
  23 H     1.0000    0     1.008    1.345459    3.669250   -1.944088
  24 H     1.0000    0     1.008   -2.946083   -4.169182    0.799719
  25 H     1.0000    0     1.008    4.830371   -1.242639    3.676926
  26 H     1.0000    0     1.008    9.449367   -0.747243    4.033258
  27 H     1.0000    0     1.008   11.921136    1.008468    0.451575
  28 H     1.0000    0     1.008    9.719117    2.256102   -3.500413
  29 H     1.0000    0     1.008    5.094822    1.737958   -3.870630
  30 H     1.0000    0     1.008   -7.924838    1.870503    4.252738

------------------------------------------------------------------------------
                   ___                                                        
                  /   \      - P O W E R E D   B Y -                         
                 /     \                                                     
                 |  |  |   _    _      __       _____    __    __             
                 |  |  |  | |  | |    /  \     |  _  \  |  |  /  |          
                  \  \/   | |  | |   /    \    | | | |  |  | /  /          
                 / \  \   | |__| |  /  /\  \   | |_| |  |  |/  /          
                |  |  |   |  __  | /  /__\  \  |    /   |      \           
                |  |  |   | |  | | |   __   |  |    \   |  |\   \          
                \     /   | |  | | |  |  |  |  | |\  \  |  | \   \       
                 \___/    |_|  |_| |__|  |__|  |_| \__\ |__|  \__/        
                                                                              
                      - O R C A' S   B I G   F R I E N D -                    
                                      &                                       
                       - I N T E G R A L  F E E D E R -                       
                                                                              
 v1 FN, 2020, v2 2021, v3 2022-2024                                           
------------------------------------------------------------------------------


----------------------
SHARK INTEGRAL PACKAGE
----------------------

Number of atoms                             ...     31
Number of basis functions                   ...    422
Number of shells                            ...    204
Maximum angular momentum                    ...      2
Integral batch strategy                     ... SHARK/LIBINT Hybrid
RI-J (if used) integral strategy            ... SPLIT-RIJ (Revised 2003 algorithm where possible)
Printlevel                                  ...      1
Contraction scheme used                     ... SEGMENTED contraction
Prescreening option                         ... SCHWARTZ
   Thresh                                   ... 3.000e-11
   Tcut                                     ... 1.000e-12
   Tpresel                                  ... 1.000e-12 
Coulomb Range Separation                    ... NOT USED
Exchange Range Separation                   ... NOT USED
Multipole approximations                    ... NOT USED
Finite Nucleus Model                        ... NOT USED
CABS basis                                  ... NOT available
Auxiliary Coulomb fitting basis             ... AVAILABLE
   # of basis functions in Aux-J            ...   1025
   # of shells in Aux-J                     ...    335
   Maximum angular momentum in Aux-J        ...      4
Auxiliary J/K fitting basis                 ... NOT available
Auxiliary Correlation fitting basis         ... NOT available
Auxiliary 'external' fitting basis          ... NOT available

Checking pre-screening integrals            ... done (  0.0 sec) Dimension = 204
Check shell pair data                       ... done (  0.0 sec)
Shell pair information
Shell pair cut-off parameter TPreSel        ...   1.0e-12
Total number of shell pairs                 ...     20910
Shell pairs after pre-screening             ...     15209
Total number of primitive shell pairs       ...     77463
Primitive shell pairs kept                  ...     36413
          la=0 lb=0:   4681 shell pairs
          la=1 lb=0:   5836 shell pairs
          la=1 lb=1:   1813 shell pairs
          la=2 lb=0:   1666 shell pairs
          la=2 lb=1:   1050 shell pairs
          la=2 lb=2:    163 shell pairs

Calculating one electron integrals          ... done (  0.1 sec)
Calculating RI/J V-Matrix + Cholesky decomp.... done (  0.1 sec)
Calculating Nuclear repulsion               ... done (  0.0 sec) ENN=   1220.487816410822 Eh

Diagonalization of the overlap matrix:
Smallest eigenvalue                        ... 2.024e-05
Time for diagonalization                   ...    0.020 sec
Threshold for overlap eigenvalues          ... 1.000e-07
Number of eigenvalues below threshold      ... 0
Time for construction of square roots      ...    0.014 sec
Total time needed                          ...    0.036 sec

-------------------
DFT GRID GENERATION
-------------------

General Integration Accuracy     IntAcc      ... 4.388
Radial Grid Type                 RadialGrid  ... OptM3 with GC (2021)
Angular Grid (max. ang.)         AngularGrid ... 4 (Lebedev-302)
Angular grid pruning method      GridPruning ... 4 (adaptive)
Weight generation scheme         WeightScheme... mBecke (2022)
Basis function cutoff            BFCut       ... 1.0000e-11
Integration weight cutoff        WCut        ... 1.0000e-14
Partially contracted basis set               ... off
Rotationally invariant grid construction     ... off
Angular grids for H and He will be reduced by one unit
Diffuse basis detected: some atoms will have their outermost
                        angular grid increased by 1.

Total number of grid points                  ...   150032
Total number of batches                      ...     2360
Average number of points per batch           ...       63
Average number of grid points per atom       ...     4840
Initializing property integral containers    ... done (  0.0 sec)

SHARK setup successfully completed in   2.0 seconds

Maximum memory used throughout the entire STARTUP-calculation: 77.9 MB
Occupation numbers will be reassigned to an Aufbau configuration
             **** ENERGY FILE WAS UPDATED (xtb_opt.en.tmp) ****
Finished Guess after   0.2 sec
Maximum memory used throughout the entire GUESS-calculation: 39.9 MB
--------------------
CPCM SOLVATION MODEL
--------------------
CPCM parameters:
  Epsilon                                         ...      78.3550
  Refrac                                          ...       1.3328
  Rsolv                                           ...       1.3000
  Surface type                                    ... GAUSSIAN VDW
  Discretization scheme                           ... Constant charge density
    Threshold for H atoms                         ...       5.0000 (charges/Ang^2)
    Threshold for non-H atoms                     ...       5.0000 (charges/Ang^2)
  Epsilon function type                           ...         CPCM
Solvent:                                          ... WATER
SMD-CDS solvent descriptors:
  Soln                                            ...       1.3328
  Soln25                                          ...       1.3323
  Sola                                            ...       0.0000
  Solb                                            ...       0.0000
  Solg                                            ...       0.0000
  Solc                                            ...       0.0000
  Solh                                            ...       0.0000
Radii:
  Scheme                                          ... Element-dependent radii
  Radius for C  used is    3.4960 Bohr (=   1.8500 Ang.)
  Radius for H  used is    2.2677 Bohr (=   1.2000 Ang.)
  Radius for F  used is    3.2692 Bohr (=   1.7300 Ang.)
  Radius for O  used is    2.8724 Bohr (=   1.5200 Ang.)
[...]
Finished LeanSCF after  17.8 sec

Maximum memory used throughout the entire LEANSCF-calculation: 78.3 MB


-------------------------------------------------------------------------------
                          DFT DISPERSION CORRECTION                            
                                                                               
                                DFTD4 V3.4.0                                   
-------------------------------------------------------------------------------
-------------------------   ----------------
Dispersion correction           -0.013336559
-------------------------   ----------------

------------------   -----------------
gCP correction             0.010396766
------------------   -----------------

-------------------------   --------------------
FINAL SINGLE POINT ENERGY      -829.594206129630
-------------------------   --------------------

------------------------------------------------------------------------------
                         ORCA SCF GRADIENT CALCULATION
------------------------------------------------------------------------------

Nuc. rep. gradient        (SHARK) ... done (  0.0 sec)
HCore & Overlap gradient  (SHARK) ... done (  1.1 sec)
Split-RIJ-J gradient      (SHARK) ... done (  6.6 sec)
XC gradient                       ... done ( 15.8 sec)
CPCM gradient                     ... done (  6.5 sec)
SMD gradient                      ... done (  0.0 sec)
Dispersion correction             ... done (  0.0 sec)

-------------------
DISPERSION GRADIENT
-------------------

   1   C   :   -0.000086456   -0.000014288   -0.000095300
   2   C   :   -0.000094280   -0.000023164   -0.000017018
   3   H   :   -0.000039625   -0.000026218    0.000002839
   4   C   :   -0.000048708   -0.000024138   -0.000012888
   5   C   :   -0.000013151    0.000082876   -0.000049730
   6   C   :    0.000015720    0.000100536   -0.000047286
   7   C   :    0.000010746   -0.000006046   -0.000001571
   8   C   :    0.000006090   -0.000105584    0.000034047
   9   C   :   -0.000010679   -0.000121348    0.000028979
  10   F   :   -0.000001593   -0.000103472    0.000037258
  11   C   :    0.000066202    0.000005296    0.000004601
  12   C   :    0.000078141   -0.000023075    0.000087928
  13   C   :    0.000106310   -0.000007027    0.000070591
  14   C   :    0.000103989    0.000012016    0.000008254
  15   C   :    0.000110566    0.000033212   -0.000054428
  16   C   :    0.000083879    0.000042542   -0.000077291
  17   C   :   -0.000112038    0.000035271    0.000047788
  18   O   :   -0.000091464    0.000071128    0.000027909
  19   O   :   -0.000092787    0.000026013    0.000114845
  20   H   :   -0.000036225   -0.000007754   -0.000032011
  21   H   :   -0.000037224    0.000007044   -0.000042135
  22   H   :   -0.000035595   -0.000020936   -0.000053065
  23   H   :   -0.000001954    0.000053551   -0.000024496
  24   H   :   -0.000004288    0.000059742   -0.000021812
  25   H   :    0.000001631   -0.000066051    0.000020900
  26   H   :    0.000017133   -0.000019511    0.000055462
  27   H   :    0.000029185   -0.000008480    0.000036857
  28   H   :    0.000040697    0.000004492    0.000003169
  29   H   :    0.000031577    0.000015401   -0.000031843
  30   H   :    0.000025188    0.000020928   -0.000054020
  31   H   :   -0.000020988    0.000007044    0.000033466

Difference to translation invariance:
           :    0.0000000000   -0.0000000000    0.0000000000

Difference to rotation invariance:
           :   -0.0000000000   -0.0000000000    0.0000000000

Norm of the Dispersion gradient    ...    0.0005121599
RMS gradient                       ...    0.0000531085
MAX gradient                       ...    0.0001213481
gCP correction                   ... done

------------------
CARTESIAN GRADIENT
------------------

   1   C   :   -0.000205346    0.000039224   -0.000267760
   2   C   :    0.000019199   -0.000153880    0.000142023
   3   H   :    0.000011751   -0.000076703   -0.000059370
   4   C   :   -0.000138884    0.000067534   -0.000011524
   5   C   :   -0.000007450    0.000003014   -0.000023638
   6   C   :   -0.000006807   -0.000028912    0.000002302
   7   C   :    0.000054622    0.000031489    0.000002798
   8   C   :   -0.000049990    0.000150559   -0.000049625
   9   C   :    0.000043607   -0.000015452    0.000025483
  10   F   :    0.000033919   -0.000088508    0.000092844
  11   C   :   -0.000071762   -0.000005967   -0.000019268
  12   C   :    0.000045629    0.000014412    0.000022355
  13   C   :    0.000002017    0.000019742   -0.000005383
  14   C   :   -0.000017421    0.000002544   -0.000004639
  15   C   :   -0.000015157   -0.000026961    0.000006962
  16   C   :    0.000041887   -0.000003090   -0.000032036
  17   C   :    0.000229140    0.000565946   -0.000100644
  18   O   :   -0.000055151   -0.000149754   -0.000037575
  19   O   :    0.000032301   -0.000277147    0.000089199
  20   H   :    0.000197800    0.000008049    0.000057314
  21   H   :    0.000018607   -0.000072505    0.000035595
  22   H   :   -0.000051727    0.000047119    0.000063201
  23   H   :    0.000012881   -0.000018077   -0.000007886
  24   H   :   -0.000006686   -0.000022646   -0.000006994
  25   H   :   -0.000003944   -0.000014421    0.000026894
  26   H   :   -0.000032238    0.000027595   -0.000021076
  27   H   :   -0.000025780    0.000015955    0.000015569
  28   H   :   -0.000005225   -0.000006670    0.000009880
  29   H   :    0.000014820   -0.000026681   -0.000004049
  30   H   :   -0.000006644   -0.000029052   -0.000002595
  31   H   :   -0.000057966    0.000023243    0.000061645

Difference to translation invariance:
           :   -0.0000000000   -0.0000000000    0.0000000000

Difference to rotation invariance:
           :   -0.0007991638   -0.0001796972   -0.0002489401

Norm of the Cartesian gradient     ...    0.0009102981
RMS gradient                       ...    0.0000943935
MAX gradient                       ...    0.0005659460

-------
TIMINGS
-------

Total SCF gradient time     ....       30.131 sec

Densities                   ....       0.002 sec  (  0.0%)
One electron gradient       ....       1.142 sec  (  3.8%)
RI-J Coulomb gradient       ....       6.636 sec  ( 22.0%)
XC gradient                 ....      15.839 sec  ( 52.6%)
CPCM gradient               ....       6.458 sec  ( 21.4%)
   A-Matrix (El+Nuc)        ....       0.200 sec  (  0.7%)
   Potential                ....       6.257 sec  ( 20.8%)
SMD gradient                ....       0.004 sec  (  0.0%)

Maximum memory used throughout the entire SCFGRAD-calculation: 64.2 MB

------------------------------------------------------------------------------
                              ORCA PROPERTY CALCULATIONS
------------------------------------------------------------------------------

GBWName                                 ... xtb_opt.gbw
Number of atoms                         ...     31
Number of basis functions               ...    422
Max core memory                         ...   1024 MB

Electric properties:
Dipole moment                           ... YES
Quadrupole moment                       ...  NO
Static polarizability (Dipole/Dipole)   ...  NO
Static polarizability (Dipole/Quad.)    ...  NO
Static polarizability (Quad./Quad.)     ...  NO
Static polarizability (Velocity)        ...  NO

Atomic electric properties:
Dipole moment                           ...  NO
Quadrupole moment                       ...  NO
Static polarizability                   ...  NO

Choice of electric origin               ... Center of mass
Position of electric origin             ...    -0.025124     0.033376    -0.078893

General magnetic properties:
Magnetizability                         ...  NO

EPR properties:
g-Tensor (aka g-matrix)                 ...  NO
Zero-Field splitting spin-orbit         ...  NO
Zero-field splitting spin-spin          ...  NO
Hyperfine couplings                     ...  NO (   0 nuclei)
Quadrupole couplings                    ...  NO (   0 nuclei)
Contact density                         ...  NO (   0 nuclei)

NMR properties:
Chemical shifts                         ...  NO (   0 nuclei)
Spin-rotation constants                 ...  NO (   0 nuclei)
Spin-spin couplings                     ...  NO (   0 nuclei,    0 pairs)

Choice of magnetic origin               ... GIAO
Position of magnetic origin             ...     0.000000     0.000000     0.000000

Properties with geometric perturbations:
SCF Hessian                             ...  NO
IR spectrum                             ...  NO
VCD spectrum                            ...  NO
X-ray spectroscopy properties:
SCF XES/XAS/RIXS spectra                ...  NO


-------------
DIPOLE MOMENT
-------------

Method             : SCF
Type of density    : Electron Density
Multiplicity       :   1
Irrep              :   0
Energy             :  -829.5912663366467541 Eh
Relativity type    : 
Basis              : AO
                                X                 Y                 Z
Electronic contribution:      1.499470180      -4.252646986       6.223961355
Nuclear contribution   :     -1.412376285       4.105237981      -6.132268072
                        -----------------------------------------
Total Dipole Moment    :      0.087093895      -0.147409005       0.091693282
                        -----------------------------------------
Magnitude (a.u.)       :      0.194222602
Magnitude (Debye)      :      0.493674622



--------------------
Rotational spectrum 
--------------------
 
Rotational constants in cm-1:             0.036532             0.006320             0.006046 
Rotational constants in MHz :          1095.195424           189.456029           181.240034 

Dipole components along the rotational axes: 
x,y,z [a.u.] :     0.095374    -0.166727    -0.028784 
x,y,z [Debye]:     0.242421    -0.423785    -0.073162 

 

Dipole moment calculation done in   0.8 sec 

Maximum memory used throughout the entire PROP-calculation: 37.6 MB

--------------------------------
SUGGESTED CITATIONS FOR THIS RUN
--------------------------------

Below you find a list of papers that are relevant to this ORCA run
We neither can nor want to force you to cite these papers, but we appreciate if you do
You receive ORCA, which is the product of decades of hard work by many enthusiastic individuals, for free
The only thing we kindly ask in return is that you cite our papers,
We deeply appreciate it, if you show your appreciation for ORCA by not just citing the generic ORCA reference.

Please note that relegating all ORCA citations to the supporting information does *not* help us.
SI sections are not indexed - citations you put there will not count into any citation statistics
But we need these citations in order to attract the funding resources that allow us to do what we are doing

Therefore, if you are a happy ORCA user, please consider citing a few of the papers listed below in the main body of your paper

In addition to the list printed below, the program has created the file xtb_opt.bibtex that contains the list in bibtex format
You can import this file easily into all common literature databanks and citation aid programs


List of essential papers. We consider these as the minimum necessary citations

  1. Neese,F.
     Software update: the ORCA program system, version 5.0
     WIRES Comput. Molec. Sci., 2022 12(1)e1606
     doi.org/10.1002/wcms.1606
  2. Grimme,S.; Hansen,A.; Ehlert,S.; Mewes,J.
     r2SCAN-3c: A 'Swiss army knife' composite electronic-structure method
     J. Chem. Phys., 2021 154 064103
     doi.org/10.1063/5.0040021

List of papers to cite with high priority. The work reported in these papers was absolutely
necessary for this run to complete.
Our perspective: the developers of density functionals and basis sets usually get cited in chemistry papers
Good! But without the algorithms to do something with them, the functionals or basis sets would not do anything.
Hence, in our opinion, the algorithm design and method developments papers are equally worthy of getting cited

  1. Neese,F.
     An improvement of the resolution of the identity approximation for the formation of the Coulomb matrix
     J. Comp. Chem., 2003 24(14)1740-1747
     doi.org/10.1002/jcc.10318
  2. Garcia-Rates,M.; Neese,F.
     Effect of the Solute Cavity on the Solvation Energy and its Derivatives within the Framework of the Gaussian Charge Scheme
     J. Comput. Chem., 2020 41 922-939
     doi.org/10.1002/jcc.26139
  3. Neese,F.
     The SHARK Integral Generation and Digestion System
     J. Comp. Chem., 2022  1-16
     doi.org/10.1002/jcc.26942
  4. Lehtola,S.; Steigemann,C.; Oliveira,M.; Marques,M.
     Recent developments in Libxc - A comprehensive library of functionals for density functional theory
     Software X, 2018 7 
     doi.org/10.1016/j.softx.2017.11.002
  5. Caldeweyher,E.; Bannwarth,C.; Grimme,S.
     Extension of the D3 dispersion coefficient model
     J. Chem. Phys., 2017 147 034112
     doi.org/10.1063/1.4993215
  6. Caldeweyher,E.; Ehlert,S.; Hansen,A.; Neugebauer,H.; Spicher,S.; Bannwarth,C.; Grimme,S.
     A generally applicable atomic-charge dependent London dispersion correction
     J. Chem. Phys., 2019 150 154122
     doi.org/10.1063/1.5090222
  7. Caldeweyher,E.; Mewes,J.; Ehlert,S.; Grimme,S.
     Extension and evaluation of the D4 London-dispersion model for periodic systems
     Phys. Chem. Chem. Phys., 2020 22(16)8499-8512
     doi.org/10.1039/D0CP00502A
  8. Wittmann,L.; Gordiy,I.; Friede,M.; Helmich-Paris,B.; Grimme,S.; Hansen,A.; Bursch,M.
     Extension of the D3 and D4 London Dispersion Corrections to the full Actinides Series
     Phys. Chem. Chem. Phys., 2024 26(32)21379-21394
     doi.org/https://doi.org/10.1039/D4CP01514B 

List of suggested additional citations. These are papers that are important in the 'surrounding' of 
of this run, or papers that preceded the highly important papers. If you like your results we are grateful for a citation.

  1. Neese,F.
     The ORCA program system
     WIRES Comput. Molec. Sci., 2012 2(1)73-78
     doi.org/10.1002/wcms.81
  2. Neese,F.
     Software update: the ORCA program system, version 4.0
     WIRES Comput. Molec. Sci., 2018 8(1)1-6
     doi.org/10.1002/wcms.1327
  3. Neese,F.; Wennmohs,F.; Becker,U.; Riplinger,C.
     The ORCA quantum chemistry program package
     J. Chem. Phys., 2020 152 Art. No. L224108
     doi.org/10.1063/5.0004608

List of optional additional citations

  1. Neese,F.
     Approximate second-order SCF convergence for spin unrestricted wavefunctions
     Chem. Phys. Lett., 2000 325(1-3)93-98
     doi.org/10.1016/s0009-2614(00)00662-x

Timings for individual modules:

Sum of individual times          ...       53.609 sec (=   0.893 min)
Startup calculation              ...        2.037 sec (=   0.034 min)   3.8 %
SCF iterations                   ...       18.041 sec (=   0.301 min)  33.7 %
Property calculations            ...        0.880 sec (=   0.015 min)   1.6 %
SCF Gradient evaluation          ...       32.652 sec (=   0.544 min)  60.9 %
                             ****ORCA TERMINATED NORMALLY****
TOTAL RUN TIME: 0 days 0 hours 0 minutes 54 seconds 762 msec
  ------------------------------------------------------------------------
          * successful ORCA run, taking over control again...

         :::::::::::::::::::::::::::::::::::::::::::::::::::::
         ::                  ORCA SUMMARY                   ::
         :::::::::::::::::::::::::::::::::::::::::::::::::::::
         :: total energy            -829.594206129630 Eh    ::
         :: gradient norm              0.000910298080 Eh/a0 ::
         :: HOMO-LUMO gap              0.000000000000 eV    ::
         :::::::::::::::::::::::::::::::::::::::::::::::::::::

           -------------------------------------------------
          |                Property Printout                |
           -------------------------------------------------
           -------------------------------------------------
          |                Geometry Summary                 |
           -------------------------------------------------

      molecular mass/u    :      244.2614812
   center of mass at/Å    :       -0.0133174       0.0176602      -0.0417395
  moments of inertia/u·Å² :        0.4614477E+03   0.2667494E+04   0.2788418E+04
rotational constants/cm⁻¹ :        0.3653206E-01   0.6319651E-02   0.6045591E-02

 * 28 selected distances

     #   Z          #   Z                                           value/Å
     1   6 C        2   6 C                                       1.5267307 (max)
     2   6 C        3   1 H                                       1.0949874
     4   6 C        5   6 C                                       1.3978464
     5   6 C        6   6 C                                       1.3876989
     6   6 C        7   6 C                                       1.4028303
     7   6 C        8   6 C                                       1.3943852
     4   6 C        9   6 C                                       1.3935459
     8   6 C        9   6 C                                       1.3830466
    11   6 C       12   6 C                                       1.4016389
    12   6 C       13   6 C                                       1.3906804
    13   6 C       14   6 C                                       1.3933924
    14   6 C       15   6 C                                       1.3929505
    11   6 C       16   6 C                                       1.4012872
    15   6 C       16   6 C                                       1.3909901
    17   6 C       18   8 O                                       1.2164210
    17   6 C       19   8 O                                       1.3516605
     1   6 C       20   1 H                                       1.0932277
     1   6 C       21   1 H                                       1.0926192
     1   6 C       22   1 H                                       1.0928244
     5   6 C       23   1 H                                       1.0855626
     6   6 C       24   1 H                                       1.0855183
     9   6 C       25   1 H                                       1.0853104
    12   6 C       26   1 H                                       1.0847448
    13   6 C       27   1 H                                       1.0855980
    14   6 C       28   1 H                                       1.0853425
    15   6 C       29   1 H                                       1.0855577
    16   6 C       30   1 H                                       1.0857646
    19   8 O       31   1 H                                       0.9732558 (min)

 * 4 distinct bonds (by element types)

   Z      Z             #   av. dist./Å        max./Å        min./Å
   1 H    6 C          12     1.0880881     1.0949874     1.0847448
   6 C    6 C          13     1.4043864     1.5267307     1.3830466
   1 H    8 O           1     0.9732558     0.9732558     0.9732558
   6 C    8 O           2     1.2840407     1.3516605     1.2164210


optimized geometry written to: xtbopt.coord


           -------------------------------------------------
          | TOTAL ENERGY             -829.594206129630 Eh   |
          | GRADIENT NORM               0.000910298080 Eh/α |
           -------------------------------------------------

------------------------------------------------------------------------
 * finished run on 2025/04/11 at 14:55:51.215     
------------------------------------------------------------------------
 total:
 * wall-time:     0 d,  0 h,  9 min, 48.437 sec
 *  cpu-time:     0 d,  0 h,  0 min,  9.015 sec
 * ratio c/w:     0.015 speedup
 SCF:
 * wall-time:     0 d,  0 h,  1 min, 19.056 sec
 *  cpu-time:     0 d,  0 h,  0 min,  2.916 sec
 * ratio c/w:     0.037 speedup
 ANC optimizer:
 * wall-time:     0 d,  0 h,  8 min, 29.297 sec
 *  cpu-time:     0 d,  0 h,  0 min,  5.213 sec
 * ratio c/w:     0.010 speedup

