      -----------------------------------------------------------      
     |                   =====================                   |     
     |                           x T B                           |     
     |                   =====================                   |     
     |                         S. Grimme                         |     
     |          Mulliken Center for Theoretical Chemistry        |     
     |                    University of Bonn                     |     
      -----------------------------------------------------------      

   * xtb version 6.7.1 (edcfbbe) compiled by 'albert@albert-system' on 2024-07-22

   xtb is free software: you can redistribute it and/or modify it under
   the terms of the GNU Lesser General Public License as published by
   the Free Software Foundation, either version 3 of the License, or
   (at your option) any later version.
   
   xtb is distributed in the hope that it will be useful,
   but WITHOUT ANY WARRANTY; without even the implied warranty of
   MERCHANTABILITY or FITNESS FOR A PARTICULAR PURPOSE.  See the
   GNU Lesser General Public License for more details.
   
   Cite this work as:
   * C. Bannwarth, E. Caldeweyher, S. Ehlert, A. Hansen, P. Pracht,
     J. Seibert, S. Spicher, S. Grimme, WIREs Comput. Mol. Sci., 2020, 11,
     e01493. DOI: 10.1002/wcms.1493
   
   for GFN2-xTB:
   * C. Bannwarth, S. Ehlert and S. Grimme., J. Chem. Theory Comput., 2019,
     15, 1652-1671. DOI: 10.1021/acs.jctc.8b01176
   for GFN1-xTB:
   * S. Grimme, C. Bannwarth, P. Shushkov, J. Chem. Theory Comput., 2017,
     13, 1989-2009. DOI: 10.1021/acs.jctc.7b00118
   for GFN0-xTB:
   * P. Pracht, E. Caldeweyher, S. Ehlert, S. Grimme, ChemRxiv, 2019, preprint.
     DOI: 10.26434/chemrxiv.8326202.v1
   for GFN-FF:
   * S. Spicher and S. Grimme, Angew. Chem. Int. Ed., 2020, 59, 15665-15673.
     DOI: 10.1002/anie.202004239
   
   for ALPB and GBSA implicit solvation:
   * S. Ehlert, M. Stahn, S. Spicher, S. Grimme, J. Chem. Theory Comput.,
     2021, 17, 4250-4261. DOI: 10.1021/acs.jctc.1c00471
   
   for ddCOSMO and CPCM-X implicit solvation:
   * M. Stahn, S. Ehlert, S. Grimme, J. Phys. Chem. A,
     2023, XX, XXXX-XXXX. DOI: 10.1021/acs.jpca.3c04382
   
   for DFT-D4:
   * E. Caldeweyher, C. Bannwarth and S. Grimme, J. Chem. Phys., 2017,
     147, 034112. DOI: 10.1063/1.4993215
   * E. Caldeweyher, S. Ehlert, A. Hansen, H. Neugebauer, S. Spicher,
     C. Bannwarth and S. Grimme, J. Chem. Phys., 2019, 150, 154122.
     DOI: 10.1063/1.5090222
   * E. Caldeweyher, J.-M. Mewes, S. Ehlert and S. Grimme, Phys. Chem. Chem. Phys.
     2020, 22, 8499-8512. DOI: 10.1039/D0CP00502A
   
   for sTDA-xTB:
   * S. Grimme and C. Bannwarth, J. Chem. Phys., 2016, 145, 054103.
     DOI: 10.1063/1.4959605
   
   in the mass-spec context:
   * V. Asgeirsson, C. Bauer and S. Grimme, Chem. Sci., 2017, 8, 4879.
     DOI: 10.1039/c7sc00601b
   * J. Koopman and S. Grimme, ACS Omega 2019, 4, 12, 15120-15133.
     DOI: 10.1021/acsomega.9b02011
   
   for metadynamics refer to:
   * S. Grimme, J. Chem. Theory Comput., 2019, 155, 2847-2862
     DOI: 10.1021/acs.jctc.9b00143
   
   for SPH calculations refer to:
   * S. Spicher and S. Grimme, J. Chem. Theory Comput., 2021, 17, 1701-1714
     DOI: 10.1021/acs.jctc.0c01306
   
   for ONIOM refer to:
   * C. Plett, A. Katbashev, S. Ehlert, S. Grimme, M. Bursch,
     Phys. Chem. Chem. Phys., 2023, 25, 17860-17868. DOI: 10.1039/D3CP02178E
   
   for DIPRO refer to:
   * J. Kohn, N. Gildemeister, S. Grimme, D. Fazzi, A. Hansen,
     J. Chem. Phys., 2023, just accepted.
   
   for PTB refer to:
   * S. Grimme, M. Mueller, A. Hansen, J. Chem. Phys., 2023, 158, 124111.
     DOI: 10.1063/5.0137838
   
   with help from (in alphabetical order)
   P. Atkinson, C. Bannwarth, F. Bohle, G. Brandenburg, E. Caldeweyher
   M. Checinski, S. Dohm, S. Ehlert, S. Ehrlich, I. Gerasimov, C. Hölzer
   A. Katbashev, J. Kohn, J. Koopman, C. Lavigne, S. Lehtola, F. März, M. Müller,
   F. Musil, H. Neugebauer, J. Pisarek, C. Plett, P. Pracht, F. Pultar,
   J. Seibert, P. Shushkov, S. Spicher, M. Stahn, M. Steiner, T. Strunk,
   J. Stückrath, T. Rose, and J. Unsleber
   
 * started run on 2025/04/11 at 16:26:28.175     
   ID    Z sym.   atoms
    1    6 C      1-4, 7, 8
    2    8 O      5, 6
    3    1 H      9-20

           -------------------------------------------------
          |                Calculation Setup                |
           -------------------------------------------------

          program call               : /srv/scratch/z5358697/.xtb/bin/xtb xtb_opt.coord --opt normal --orca -I xtb_opt-xcontrol-inp
          hostname                   : k061
          coordinate file            : xtb_opt.coord
          omp threads                :                    16

           -------------------------------------------------
          |                   Orca driver                   |
           -------------------------------------------------
orca executable           : /apps/z_install_tree/linux-rocky8-ivybridge/gcc-12.2.0/orca-6.0.0-srtngmq3qlimg2qxbl6avaaiffipurdx/bin/orca
orca input file           : xtb_opt.inp
orca input line           : 
orca parallel             : true
orca number of threads    : 16
                         * ORCA takes the control...
  ------------------------------------------------------------------------

                                 *****************
                                 * O   R   C   A *
                                 *****************

                                            #,                                       
                                            ###                                      
                                            ####                                     
                                            #####                                    
                                            ######                                   
                                           ########,                                 
                                     ,,################,,,,,                         
                               ,,#################################,,                 
                          ,,##########################################,,             
                       ,#########################################, ''#####,          
                    ,#############################################,,   '####,        
                  ,##################################################,,,,####,       
                ,###########''''           ''''###############################       
              ,#####''   ,,,,##########,,,,          '''####'''          '####       
            ,##' ,,,,###########################,,,                        '##       
           ' ,,###''''                  '''############,,,                           
         ,,##''                                '''############,,,,        ,,,,,,###''
      ,#''                                            '''#######################'''  
     '                                                          ''''####''''         
             ,#######,   #######,   ,#######,      ##                                
            ,#'     '#,  ##    ##  ,#'     '#,    #''#        ,####,   ,####,        
            ##       ##  ##   ,#'  ##            #'  '#       #'       #'  '#        
            ##       ##  #######   ##           ,######,      #####,   #    #        
            '#,     ,#'  ##    ##  '#,     ,#' ,#      #,     #,   #   #,  ,#        
             '#######'   ##     ##  '#######'  #'      '#     '####' # '####'        



                #########################################################
                #                        -***-                          #
                #          Department of theory and spectroscopy        #
                #                                                       #
                #                      Frank Neese                      #
                #                                                       #
                #     Directorship, Architecture, Infrastructure        #
                #                    SHARK, DRIVERS                     #
                #        Core code/Algorithms in most modules           #
                #                                                       #
                #        Max Planck Institute fuer Kohlenforschung      #
                #                Kaiser Wilhelm Platz 1                 #
                #                 D-45470 Muelheim/Ruhr                 #
                #                      Germany                          #
                #                                                       #
                #                  All rights reserved                  #
                #                        -***-                          #
                #########################################################


                         Program Version 6.0.0  -   RELEASE  -


 With contributions from (in alphabetic order):
   Daniel Aravena         : Magnetic Suceptibility
   Michael Atanasov       : Ab Initio Ligand Field Theory (pilot matlab implementation)
   Alexander A. Auer      : GIAO ZORA, VPT2 properties, NMR spectrum
   Ute Becker             : All parallelization in ORCA, NUMFREQ, NUMCALC
   Giovanni Bistoni       : ED, misc. LED, open-shell LED, HFLD
   Martin Brehm           : Molecular dynamics
   Dmytro Bykov           : pre 5.0 version of the SCF Hessian
   Marcos Casanova-Páez   : Triplet and SCS-CIS(D). UHF-(DLPNO)-IP/EA/STEOM-CCSD. UHF-CVS-IP/STEOM-CCSD
   Vijay G. Chilkuri      : MRCI spin determinant printing, contributions to CSF-ICE
   Pauline Colinet        : FMM embedding
   Dipayan Datta          : RHF DLPNO-CCSD density
   Achintya Kumar Dutta   : EOM-CC, STEOM-CC
   Nicolas Foglia         : Exact transition moments, OPA infrastructure, MCD improvements
   Dmitry Ganyushin       : Spin-Orbit,Spin-Spin,Magnetic field MRCI
   Miquel Garcia          : C-PCM and meta-GGA Hessian, CCSD/C-PCM, Gaussian charge scheme
   Tiago L. C. Gouveia    : GS-ROHF, GS-ROCIS
   Yang Guo               : DLPNO-NEVPT2, F12-NEVPT2, CIM, IAO-localization
   Andreas Hansen         : Spin unrestricted coupled pair/coupled cluster methods
   Ingolf Harden          : AUTO-CI MPn and infrastructure 
   Benjamin Helmich-Paris : MC-RPA, TRAH-(SCF,CASSCF), AVAS, COSX integrals, SCF dyn. polar.
   Lee Huntington         : MR-EOM, pCC
   Robert Izsak           : Overlap fitted RIJCOSX, COSX-SCS-MP3, EOM
   Riya Kayal             : Wick's Theorem for AUTO-CI, AUTO-CI UHF-CCSDT
   Emily Kempfer          : AUTO-CI, RHF CISDT and CCSDT
   Christian Kollmar      : KDIIS, OOCD, Brueckner-CCSD(T), CCSD density, CASPT2, CASPT2-K, improved NEVPT2
   Axel Koslowski         : Symmetry handling
   Simone Kossmann        : Meta GGA functionals, TD-DFT gradient, OOMP2, (MP2 Hessian; deprecated post 5.0)
   Lucas Lang             : DCDCAS
   Marvin Lechner         : AUTO-CI (C++ implementation), FIC-MRCC
   Spencer Leger          : CASSCF response
   Dagmar Lenk            : GEPOL surface, SMD, ORCA-2-JSON
   Dimitrios Liakos       : Extrapolation schemes; Compound Job, initial MDCI parallelization
   Dimitrios Manganas     : Further ROCIS development; embedding schemes. LFT, Crystal Embedding
   Dimitrios Pantazis     : SARC Basis sets
   Anastasios Papadopoulos: AUTO-CI, single reference methods and gradients
   Taras Petrenko         : pre 6.0 DFT Hessian and TD-DFT gradient, (ASA, deprecated), ECA, 1-Electron XAS/XES, NRVS
   Peter Pinski           : DLPNO-MP2, DLPNO-MP2 Gradient
   Christoph Reimann      : Effective Core Potentials
   Marius Retegan         : Local ZFS, SOC
   Christoph Riplinger    : Optimizer, TS searches, QM/MM, DLPNO-CCSD(T), (RO)-DLPNO pert. Triples
   Michael Roemelt        : Original ROCIS implementation
   Masaaki Saitow         : Open-shell DLPNO-CCSD energy and density
   Barbara Sandhoefer     : DKH picture change effects
   Kantharuban Sivalingam : CASSCF convergence/infrastructure, NEVPT2 and variants, FIC-MRCI
   Bernardo de Souza      : ESD, SOC TD-DFT
   Georgi Stoychev        : AutoAux, RI-MP2 NMR, DLPNO-MP2 response, X2C
   Van Anh Tran           : RI-MP2 g-tensors
   Willem Van den Heuvel  : Paramagnetic NMR
   Zikuan Wang            : NOTCH, Electric field optimization 
   Frank Wennmohs         : Technical directorship and infrastructure
   Hang Xu                : AUTO-CI-Response properties 


 We gratefully acknowledge several colleagues who have allowed us to
 interface, adapt or use parts of their codes:
   Stefan Grimme, W. Hujo, H. Kruse, P. Pracht,  : VdW corrections, initial TS optimization,
                  C. Bannwarth, S. Ehlert,         DFT functionals, gCP, sTDA/sTD-DF
                  L. Wittmann, M. Mueller
   Ed Valeev, F. Pavosevic, A. Kumar             : LibInt (2-el integral package), F12 methods
   Garnet Chan, S. Sharma, J. Yang, R. Olivares  : DMRG
   Ulf Ekstrom                                   : XCFun DFT Library
   Mihaly Kallay                                 : mrcc  (arbitrary order and MRCC methods)
   Frank Weinhold                                : gennbo (NPA and NBO analysis)
   Simon Mueller                                 : openCOSMO-RS
   Christopher J. Cramer and Donald G. Truhlar   : smd solvation model
   Lars Goerigk                                  : TD-DFT with DH, B97 family of functionals
   V. Asgeirsson, H. Jonsson                     : NEB implementation
   FAccTs GmbH                                   : IRC, NEB, NEB-TS, DLPNO-Multilevel, CI-OPT
                                                   MM, QMMM, 2- and 3-layer-ONIOM, Crystal-QMMM,
                                                   LR-CPCM, SF, NACMEs, symmetry and pop. for TD-DFT,
                                                   nearIR, NL-DFT gradient (VV10), updates on ESD,
                                                   ML-optimized integration grids, MBIS, APM,
                                                   GOAT, DOCKER, SOLVATOR, interface openCOSMO-RS
   S Lehtola, MJT Oliveira, MAL Marques          : LibXC Library
   Liviu Ungur et al                             : ANISO software


 Your calculation uses the libint2 library for the computation of 2-el integrals
 For citations please refer to: http://libint.valeyev.net

 Your ORCA version has been built with support for libXC version: 6.2.2
 For citations please refer to: https://libxc.gitlab.io

 This ORCA versions uses:
   CBLAS   interface :  Fast vector & matrix operations
   LAPACKE interface :  Fast linear algebra routines
   SCALAPACK package :  Parallel linear algebra routines
   Shared memory     :  Shared parallel matrices
   BLAS/LAPACK       :  OpenBLAS 0.3.27  USE64BITINT DYNAMIC_ARCH NO_AFFINITY SkylakeX SINGLE_THREADED
        Core in use  :  SkylakeX
   Copyright (c) 2011-2014, The OpenBLAS Project




***************************************
The coordinates will be read from file: xtb_opt.xyz
***************************************


Your calculation utilizes the geometrical counterpoise correction gCP
Please cite in your paper:
H.Kruse, S. Grimme J.Chem.Phys., 136, (2012), 154101 
   

Your calculation utilizes the atom-pairwise dispersion correction
based on EEQ partial charges (D4)


Your calculation utilizes the SMD solvation module
Please cite in your paper:
A.V. Marenich, C.J. Cramer, D.G. Truhlar J. Phys. Chem. B, 113, (2009), 6378 

================================================================================

----- Orbital basis set information -----
Your calculation utilizes the basis: def2-mTZVPP
   Stefan Grimme, Andreas Hansen, Sebastian Ehlert, and Jan-Michael Mewes 
   J. Chem. Phys. 154, 064103 (2021). DOI: 10.1063/5.0040021

----- AuxJ basis set information -----
Your calculation utilizes the auxiliary basis: def2/J
   F. Weigend, Phys. Chem. Chem. Phys. 8, 1057 (2006).

================================================================================
                                        WARNINGS
                       Please study these warnings very carefully!
================================================================================

Using LibXC functional ID 497 : Re-regularized SCAN exchange by Furness et al
[ 1]  J. W. Furness, A. D. Kaplan, J. Ning, J. P. Perdew, and J. Sun.,  J. Phys. Chem. Lett. 11, 8208-8215 (2020)
[ 2]  J. W. Furness, A. D. Kaplan, J. Ning, J. P. Perdew, and J. Sun.,  J. Phys. Chem. Lett. 11, 9248-9248 (2020)
Using LibXC functional ID 498 : Re-regularized SCAN correlation by Furness et al
[ 1]  J. W. Furness, A. D. Kaplan, J. Ning, J. P. Perdew, and J. Sun.,  J. Phys. Chem. Lett. 11, 8208-8215 (2020)
[ 2]  J. W. Furness, A. D. Kaplan, J. Ning, J. P. Perdew, and J. Sun.,  J. Phys. Chem. Lett. 11, 9248-9248 (2020)
Using LibXC functional ID 497 : Re-regularized SCAN exchange by Furness et al
[ 1]  J. W. Furness, A. D. Kaplan, J. Ning, J. P. Perdew, and J. Sun.,  J. Phys. Chem. Lett. 11, 8208-8215 (2020)
[ 2]  J. W. Furness, A. D. Kaplan, J. Ning, J. P. Perdew, and J. Sun.,  J. Phys. Chem. Lett. 11, 9248-9248 (2020)
Using LibXC functional ID 498 : Re-regularized SCAN correlation by Furness et al
[ 1]  J. W. Furness, A. D. Kaplan, J. Ning, J. P. Perdew, and J. Sun.,  J. Phys. Chem. Lett. 11, 8208-8215 (2020)
[ 2]  J. W. Furness, A. D. Kaplan, J. Ning, J. P. Perdew, and J. Sun.,  J. Phys. Chem. Lett. 11, 9248-9248 (2020)

================================================================================
                                       INPUT FILE
================================================================================
NAME = xtb_opt.inp
|  1> ! r2scan-3c def2/J RI DEFGRID2 scfconv7 ENGRAD tightSCF miniprint
|  2> %cpcm
|  3>     smd true
|  4>     smdsolvent "water"
|  5> end
|  6> * xyzfile 0 1 xtb_opt.xyz
|  7> 
|  8>                          ****END OF INPUT****
================================================================================

                     *******************************
                     * Energy+Gradient Calculation *
                     *******************************

---------------------------------
CARTESIAN COORDINATES (ANGSTROEM)
---------------------------------
  C     -3.317233   -1.085971    0.103063
  C     -1.873398   -0.718374    0.419697
  C     -1.354131    0.365170   -0.537680
  C      0.063649    0.708081   -0.169226
  O      0.385616    1.590098    0.600171
  O      0.929769   -0.097570   -0.770222
  C      2.326966    0.045944   -0.464792
  C      2.706495   -0.771077    0.760876
  H     -3.399414   -1.464382   -0.912462
  H     -3.666136   -1.853811    0.787994
  H     -3.962265   -0.216688    0.201344
  H     -1.239486   -1.602560    0.331696
  H     -1.800954   -0.349760    1.445143
  H     -1.966752    1.261629   -0.446879
  H     -1.377517   -0.007434   -1.560811
  H      2.842103   -0.312394   -1.356448
  H      2.540528    1.106692   -0.301674
  H      3.774635   -0.687038    0.932131
  H      2.178228   -0.397234    1.635179
  H      2.448081   -1.815749    0.610236

----------------------------
CARTESIAN COORDINATES (A.U.)
----------------------------
  NO LB      ZA    FRAG     MASS         X           Y           Z
   0 C     6.0000    0    12.011   -6.268661   -2.052188    0.194761
   1 C     6.0000    0    12.011   -3.540209   -1.357531    0.793113
   2 C     6.0000    0    12.011   -2.558937    0.690072   -1.016068
   3 C     6.0000    0    12.011    0.120280    1.338080   -0.319791
   4 O     8.0000    0    15.999    0.728709    3.004849    1.134158
   5 O     8.0000    0    15.999    1.757008   -0.184381   -1.455508
   6 C     6.0000    0    12.011    4.397329    0.086821   -0.878330
   7 C     6.0000    0    12.011    5.114533   -1.457124    1.437846
   8 H     1.0000    0     1.008   -6.423961   -2.767281   -1.724304
   9 H     1.0000    0     1.008   -6.927993   -3.503194    1.489093
  10 H     1.0000    0     1.008   -7.487595   -0.409482    0.380485
  11 H     1.0000    0     1.008   -2.342289   -3.028399    0.626814
  12 H     1.0000    0     1.008   -3.403310   -0.660950    2.730924
  13 H     1.0000    0     1.008   -3.716623    2.384134   -0.844479
  14 H     1.0000    0     1.008   -2.603130   -0.014049   -2.949505
  15 H     1.0000    0     1.008    5.370796   -0.590339   -2.563315
  16 H     1.0000    0     1.008    4.800903    2.091344   -0.570082
  17 H     1.0000    0     1.008    7.133027   -1.298314    1.761472
  18 H     1.0000    0     1.008    4.116254   -0.750663    3.090041
  19 H     1.0000    0     1.008    4.626203   -3.431268    1.153179

------------------------------------------------------------------------------
                   ___                                                        
                  /   \      - P O W E R E D   B Y -                         
                 /     \                                                     
                 |  |  |   _    _      __       _____    __    __             
                 |  |  |  | |  | |    /  \     |  _  \  |  |  /  |          
                  \  \/   | |  | |   /    \    | | | |  |  | /  /          
                 / \  \   | |__| |  /  /\  \   | |_| |  |  |/  /          
                |  |  |   |  __  | /  /__\  \  |    /   |      \           
                |  |  |   | |  | | |   __   |  |    \   |  |\   \          
                \     /   | |  | | |  |  |  |  | |\  \  |  | \   \       
                 \___/    |_|  |_| |__|  |__|  |_| \__\ |__|  \__/        
                                                                              
                      - O R C A' S   B I G   F R I E N D -                    
                                      &                                       
                       - I N T E G R A L  F E E D E R -                       
                                                                              
 v1 FN, 2020, v2 2021, v3 2022-2024                                           
------------------------------------------------------------------------------


----------------------
SHARK INTEGRAL PACKAGE
----------------------

Number of atoms                             ...     20
Number of basis functions                   ...    222
Number of shells                            ...    110
Maximum angular momentum                    ...      2
Integral batch strategy                     ... SHARK/LIBINT Hybrid
RI-J (if used) integral strategy            ... SPLIT-RIJ (Revised 2003 algorithm where possible)
Printlevel                                  ...      1
Contraction scheme used                     ... SEGMENTED contraction
Prescreening option                         ... SCHWARTZ
   Thresh                                   ... 3.000e-11
   Tcut                                     ... 1.000e-12
   Tpresel                                  ... 1.000e-12 
Coulomb Range Separation                    ... NOT USED
Exchange Range Separation                   ... NOT USED
Multipole approximations                    ... NOT USED
Finite Nucleus Model                        ... NOT USED
CABS basis                                  ... NOT available
Auxiliary Coulomb fitting basis             ... AVAILABLE
   # of basis functions in Aux-J            ...    524
   # of shells in Aux-J                     ...    180
   Maximum angular momentum in Aux-J        ...      4
Auxiliary J/K fitting basis                 ... NOT available
Auxiliary Correlation fitting basis         ... NOT available
Auxiliary 'external' fitting basis          ... NOT available

Checking pre-screening integrals            ... done (  0.0 sec) Dimension = 110
Check shell pair data                       ... done (  0.0 sec)
Shell pair information
Shell pair cut-off parameter TPreSel        ...   1.0e-12
Total number of shell pairs                 ...      6105
Shell pairs after pre-screening             ...      5346
Total number of primitive shell pairs       ...     21533
Primitive shell pairs kept                  ...     13380
          la=0 lb=0:   1790 shell pairs
          la=1 lb=0:   2017 shell pairs
          la=1 lb=1:    588 shell pairs
          la=2 lb=0:    573 shell pairs
          la=2 lb=1:    326 shell pairs
          la=2 lb=2:     52 shell pairs

Calculating one electron integrals          ... done (  0.0 sec)
Calculating RI/J V-Matrix + Cholesky decomp.... done (  0.1 sec)
Calculating Nuclear repulsion               ... done (  0.0 sec) ENN=    391.276511477598 Eh

Diagonalization of the overlap matrix:
Smallest eigenvalue                        ... 1.275e-04
Time for diagonalization                   ...    0.007 sec
Threshold for overlap eigenvalues          ... 1.000e-07
Number of eigenvalues below threshold      ... 0
Time for construction of square roots      ...    0.019 sec
Total time needed                          ...    0.036 sec

-------------------
DFT GRID GENERATION
-------------------

General Integration Accuracy     IntAcc      ... 4.388
Radial Grid Type                 RadialGrid  ... OptM3 with GC (2021)
Angular Grid (max. ang.)         AngularGrid ... 4 (Lebedev-302)
Angular grid pruning method      GridPruning ... 4 (adaptive)
Weight generation scheme         WeightScheme... mBecke (2022)
Basis function cutoff            BFCut       ... 1.0000e-11
Integration weight cutoff        WCut        ... 1.0000e-14
Partially contracted basis set               ... off
Rotationally invariant grid construction     ... off
Angular grids for H and He will be reduced by one unit
Diffuse basis detected: some atoms will have their outermost
                        angular grid increased by 1.

Total number of grid points                  ...    87397
Total number of batches                      ...     1377
Average number of points per batch           ...       63
Average number of grid points per atom       ...     4370
Initializing property integral containers    ... done (  0.0 sec)

SHARK setup successfully completed in   1.3 seconds

Maximum memory used throughout the entire STARTUP-calculation: 39.4 MB
Occupation numbers will be reassigned to an Aufbau configuration
             **** ENERGY FILE WAS UPDATED (xtb_opt.en.tmp) ****
Finished Guess after   0.3 sec
Maximum memory used throughout the entire GUESS-calculation: 15.1 MB
--------------------
CPCM SOLVATION MODEL
--------------------
CPCM parameters:
  Epsilon                                         ...      78.3550
  Refrac                                          ...       1.3328
  Rsolv                                           ...       1.3000
  Surface type                                    ... GAUSSIAN VDW
  Discretization scheme                           ... Constant charge density
    Threshold for H atoms                         ...       5.0000 (charges/Ang^2)
    Threshold for non-H atoms                     ...       5.0000 (charges/Ang^2)
  Epsilon function type                           ...         CPCM
Solvent:                                          ... WATER
SMD-CDS solvent descriptors:
  Soln                                            ...       1.3328
  Soln25                                          ...       1.3323
  Sola                                            ...       0.0000
  Solb                                            ...       0.0000
  Solg                                            ...       0.0000
  Solc                                            ...       0.0000
  Solh                                            ...       0.0000
Radii:
  Scheme                                          ... Element-dependent radii
  Radius for C  used is    3.4960 Bohr (=   1.8500 Ang.)
  Radius for O  used is    2.8724 Bohr (=   1.5200 Ang.)
  Radius for H  used is    2.2677 Bohr (=   1.2000 Ang.)
Calculating surface                               ...        done! (  0.0s)
Cavity surface points                             ...         1498
Cavity Volume                                     ...     881.1436
Cavity Surface-area                               ...     591.1325
Calculating surface distance matrix               ...        done! (  0.0s)
Performing Cholesky decomposition & store         ...        done! (  0.1s)
Overall time for CPCM initialization              ...                 0.1s

----------------------------------------D-I-I-S--------------------------------------------
Iteration    Energy (Eh)           Delta-E    RMSDP     MaxDP     DIISErr   Damp  Time(sec)
-------------------------------------------------------------------------------------------
               ***  Starting incremental Fock matrix formation  ***
                              *** Initializing SOSCF ***
---------------------------------------S-O-S-C-F--------------------------------------
Iteration    Energy (Eh)           Delta-E    RMSDP     MaxDP     MaxGrad    Time(sec)
--------------------------------------------------------------------------------------
    1    -386.2555738895918012     0.00e+00  6.84e-06  2.63e-04  4.72e-05     3.8
               *** Restarting incremental Fock matrix formation ***
    2    -386.2555738099279097     7.97e-08  1.05e-05  4.15e-04  1.29e-04     3.7
    3    -386.2555729623672960     8.48e-07  7.22e-06  2.75e-04  2.70e-04     2.8
    4    -386.2555741468165706    -1.18e-06  1.19e-06  3.98e-05  1.46e-05     3.1
                  *** Gradient check signals convergence ***

               *****************************************************
               *                     SUCCESS                       *
               *           SCF CONVERGED AFTER   4 CYCLES          *
               *****************************************************


SMD CDS free energy correction energy :                 5.04573     Kcal/mol
Total Energy after SMD CDS correction =              -386.247533262 Eh
             **** ENERGY FILE WAS UPDATED (xtb_opt.en.tmp) ****

----------------
TOTAL SCF ENERGY
----------------

Total Energy       :       -386.24753326182889 Eh          -10510.32971 eV

Components:
Nuclear Repulsion  :        391.27651147759821 Eh           10647.17517 eV
Electronic Energy  :       -777.51629122645136 Eh          -21157.29390 eV
One Electron Energy:      -1299.85653119303174 Eh          -35370.89444 eV
Two Electron Energy:        522.34023996658038 Eh           14213.60053 eV
CPCM Dielectric    :         -0.01579439796338 Eh              -0.42979 eV
SMD CDS (Gcds)     :          0.00804088498770 Eh               0.21880 eV

Virial components:
Potential Energy   :       -770.88983085046380 Eh          -20976.97875 eV
Kinetic Energy     :        384.64229758863496 Eh           10466.64903 eV
Virial Ratio       :          2.00417332072748

DFT components:
N(Alpha)           :       31.999976459299 electrons
N(Beta)            :       31.999976459299 electrons
N(Total)           :       63.999952918599 electrons
E(X)               :      -52.086012519021 Eh       
E(C)               :       -2.037066881162 Eh       
E(XC)              :      -54.123079400183 Eh       

CPCM Solvation Model Properties:
Surface-charge          :         -0.04753632126467
Corrected charge        :         -0.00000000000000
Outlying charge corr.   :          0.00016984705101 Eh               0.00462 eV
Free-energy (cav+disp)  :          0.00804088498770 Eh               0.21880 eV

---------------
SCF CONVERGENCE
---------------

  Last Energy change         ...    1.1844e-06  Tolerance :   1.0000e-07
  Last MAX-Density change    ...    3.9838e-05  Tolerance :   1.0000e-07
  Last RMS-Density change    ...    1.1941e-06  Tolerance :   5.0000e-09
  Last DIIS Error            ...    3.8036e-04  Tolerance :   1.0000e-07
  Last Orbital Gradient      ...    1.4564e-05  Tolerance :   1.0000e-04
  Last Orbital Rotation      ...    5.4154e-05  Tolerance :   1.0000e-04


----------------
ORBITAL ENERGIES
----------------

  NO   OCC          E(Eh)            E(eV) 
   0   2.0000     -19.001557      -517.0587 
   1   2.0000     -18.942591      -515.4541 
   2   2.0000     -10.161720      -276.5145 
   3   2.0000     -10.083212      -274.3782 
   4   2.0000     -10.034619      -273.0559 
   5   2.0000     -10.030557      -272.9453 
   6   2.0000     -10.018202      -272.6091 
   7   2.0000     -10.011986      -272.4400 
   8   2.0000      -1.078299       -29.3420 
   9   2.0000      -0.988224       -26.8909 
  10   2.0000      -0.769851       -20.9487 
  11   2.0000      -0.732502       -19.9324 
  12   2.0000      -0.674156       -18.3447 
  13   2.0000      -0.616086       -16.7646 
  14   2.0000      -0.561343       -15.2749 
  15   2.0000      -0.519912       -14.1475 
  16   2.0000      -0.472435       -12.8556 
  17   2.0000      -0.461316       -12.5531 
  18   2.0000      -0.439175       -11.9506 
  19   2.0000      -0.425038       -11.5659 
  20   2.0000      -0.408114       -11.1054 
  21   2.0000      -0.384085       -10.4515 
  22   2.0000      -0.363018        -9.8782 
  23   2.0000      -0.357325        -9.7233 
  24   2.0000      -0.355704        -9.6792 
  25   2.0000      -0.339807        -9.2466 
  26   2.0000      -0.320234        -8.7140 
  27   2.0000      -0.305789        -8.3209 
  28   2.0000      -0.303756        -8.2656 
  29   2.0000      -0.300648        -8.1810 
  30   2.0000      -0.276882        -7.5343 
  31   2.0000      -0.248789        -6.7699 
  32   0.0000      -0.022559        -0.6138 
  33   0.0000       0.079288         2.1575 
  34   0.0000       0.098903         2.6913 
  35   0.0000       0.113065         3.0767 
  36   0.0000       0.130644         3.5550 
  37   0.0000       0.135717         3.6931 
  38   0.0000       0.139496         3.7959 
  39   0.0000       0.143924         3.9164 
  40   0.0000       0.153546         4.1782 
  41   0.0000       0.168013         4.5719 
  42   0.0000       0.170443         4.6380 
*Only the first 10 virtual orbitals were printed.
Total SCF time: 0 days 0 hours 0 min 14 sec 
Finished LeanSCF after  14.3 sec

Maximum memory used throughout the entire LEANSCF-calculation: 30.5 MB


-------------------------------------------------------------------------------
                          DFT DISPERSION CORRECTION                            
                                                                               
                                DFTD4 V3.4.0                                   
-------------------------------------------------------------------------------
-------------------------   ----------------
Dispersion correction           -0.005030336
-------------------------   ----------------

------------------   -----------------
gCP correction             0.011655810
------------------   -----------------

-------------------------   --------------------
FINAL SINGLE POINT ENERGY      -386.240907787363
-------------------------   --------------------

------------------------------------------------------------------------------
                         ORCA SCF GRADIENT CALCULATION
------------------------------------------------------------------------------

Nuc. rep. gradient        (SHARK) ... done (  0.0 sec)
HCore & Overlap gradient  (SHARK) ... done (  0.4 sec)
Split-RIJ-J gradient      (SHARK) ... done (  1.9 sec)
XC gradient                       ... done (  7.0 sec)
CPCM gradient                     ... done (  1.1 sec)
SMD gradient                      ... done (  0.0 sec)
Dispersion correction             ... done (  0.0 sec)

-------------------
DISPERSION GRADIENT
-------------------

   1   C   :   -0.000073323   -0.000033063    0.000004485
   2   C   :   -0.000070434   -0.000024587    0.000015958
   3   C   :   -0.000057859    0.000024846   -0.000027111
   4   C   :    0.000012193    0.000048800   -0.000014564
   5   O   :    0.000010667    0.000086337    0.000022083
   6   O   :    0.000045153    0.000009128   -0.000035676
   7   C   :    0.000077251    0.000006244   -0.000014762
   8   C   :    0.000085142   -0.000030209    0.000027379
   9   H   :   -0.000027185   -0.000016489   -0.000003627
  10   H   :   -0.000023390   -0.000016890    0.000007613
  11   H   :   -0.000028589   -0.000008120    0.000003925
  12   H   :   -0.000034281   -0.000024103    0.000004120
  13   H   :   -0.000031179   -0.000005062    0.000018856
  14   H   :   -0.000015570    0.000021366   -0.000005152
  15   H   :   -0.000016605    0.000004614   -0.000024089
  16   H   :    0.000027428   -0.000005859   -0.000014767
  17   H   :    0.000021648    0.000006182   -0.000003936
  18   H   :    0.000026654   -0.000011277    0.000010401
  19   H   :    0.000036242   -0.000007797    0.000019703
  20   H   :    0.000036040   -0.000024060    0.000009162

Difference to translation invariance:
           :    0.0000000000    0.0000000000   -0.0000000000

Difference to rotation invariance:
           :   -0.0000000000    0.0000000000    0.0000000000

Norm of the Dispersion gradient    ...    0.0002451075
RMS gradient                       ...    0.0000316432
MAX gradient                       ...    0.0000863366
gCP correction                   ... done

------------------
CARTESIAN GRADIENT
------------------

   1   C   :   -0.006012446   -0.001001534   -0.002117946
   2   C   :    0.002974735   -0.001024869    0.002501525
   3   C   :   -0.005425113    0.001382789   -0.004108625
   4   C   :    0.014232261   -0.001985950    0.003777200
   5   O   :   -0.002900809   -0.009676564   -0.009984955
   6   O   :    0.000911861    0.013073781    0.010441015
   7   C   :   -0.011703385   -0.002226740   -0.007991422
   8   C   :    0.007158267   -0.004757570    0.007172529
   9   H   :    0.001485161    0.002010487    0.004790492
  10   H   :    0.003001487    0.003652644   -0.002519522
  11   H   :    0.003966415   -0.003624022   -0.000184606
  12   H   :   -0.001994206    0.002134215   -0.001049200
  13   H   :   -0.000954312   -0.000005007   -0.002621021
  14   H   :    0.000715470   -0.002166228    0.000738965
  15   H   :    0.001761345    0.000090245    0.003024347
  16   H   :   -0.000886437   -0.000699012    0.000718871
  17   H   :   -0.001891498    0.000618619    0.002537164
  18   H   :   -0.005520547   -0.000086358   -0.000935175
  19   H   :    0.001066747   -0.000615662   -0.004167521
  20   H   :    0.000015003    0.004906736   -0.000022113

Difference to translation invariance:
           :   -0.0000000000   -0.0000000000   -0.0000000000

Difference to rotation invariance:
           :   -0.0001868172   -0.0001307894    0.0001835022

Norm of the Cartesian gradient     ...    0.0367307047
RMS gradient                       ...    0.0047419136
MAX gradient                       ...    0.0142322614

-------
TIMINGS
-------

Total SCF gradient time     ....       11.277 sec

Densities                   ....       0.001 sec  (  0.0%)
One electron gradient       ....       0.382 sec  (  3.4%)
RI-J Coulomb gradient       ....       1.857 sec  ( 16.5%)
XC gradient                 ....       7.034 sec  ( 62.4%)
CPCM gradient               ....       1.062 sec  (  9.4%)
   A-Matrix (El+Nuc)        ....       0.080 sec  (  0.7%)
   Potential                ....       0.982 sec  (  8.7%)
SMD gradient                ....       0.014 sec  (  0.1%)

Maximum memory used throughout the entire SCFGRAD-calculation: 35.4 MB

------------------------------------------------------------------------------
                              ORCA PROPERTY CALCULATIONS
------------------------------------------------------------------------------

GBWName                                 ... xtb_opt.gbw
Number of atoms                         ...     20
Number of basis functions               ...    222
Max core memory                         ...   1024 MB

Electric properties:
Dipole moment                           ... YES
Quadrupole moment                       ...  NO
Static polarizability (Dipole/Dipole)   ...  NO
Static polarizability (Dipole/Quad.)    ...  NO
Static polarizability (Quad./Quad.)     ...  NO
Static polarizability (Velocity)        ...  NO

Atomic electric properties:
Dipole moment                           ...  NO
Quadrupole moment                       ...  NO
Static polarizability                   ...  NO

Choice of electric origin               ... Center of mass
Position of electric origin             ...    -0.000014    -0.000020     0.000003

General magnetic properties:
Magnetizability                         ...  NO

EPR properties:
g-Tensor (aka g-matrix)                 ...  NO
Zero-Field splitting spin-orbit         ...  NO
Zero-field splitting spin-spin          ...  NO
Hyperfine couplings                     ...  NO (   0 nuclei)
Quadrupole couplings                    ...  NO (   0 nuclei)
Contact density                         ...  NO (   0 nuclei)

NMR properties:
Chemical shifts                         ...  NO (   0 nuclei)
Spin-rotation constants                 ...  NO (   0 nuclei)
Spin-spin couplings                     ...  NO (   0 nuclei,    0 pairs)

Choice of magnetic origin               ... GIAO
Position of magnetic origin             ...     0.000000     0.000000     0.000000

Properties with geometric perturbations:
SCF Hessian                             ...  NO
IR spectrum                             ...  NO
VCD spectrum                            ...  NO
X-ray spectroscopy properties:
SCF XES/XAS/RIXS spectra                ...  NO


-------------
DIPOLE MOMENT
-------------

Method             : SCF
Type of density    : Electron Density
Multiplicity       :   1
Irrep              :   0
Energy             :  -386.2475332618288917 Eh
Relativity type    : 
Basis              : AO
                                X                 Y                 Z
Electronic contribution:      3.472672539       4.890749857      -1.843367680
Nuclear contribution   :     -3.385054358      -5.924652973       1.278496343
                        -----------------------------------------
Total Dipole Moment    :      0.087618182      -1.033903117      -0.564871337
                        -----------------------------------------
Magnitude (a.u.)       :      1.181402653
Magnitude (Debye)      :      3.002886900



--------------------
Rotational spectrum 
--------------------
 
Rotational constants in cm-1:             0.131085             0.033353             0.030733 
Rotational constants in MHz :          3929.821630           999.885004           921.340495 

Dipole components along the rotational axes: 
x,y,z [a.u.] :    -0.041217    -0.980260    -0.658106 
x,y,z [Debye]:    -0.104764    -2.491623    -1.672773 

 

Dipole moment calculation done in   0.0 sec 

Maximum memory used throughout the entire PROP-calculation: 13.9 MB

--------------------------------
SUGGESTED CITATIONS FOR THIS RUN
--------------------------------

Below you find a list of papers that are relevant to this ORCA run
We neither can nor want to force you to cite these papers, but we appreciate if you do
You receive ORCA, which is the product of decades of hard work by many enthusiastic individuals, for free
The only thing we kindly ask in return is that you cite our papers,
We deeply appreciate it, if you show your appreciation for ORCA by not just citing the generic ORCA reference.

Please note that relegating all ORCA citations to the supporting information does *not* help us.
SI sections are not indexed - citations you put there will not count into any citation statistics
But we need these citations in order to attract the funding resources that allow us to do what we are doing

Therefore, if you are a happy ORCA user, please consider citing a few of the papers listed below in the main body of your paper

In addition to the list printed below, the program has created the file xtb_opt.bibtex that contains the list in bibtex format
You can import this file easily into all common literature databanks and citation aid programs


List of essential papers. We consider these as the minimum necessary citations

  1. Neese,F.
     Software update: the ORCA program system, version 5.0
     WIRES Comput. Molec. Sci., 2022 12(1)e1606
     doi.org/10.1002/wcms.1606
  2. Grimme,S.; Hansen,A.; Ehlert,S.; Mewes,J.
     r2SCAN-3c: A 'Swiss army knife' composite electronic-structure method
     J. Chem. Phys., 2021 154 064103
     doi.org/10.1063/5.0040021

List of papers to cite with high priority. The work reported in these papers was absolutely
necessary for this run to complete.
Our perspective: the developers of density functionals and basis sets usually get cited in chemistry papers
Good! But without the algorithms to do something with them, the functionals or basis sets would not do anything.
Hence, in our opinion, the algorithm design and method developments papers are equally worthy of getting cited

  1. Neese,F.
     An improvement of the resolution of the identity approximation for the formation of the Coulomb matrix
     J. Comp. Chem., 2003 24(14)1740-1747
     doi.org/10.1002/jcc.10318
  2. Garcia-Rates,M.; Neese,F.
     Effect of the Solute Cavity on the Solvation Energy and its Derivatives within the Framework of the Gaussian Charge Scheme
     J. Comput. Chem., 2020 41 922-939
     doi.org/10.1002/jcc.26139
  3. Neese,F.
     The SHARK Integral Generation and Digestion System
     J. Comp. Chem., 2022  1-16
     doi.org/10.1002/jcc.26942
  4. Lehtola,S.; Steigemann,C.; Oliveira,M.; Marques,M.
     Recent developments in Libxc - A comprehensive library of functionals for density functional theory
     Software X, 2018 7 
     doi.org/10.1016/j.softx.2017.11.002
  5. Caldeweyher,E.; Bannwarth,C.; Grimme,S.
     Extension of the D3 dispersion coefficient model
     J. Chem. Phys., 2017 147 034112-XXXX
     doi.org/10.1063/1.4993215
  6. Caldeweyher,E.; Ehlert,S.; Hansen,A.; Neugebauer,H.; Spicher,S.; Bannwarth,C.; Grimme,S.
     A generally applicable atomic-charge dependent London dispersion correction
     J. Chem. Phys., 2019 150 154122-XXXX
     doi.org/10.1063/1.5090222
  7. Caldeweyher,E.; Mewes,J.; Ehlert,S.; Grimme,S.
     Extension and evaluation of the D4 London-dispersion model for periodic systems
     Phys. Chem. Chem. Phys., 2020 22(16)8499-8512
     doi.org/10.1039/D0CP00502A

List of suggested additional citations. These are papers that are important in the 'surrounding' of 
of this run, or papers that preceded the highly important papers. If you like your results we are grateful for a citation.

  1. Neese,F.
     The ORCA program system
     WIRES Comput. Molec. Sci., 2012 2(1)73-78
     doi.org/10.1002/wcms.81
  2. Neese,F.
     Software update: the ORCA program system, version 4.0
     WIRES Comput. Molec. Sci., 2018 8(1)1-6
     doi.org/10.1002/wcms.1327
  3. Neese,F.; Wennmohs,F.; Becker,U.; Riplinger,C.
     The ORCA quantum chemistry program package
     J. Chem. Phys., 2020 152 Art. No. L224108
     doi.org/10.1063/5.0004608

List of optional additional citations

  1. Neese,F.
     Approximate second-order SCF convergence for spin unrestricted wavefunctions
     Chem. Phys. Lett., 2000 325(1-3)93-98
     doi.org/10.1016/s0009-2614(00)00662-x

Timings for individual modules:

Sum of individual times          ...       27.513 sec (=   0.459 min)
Startup calculation              ...        1.330 sec (=   0.022 min)   4.8 %
SCF iterations                   ...       14.650 sec (=   0.244 min)  53.2 %
Property calculations            ...        0.126 sec (=   0.002 min)   0.5 %
SCF Gradient evaluation          ...       11.407 sec (=   0.190 min)  41.5 %
                             ****ORCA TERMINATED NORMALLY****
TOTAL RUN TIME: 0 days 0 hours 0 minutes 28 seconds 982 msec
  ------------------------------------------------------------------------
          * successful ORCA run, taking over control again...

         :::::::::::::::::::::::::::::::::::::::::::::::::::::
         ::                  ORCA SUMMARY                   ::
         :::::::::::::::::::::::::::::::::::::::::::::::::::::
         :: total energy            -386.240907787363 Eh    ::
         :: gradient norm              0.036730704671 Eh/a0 ::
         :: HOMO-LUMO gap              0.000000000000 eV    ::
         :::::::::::::::::::::::::::::::::::::::::::::::::::::

      ----------------------------------------------------------- 
     |                       L-ANC optimizer                     |
      ----------------------------------------------------------- 
          low memory version by Sebastian Ehlert

          ...................................................
          :                      SETUP                      :
          :.................................................:
          :   energy convergence        0.5000000E-05 Eh    :
          :   grad. convergence         0.1000000E-02 Eh/a0 :
          :   optimization log               true           :
          :   writing optlog all                1     steps :
          :   Hessian reset                     8     steps :
          :   maximium step len.        1.0000000     a0    :
          :   LBFGS images                      8           :
          ...................................................
 * calculating model hessian...
Using Lindh-Hessian (1995)
 Shifting diagonal of input Hessian by   1.000000000000000E-002
 Lowest  eigenvalues of input Hessian
    0.000000    0.000000    0.000000    0.000000    0.000000    0.000000
    0.011162    0.012710    0.012888    0.017955    0.019503    0.020247
    0.023400    0.027649    0.034062    0.040665    0.052733    0.054322
 Highest eigenvalues
    1.218368    1.233461    1.247397    1.309023    1.811468    2.339142
 

........................................................................
.............................. CYCLE    1 ..............................
........................................................................
                         * ORCA takes the control...
  ------------------------------------------------------------------------

                                 *****************
                                 * O   R   C   A *
                                 *****************

                                            #,                                       
                                            ###                                      
                                            ####                                     
                                            #####                                    
                                            ######                                   
                                           ########,                                 
                                     ,,################,,,,,                         
                               ,,#################################,,                 
                          ,,##########################################,,             
                       ,#########################################, ''#####,          
                    ,#############################################,,   '####,        
                  ,##################################################,,,,####,       
                ,###########''''           ''''###############################       
              ,#####''   ,,,,##########,,,,          '''####'''          '####       
            ,##' ,,,,###########################,,,                        '##       
           ' ,,###''''                  '''############,,,                           
         ,,##''                                '''############,,,,        ,,,,,,###''
      ,#''                                            '''#######################'''  
     '                                                          ''''####''''         
             ,#######,   #######,   ,#######,      ##                                
            ,#'     '#,  ##    ##  ,#'     '#,    #''#        ,####,   ,####,        
            ##       ##  ##   ,#'  ##            #'  '#       #'       #'  '#        
            ##       ##  #######   ##           ,######,      #####,   #    #        
            '#,     ,#'  ##    ##  '#,     ,#' ,#      #,     #,   #   #,  ,#        
             '#######'   ##     ##  '#######'  #'      '#     '####' # '####'        



                #########################################################
                #                        -***-                          #
                #          Department of theory and spectroscopy        #
                #                                                       #
                #                      Frank Neese                      #
                #                                                       #
                #     Directorship, Architecture, Infrastructure        #
                #                    SHARK, DRIVERS                     #
                #        Core code/Algorithms in most modules           #
                #                                                       #
                #        Max Planck Institute fuer Kohlenforschung      #
                #                Kaiser Wilhelm Platz 1                 #
                #                 D-45470 Muelheim/Ruhr                 #
                #                      Germany                          #
                #                                                       #
                #                  All rights reserved                  #
                #                        -***-                          #
                #########################################################


                         Program Version 6.0.0  -   RELEASE  -


 With contributions from (in alphabetic order):
   Daniel Aravena         : Magnetic Suceptibility
   Michael Atanasov       : Ab Initio Ligand Field Theory (pilot matlab implementation)
   Alexander A. Auer      : GIAO ZORA, VPT2 properties, NMR spectrum
   Ute Becker             : All parallelization in ORCA, NUMFREQ, NUMCALC
   Giovanni Bistoni       : ED, misc. LED, open-shell LED, HFLD
   Martin Brehm           : Molecular dynamics
   Dmytro Bykov           : pre 5.0 version of the SCF Hessian
   Marcos Casanova-Páez   : Triplet and SCS-CIS(D). UHF-(DLPNO)-IP/EA/STEOM-CCSD. UHF-CVS-IP/STEOM-CCSD
   Vijay G. Chilkuri      : MRCI spin determinant printing, contributions to CSF-ICE
   Pauline Colinet        : FMM embedding
   Dipayan Datta          : RHF DLPNO-CCSD density
   Achintya Kumar Dutta   : EOM-CC, STEOM-CC
   Nicolas Foglia         : Exact transition moments, OPA infrastructure, MCD improvements
   Dmitry Ganyushin       : Spin-Orbit,Spin-Spin,Magnetic field MRCI
   Miquel Garcia          : C-PCM and meta-GGA Hessian, CCSD/C-PCM, Gaussian charge scheme
   Tiago L. C. Gouveia    : GS-ROHF, GS-ROCIS
   Yang Guo               : DLPNO-NEVPT2, F12-NEVPT2, CIM, IAO-localization
   Andreas Hansen         : Spin unrestricted coupled pair/coupled cluster methods
   Ingolf Harden          : AUTO-CI MPn and infrastructure 
   Benjamin Helmich-Paris : MC-RPA, TRAH-(SCF,CASSCF), AVAS, COSX integrals, SCF dyn. polar.
   Lee Huntington         : MR-EOM, pCC
   Robert Izsak           : Overlap fitted RIJCOSX, COSX-SCS-MP3, EOM
   Riya Kayal             : Wick's Theorem for AUTO-CI, AUTO-CI UHF-CCSDT
   Emily Kempfer          : AUTO-CI, RHF CISDT and CCSDT
   Christian Kollmar      : KDIIS, OOCD, Brueckner-CCSD(T), CCSD density, CASPT2, CASPT2-K, improved NEVPT2
   Axel Koslowski         : Symmetry handling
   Simone Kossmann        : Meta GGA functionals, TD-DFT gradient, OOMP2, (MP2 Hessian; deprecated post 5.0)
   Lucas Lang             : DCDCAS
   Marvin Lechner         : AUTO-CI (C++ implementation), FIC-MRCC
   Spencer Leger          : CASSCF response
   Dagmar Lenk            : GEPOL surface, SMD, ORCA-2-JSON
   Dimitrios Liakos       : Extrapolation schemes; Compound Job, initial MDCI parallelization
   Dimitrios Manganas     : Further ROCIS development; embedding schemes. LFT, Crystal Embedding
   Dimitrios Pantazis     : SARC Basis sets
   Anastasios Papadopoulos: AUTO-CI, single reference methods and gradients
   Taras Petrenko         : pre 6.0 DFT Hessian and TD-DFT gradient, (ASA, deprecated), ECA, 1-Electron XAS/XES, NRVS
   Peter Pinski           : DLPNO-MP2, DLPNO-MP2 Gradient
   Christoph Reimann      : Effective Core Potentials
   Marius Retegan         : Local ZFS, SOC
   Christoph Riplinger    : Optimizer, TS searches, QM/MM, DLPNO-CCSD(T), (RO)-DLPNO pert. Triples
   Michael Roemelt        : Original ROCIS implementation
   Masaaki Saitow         : Open-shell DLPNO-CCSD energy and density
   Barbara Sandhoefer     : DKH picture change effects
   Kantharuban Sivalingam : CASSCF convergence/infrastructure, NEVPT2 and variants, FIC-MRCI
   Bernardo de Souza      : ESD, SOC TD-DFT
   Georgi Stoychev        : AutoAux, RI-MP2 NMR, DLPNO-MP2 response, X2C
   Van Anh Tran           : RI-MP2 g-tensors
   Willem Van den Heuvel  : Paramagnetic NMR
   Zikuan Wang            : NOTCH, Electric field optimization 
   Frank Wennmohs         : Technical directorship and infrastructure
   Hang Xu                : AUTO-CI-Response properties 


 We gratefully acknowledge several colleagues who have allowed us to
 interface, adapt or use parts of their codes:
   Stefan Grimme, W. Hujo, H. Kruse, P. Pracht,  : VdW corrections, initial TS optimization,
                  C. Bannwarth, S. Ehlert,         DFT functionals, gCP, sTDA/sTD-DF
                  L. Wittmann, M. Mueller
   Ed Valeev, F. Pavosevic, A. Kumar             : LibInt (2-el integral package), F12 methods
   Garnet Chan, S. Sharma, J. Yang, R. Olivares  : DMRG
   Ulf Ekstrom                                   : XCFun DFT Library
   Mihaly Kallay                                 : mrcc  (arbitrary order and MRCC methods)
   Frank Weinhold                                : gennbo (NPA and NBO analysis)
   Simon Mueller                                 : openCOSMO-RS
   Christopher J. Cramer and Donald G. Truhlar   : smd solvation model
   Lars Goerigk                                  : TD-DFT with DH, B97 family of functionals
   V. Asgeirsson, H. Jonsson                     : NEB implementation
   FAccTs GmbH                                   : IRC, NEB, NEB-TS, DLPNO-Multilevel, CI-OPT
                                                   MM, QMMM, 2- and 3-layer-ONIOM, Crystal-QMMM,
                                                   LR-CPCM, SF, NACMEs, symmetry and pop. for TD-DFT,
                                                   nearIR, NL-DFT gradient (VV10), updates on ESD,
                                                   ML-optimized integration grids, MBIS, APM,
                                                   GOAT, DOCKER, SOLVATOR, interface openCOSMO-RS
   S Lehtola, MJT Oliveira, MAL Marques          : LibXC Library
   Liviu Ungur et al                             : ANISO software


 Your calculation uses the libint2 library for the computation of 2-el integrals
 For citations please refer to: http://libint.valeyev.net

 Your ORCA version has been built with support for libXC version: 6.2.2
 For citations please refer to: https://libxc.gitlab.io

 This ORCA versions uses:
   CBLAS   interface :  Fast vector & matrix operations
   LAPACKE interface :  Fast linear algebra routines
   SCALAPACK package :  Parallel linear algebra routines
   Shared memory     :  Shared parallel matrices
   BLAS/LAPACK       :  OpenBLAS 0.3.27  USE64BITINT DYNAMIC_ARCH NO_AFFINITY SkylakeX SINGLE_THREADED
        Core in use  :  SkylakeX
   Copyright (c) 2011-2014, The OpenBLAS Project




***************************************
The coordinates will be read from file: xtb_opt.xyz
***************************************


Your calculation utilizes the geometrical counterpoise correction gCP
Please cite in your paper:
H.Kruse, S. Grimme J.Chem.Phys., 136, (2012), 154101 
   

Your calculation utilizes the atom-pairwise dispersion correction
based on EEQ partial charges (D4)


Your calculation utilizes the SMD solvation module
Please cite in your paper:
A.V. Marenich, C.J. Cramer, D.G. Truhlar J. Phys. Chem. B, 113, (2009), 6378 

================================================================================

----- Orbital basis set information -----
Your calculation utilizes the basis: def2-mTZVPP
   Stefan Grimme, Andreas Hansen, Sebastian Ehlert, and Jan-Michael Mewes 
   J. Chem. Phys. 154, 064103 (2021). DOI: 10.1063/5.0040021

----- AuxJ basis set information -----
Your calculation utilizes the auxiliary basis: def2/J
   F. Weigend, Phys. Chem. Chem. Phys. 8, 1057 (2006).

================================================================================
                                        WARNINGS
                       Please study these warnings very carefully!
================================================================================

WARNING: Old DensityContainer found on disk!
         Will remove this file - 
         If you want to keep old densities, please start your calculation with a different basename. 

Using LibXC functional ID 497 : Re-regularized SCAN exchange by Furness et al
[ 1]  J. W. Furness, A. D. Kaplan, J. Ning, J. P. Perdew, and J. Sun.,  J. Phys. Chem. Lett. 11, 8208-8215 (2020)
[ 2]  J. W. Furness, A. D. Kaplan, J. Ning, J. P. Perdew, and J. Sun.,  J. Phys. Chem. Lett. 11, 9248-9248 (2020)
Using LibXC functional ID 498 : Re-regularized SCAN correlation by Furness et al
[ 1]  J. W. Furness, A. D. Kaplan, J. Ning, J. P. Perdew, and J. Sun.,  J. Phys. Chem. Lett. 11, 8208-8215 (2020)
[ 2]  J. W. Furness, A. D. Kaplan, J. Ning, J. P. Perdew, and J. Sun.,  J. Phys. Chem. Lett. 11, 9248-9248 (2020)
Using LibXC functional ID 497 : Re-regularized SCAN exchange by Furness et al
[ 1]  J. W. Furness, A. D. Kaplan, J. Ning, J. P. Perdew, and J. Sun.,  J. Phys. Chem. Lett. 11, 8208-8215 (2020)
[ 2]  J. W. Furness, A. D. Kaplan, J. Ning, J. P. Perdew, and J. Sun.,  J. Phys. Chem. Lett. 11, 9248-9248 (2020)
Using LibXC functional ID 498 : Re-regularized SCAN correlation by Furness et al
[ 1]  J. W. Furness, A. D. Kaplan, J. Ning, J. P. Perdew, and J. Sun.,  J. Phys. Chem. Lett. 11, 8208-8215 (2020)
[ 2]  J. W. Furness, A. D. Kaplan, J. Ning, J. P. Perdew, and J. Sun.,  J. Phys. Chem. Lett. 11, 9248-9248 (2020)

================================================================================
                                       INPUT FILE
================================================================================
NAME = xtb_opt.inp
|  1> ! r2scan-3c def2/J RI DEFGRID2 scfconv7 ENGRAD tightSCF miniprint
|  2> %cpcm
|  3>     smd true
|  4>     smdsolvent "water"
|  5> end
|  6> * xyzfile 0 1 xtb_opt.xyz
|  7> 
|  8>                          ****END OF INPUT****
================================================================================

                     *******************************
                     * Energy+Gradient Calculation *
                     *******************************

---------------------------------
CARTESIAN COORDINATES (ANGSTROEM)
---------------------------------
  C     -3.321476   -1.089395    0.105847
  C     -1.875576   -0.721050    0.420597
  C     -1.353204    0.365145   -0.535769
  C      0.062679    0.718606   -0.180662
  O      0.384370    1.594183    0.608116
  O      0.935747   -0.096483   -0.783665
  C      2.340986    0.050785   -0.464737
  C      2.700144   -0.768405    0.760911
  H     -3.410063   -1.469692   -0.915286
  H     -3.680822   -1.861570    0.790090
  H     -3.973765   -0.217382    0.202383
  H     -1.237856   -1.607045    0.337559
  H     -1.797676   -0.355953    1.450099
  H     -1.965073    1.265096   -0.443766
  H     -1.391807   -0.000969   -1.564582
  H      2.860578   -0.311923   -1.352783
  H      2.566397    1.110547   -0.318846
  H      3.774820   -0.689101    0.937326
  H      2.173934   -0.397574    1.643749
  H      2.446446   -1.820250    0.610753

----------------------------
CARTESIAN COORDINATES (A.U.)
----------------------------
  NO LB      ZA    FRAG     MASS         X           Y           Z
   0 C     6.0000    0    12.011   -6.276680   -2.058658    0.200022
   1 C     6.0000    0    12.011   -3.544325   -1.362586    0.794814
   2 C     6.0000    0    12.011   -2.557185    0.690024   -1.012457
   3 C     6.0000    0    12.011    0.118446    1.357968   -0.341401
   4 O     8.0000    0    15.999    0.726354    3.012569    1.149172
   5 O     8.0000    0    15.999    1.768305   -0.182327   -1.480912
   6 C     6.0000    0    12.011    4.423822    0.095970   -0.878225
   7 C     6.0000    0    12.011    5.102533   -1.452075    1.437913
   8 H     1.0000    0     1.008   -6.444085   -2.777316   -1.729639
   9 H     1.0000    0     1.008   -6.955746   -3.517858    1.493054
  10 H     1.0000    0     1.008   -7.509328   -0.410793    0.382448
  11 H     1.0000    0     1.008   -2.339208   -3.036874    0.637895
  12 H     1.0000    0     1.008   -3.397115   -0.672653    2.740290
  13 H     1.0000    0     1.008   -3.713450    2.390686   -0.838597
  14 H     1.0000    0     1.008   -2.630134   -0.001831   -2.956632
  15 H     1.0000    0     1.008    5.405708   -0.589449   -2.556389
  16 H     1.0000    0     1.008    4.849788    2.098630   -0.602532
  17 H     1.0000    0     1.008    7.133376   -1.302212    1.771290
  18 H     1.0000    0     1.008    4.108140   -0.751306    3.106235
  19 H     1.0000    0     1.008    4.623113   -3.439773    1.154155

------------------------------------------------------------------------------
                   ___                                                        
                  /   \      - P O W E R E D   B Y -                         
                 /     \                                                     
                 |  |  |   _    _      __       _____    __    __             
                 |  |  |  | |  | |    /  \     |  _  \  |  |  /  |          
                  \  \/   | |  | |   /    \    | | | |  |  | /  /          
                 / \  \   | |__| |  /  /\  \   | |_| |  |  |/  /          
                |  |  |   |  __  | /  /__\  \  |    /   |      \           
                |  |  |   | |  | | |   __   |  |    \   |  |\   \          
                \     /   | |  | | |  |  |  |  | |\  \  |  | \   \       
                 \___/    |_|  |_| |__|  |__|  |_| \__\ |__|  \__/        
                                                                              
                      - O R C A' S   B I G   F R I E N D -                    
                                      &                                       
                       - I N T E G R A L  F E E D E R -                       
                                                                              
 v1 FN, 2020, v2 2021, v3 2022-2024                                           
------------------------------------------------------------------------------


----------------------
SHARK INTEGRAL PACKAGE
----------------------

Number of atoms                             ...     20
Number of basis functions                   ...    222
Number of shells                            ...    110
Maximum angular momentum                    ...      2
Integral batch strategy                     ... SHARK/LIBINT Hybrid
RI-J (if used) integral strategy            ... SPLIT-RIJ (Revised 2003 algorithm where possible)
Printlevel                                  ...      1
Contraction scheme used                     ... SEGMENTED contraction
Prescreening option                         ... SCHWARTZ
   Thresh                                   ... 3.000e-11
   Tcut                                     ... 1.000e-12
   Tpresel                                  ... 1.000e-12 
Coulomb Range Separation                    ... NOT USED
Exchange Range Separation                   ... NOT USED
Multipole approximations                    ... NOT USED
Finite Nucleus Model                        ... NOT USED
CABS basis                                  ... NOT available
Auxiliary Coulomb fitting basis             ... AVAILABLE
   # of basis functions in Aux-J            ...    524
   # of shells in Aux-J                     ...    180
   Maximum angular momentum in Aux-J        ...      4
Auxiliary J/K fitting basis                 ... NOT available
Auxiliary Correlation fitting basis         ... NOT available
Auxiliary 'external' fitting basis          ... NOT available

Checking pre-screening integrals            ... done (  0.0 sec) Dimension = 110
Check shell pair data                       ... done (  0.0 sec)
Shell pair information
Shell pair cut-off parameter TPreSel        ...   1.0e-12
Total number of shell pairs                 ...      6105
Shell pairs after pre-screening             ...      5344
Total number of primitive shell pairs       ...     21533
Primitive shell pairs kept                  ...     13357
          la=0 lb=0:   1788 shell pairs
          la=1 lb=0:   2016 shell pairs
          la=1 lb=1:    588 shell pairs
          la=2 lb=0:    573 shell pairs
          la=2 lb=1:    327 shell pairs
          la=2 lb=2:     52 shell pairs

Calculating one electron integrals          ... done (  0.0 sec)
Calculating RI/J V-Matrix + Cholesky decomp.... done (  0.1 sec)
Calculating Nuclear repulsion               ... done (  0.0 sec) ENN=    390.000644635617 Eh

Diagonalization of the overlap matrix:
Smallest eigenvalue                        ... 1.317e-04
Time for diagonalization                   ...    0.011 sec
Threshold for overlap eigenvalues          ... 1.000e-07
Number of eigenvalues below threshold      ... 0
Time for construction of square roots      ...    0.015 sec
Total time needed                          ...    0.036 sec

-------------------
DFT GRID GENERATION
-------------------

General Integration Accuracy     IntAcc      ... 4.388
Radial Grid Type                 RadialGrid  ... OptM3 with GC (2021)
Angular Grid (max. ang.)         AngularGrid ... 4 (Lebedev-302)
Angular grid pruning method      GridPruning ... 4 (adaptive)
Weight generation scheme         WeightScheme... mBecke (2022)
Basis function cutoff            BFCut       ... 1.0000e-11
Integration weight cutoff        WCut        ... 1.0000e-14
Partially contracted basis set               ... off
Rotationally invariant grid construction     ... off
Angular grids for H and He will be reduced by one unit
Diffuse basis detected: some atoms will have their outermost
                        angular grid increased by 1.

Total number of grid points                  ...    87407
Total number of batches                      ...     1380
Average number of points per batch           ...       63
Average number of grid points per atom       ...     4370
Initializing property integral containers    ... done (  0.0 sec)

SHARK setup successfully completed in   1.4 seconds

Maximum memory used throughout the entire STARTUP-calculation: 39.4 MB
Occupation numbers will be reassigned to an Aufbau configuration
             **** ENERGY FILE WAS UPDATED (xtb_opt.en.tmp) ****
Finished Guess after   0.4 sec
Maximum memory used throughout the entire GUESS-calculation: 15.1 MB
--------------------
CPCM SOLVATION MODEL
--------------------
CPCM parameters:
  Epsilon                                         ...      78.3550
  Refrac                                          ...       1.3328
  Rsolv                                           ...       1.3000
  Surface type                                    ... GAUSSIAN VDW
  Discretization scheme                           ... Constant charge density
    Threshold for H atoms                         ...       5.0000 (charges/Ang^2)
    Threshold for non-H atoms                     ...       5.0000 (charges/Ang^2)
  Epsilon function type                           ...         CPCM
Solvent:                                          ... WATER
SMD-CDS solvent descriptors:
  Soln                                            ...       1.3328
  Soln25                                          ...       1.3323
  Sola                                            ...       0.0000
  Solb                                            ...       0.0000
  Solg                                            ...       0.0000
  Solc                                            ...       0.0000
  Solh                                            ...       0.0000
Radii:
  Scheme                                          ... Element-dependent radii
  Radius for C  used is    3.4960 Bohr (=   1.8500 Ang.)
  Radius for O  used is    2.8724 Bohr (=   1.5200 Ang.)
  Radius for H  used is    2.2677 Bohr (=   1.2000 Ang.)
Calculating surface                               ...        done! (  0.0s)
Cavity surface points                             ...         1506
Cavity Volume                                     ...     883.9421
Cavity Surface-area                               ...     593.3457
Calculating surface distance matrix               ...        done! (  0.0s)
Performing Cholesky decomposition & store         ...        done! (  0.3s)
Overall time for CPCM initialization              ...                 0.4s

----------------------------------------D-I-I-S--------------------------------------------
Iteration    Energy (Eh)           Delta-E    RMSDP     MaxDP     DIISErr   Damp  Time(sec)
-------------------------------------------------------------------------------------------
               ***  Starting incremental Fock matrix formation  ***
    1    -386.2560114003121612     0.00e+00  7.58e-05  2.16e-03  8.03e-03  0.700   3.7
    2    -386.2561522011851025    -1.41e-04  6.58e-05  1.80e-03  6.09e-03  0.700   3.3
                               ***Turning on AO-DIIS***
    3    -386.2562542686592337    -1.02e-04  4.87e-05  1.28e-03  4.37e-03  0.700   3.4
                              *** Initializing SOSCF ***
---------------------------------------S-O-S-C-F--------------------------------------
Iteration    Energy (Eh)           Delta-E    RMSDP     MaxDP     MaxGrad    Time(sec)
--------------------------------------------------------------------------------------
    4    -386.2563249851197611    -7.07e-05  1.15e-04  2.71e-03  3.09e-03     3.5
               *** Restarting incremental Fock matrix formation ***
    5    -386.2564917169170826    -1.67e-04  1.12e-05  2.00e-04  5.95e-05     3.8
    6    -386.2564916241507831     9.28e-08  5.58e-06  1.11e-04  8.14e-05     3.0
                 **** Energy Check signals convergence ****

               *****************************************************
               *                     SUCCESS                       *
               *           SCF CONVERGED AFTER   6 CYCLES          *
               *****************************************************


SMD CDS free energy correction energy :                 5.00391     Kcal/mol
Total Energy after SMD CDS correction =              -386.248517391 Eh
             **** ENERGY FILE WAS UPDATED (xtb_opt.en.tmp) ****

----------------
TOTAL SCF ENERGY
----------------

Total Energy       :       -386.24851739061381 Eh          -10510.35649 eV

Components:
Nuclear Repulsion  :        390.00064463561711 Eh           10612.45707 eV
Electronic Energy  :       -776.24109860933891 Eh          -21122.59415 eV
One Electron Energy:      -1297.36478593507695 Eh          -35303.09060 eV
Two Electron Energy:        521.12368732573805 Eh           14180.49645 eV
CPCM Dielectric    :         -0.01603765042904 Eh              -0.43641 eV
SMD CDS (Gcds)     :          0.00797423353698 Eh               0.21699 eV

Virial components:
Potential Energy   :       -770.75023210368454 Eh          -20973.18007 eV
Kinetic Energy     :        384.50171471307067 Eh           10462.82358 eV
Virial Ratio       :          2.00454302961652

DFT components:
N(Alpha)           :       31.999975205487 electrons
N(Beta)            :       31.999975205487 electrons
N(Total)           :       63.999950410974 electrons
E(X)               :      -52.049911552091 Eh       
E(C)               :       -2.035304562280 Eh       
E(XC)              :      -54.085216114371 Eh       

CPCM Solvation Model Properties:
Surface-charge          :         -0.04776669672284
Corrected charge        :         -0.00000000000000
Outlying charge corr.   :          0.00017125185621 Eh               0.00466 eV
Free-energy (cav+disp)  :          0.00797423353698 Eh               0.21699 eV

---------------
SCF CONVERGENCE
---------------

  Last Energy change         ...   -9.2766e-08  Tolerance :   1.0000e-07
  Last MAX-Density change    ...    1.1055e-04  Tolerance :   1.0000e-07
  Last RMS-Density change    ...    5.5793e-06  Tolerance :   5.0000e-09
  Last DIIS Error            ...    3.0859e-03  Tolerance :   1.0000e-07
  Last Orbital Gradient      ...    8.1354e-05  Tolerance :   1.0000e-04
  Last Orbital Rotation      ...    1.4546e-04  Tolerance :   1.0000e-04


----------------
ORBITAL ENERGIES
----------------

  NO   OCC          E(Eh)            E(eV) 
   0   2.0000     -19.001642      -517.0610 
   1   2.0000     -18.944792      -515.5140 
   2   2.0000     -10.164274      -276.5840 
   3   2.0000     -10.083924      -274.3975 
   4   2.0000     -10.036513      -273.1074 
   5   2.0000     -10.032720      -273.0042 
   6   2.0000     -10.020485      -272.6713 
   7   2.0000     -10.015164      -272.5265 
   8   2.0000      -1.072406       -29.1816 
   9   2.0000      -0.985210       -26.8089 
  10   2.0000      -0.768940       -20.9239 
  11   2.0000      -0.731611       -19.9081 
  12   2.0000      -0.673976       -18.3398 
  13   2.0000      -0.613571       -16.6961 
  14   2.0000      -0.561806       -15.2875 
  15   2.0000      -0.520026       -14.1506 
  16   2.0000      -0.471616       -12.8333 
  17   2.0000      -0.459729       -12.5099 
  18   2.0000      -0.437052       -11.8928 
  19   2.0000      -0.423777       -11.5315 
  20   2.0000      -0.407396       -11.0858 
  21   2.0000      -0.383619       -10.4388 
  22   2.0000      -0.362377        -9.8608 
  23   2.0000      -0.356861        -9.7107 
  24   2.0000      -0.354459        -9.6453 
  25   2.0000      -0.339387        -9.2352 
  26   2.0000      -0.321046        -8.7361 
  27   2.0000      -0.306164        -8.3311 
  28   2.0000      -0.304708        -8.2915 
  29   2.0000      -0.299752        -8.1567 
  30   2.0000      -0.277307        -7.5459 
  31   2.0000      -0.249902        -6.8002 
  32   0.0000      -0.026880        -0.7314 
  33   0.0000       0.077783         2.1166 
  34   0.0000       0.095317         2.5937 
  35   0.0000       0.112497         3.0612 
  36   0.0000       0.129891         3.5345 
  37   0.0000       0.134992         3.6733 
  38   0.0000       0.138794         3.7768 
  39   0.0000       0.143235         3.8976 
  40   0.0000       0.152209         4.1418 
  41   0.0000       0.166732         4.5370 
  42   0.0000       0.170296         4.6340 
*Only the first 10 virtual orbitals were printed.
Total SCF time: 0 days 0 hours 0 min 21 sec 
Finished LeanSCF after  21.9 sec

Maximum memory used throughout the entire LEANSCF-calculation: 30.7 MB


-------------------------------------------------------------------------------
                          DFT DISPERSION CORRECTION                            
                                                                               
                                DFTD4 V3.4.0                                   
-------------------------------------------------------------------------------
-------------------------   ----------------
Dispersion correction           -0.005019063
-------------------------   ----------------

------------------   -----------------
[...]
  Last MAX-Density change    ...    3.7540e-05  Tolerance :   1.0000e-07
  Last RMS-Density change    ...    1.2755e-06  Tolerance :   5.0000e-09
  Last DIIS Error            ...    3.5546e-05  Tolerance :   1.0000e-07
  Last Orbital Gradient      ...    1.6209e-05  Tolerance :   1.0000e-04
  Last Orbital Rotation      ...    3.9738e-05  Tolerance :   1.0000e-04


----------------
ORBITAL ENERGIES
----------------

  NO   OCC          E(Eh)            E(eV) 
   0   2.0000     -19.000661      -517.0343 
   1   2.0000     -18.944869      -515.5161 
   2   2.0000     -10.164289      -276.5844 
   3   2.0000     -10.084503      -274.4133 
   4   2.0000     -10.037078      -273.1228 
   5   2.0000     -10.033202      -273.0173 
   6   2.0000     -10.020510      -272.6719 
   7   2.0000     -10.015350      -272.5315 
   8   2.0000      -1.067497       -29.0481 
   9   2.0000      -0.983274       -26.7563 
  10   2.0000      -0.768011       -20.8986 
  11   2.0000      -0.730937       -19.8898 
  12   2.0000      -0.673970       -18.3397 
  13   2.0000      -0.611456       -16.6386 
  14   2.0000      -0.561752       -15.2861 
  15   2.0000      -0.517963       -14.0945 
  16   2.0000      -0.471528       -12.8309 
  17   2.0000      -0.457653       -12.4534 
  18   2.0000      -0.435952       -11.8629 
  19   2.0000      -0.422629       -11.5003 
  20   2.0000      -0.407291       -11.0830 
  21   2.0000      -0.385216       -10.4823 
  22   2.0000      -0.361646        -9.8409 
  23   2.0000      -0.356852        -9.7104 
  24   2.0000      -0.352971        -9.6048 
  25   2.0000      -0.339123        -9.2280 
  26   2.0000      -0.321197        -8.7402 
  27   2.0000      -0.305945        -8.3252 
  28   2.0000      -0.304968        -8.2986 
  29   2.0000      -0.299247        -8.1429 
  30   2.0000      -0.278140        -7.5686 
  31   2.0000      -0.249889        -6.7998 
  32   0.0000      -0.028062        -0.7636 
  33   0.0000       0.076487         2.0813 
  34   0.0000       0.091417         2.4876 
  35   0.0000       0.112177         3.0525 
  36   0.0000       0.129496         3.5238 
  37   0.0000       0.134606         3.6628 
  38   0.0000       0.138387         3.7657 
  39   0.0000       0.143965         3.9175 
  40   0.0000       0.151676         4.1273 
  41   0.0000       0.165714         4.5093 
  42   0.0000       0.169929         4.6240 
*Only the first 10 virtual orbitals were printed.
Total SCF time: 0 days 0 hours 0 min 8 sec 
Finished LeanSCF after   8.4 sec

Maximum memory used throughout the entire LEANSCF-calculation: 30.7 MB


-------------------------------------------------------------------------------
                          DFT DISPERSION CORRECTION                            
                                                                               
                                DFTD4 V3.4.0                                   
-------------------------------------------------------------------------------
-------------------------   ----------------
Dispersion correction           -0.005023706
-------------------------   ----------------

------------------   -----------------
gCP correction             0.011436745
------------------   -----------------

-------------------------   --------------------
FINAL SINGLE POINT ENERGY      -386.242395225377
-------------------------   --------------------

------------------------------------------------------------------------------
                         ORCA SCF GRADIENT CALCULATION
------------------------------------------------------------------------------

Nuc. rep. gradient        (SHARK) ... done (  0.0 sec)
HCore & Overlap gradient  (SHARK) ... done (  0.4 sec)
Split-RIJ-J gradient      (SHARK) ... done (  1.9 sec)
XC gradient                       ... done (  7.3 sec)
CPCM gradient                     ... done (  1.1 sec)
SMD gradient                      ... done (  0.0 sec)
Dispersion correction             ... done (  0.0 sec)

-------------------
DISPERSION GRADIENT
-------------------

   1   C   :   -0.000073504   -0.000032810    0.000004266
   2   C   :   -0.000070253   -0.000024842    0.000016213
   3   C   :   -0.000058354    0.000025297   -0.000027032
   4   C   :    0.000011638    0.000048200   -0.000014621
   5   O   :    0.000010875    0.000083921    0.000024786
   6   O   :    0.000047783    0.000009912   -0.000037515
   7   C   :    0.000075169    0.000005693   -0.000016488
   8   C   :    0.000085097   -0.000029436    0.000027985
   9   H   :   -0.000027079   -0.000016283   -0.000003478
  10   H   :   -0.000023174   -0.000016528    0.000007294
  11   H   :   -0.000028482   -0.000008136    0.000003841
  12   H   :   -0.000034290   -0.000024551    0.000004283
  13   H   :   -0.000031002   -0.000005237    0.000018967
  14   H   :   -0.000015398    0.000021553   -0.000004911
  15   H   :   -0.000016558    0.000004829   -0.000024088
  16   H   :    0.000026864   -0.000005688   -0.000014510
  17   H   :    0.000021760    0.000006007   -0.000004631
  18   H   :    0.000026624   -0.000011227    0.000010761
  19   H   :    0.000035953   -0.000006728    0.000019555
  20   H   :    0.000036331   -0.000023946    0.000009324

Difference to translation invariance:
           :    0.0000000000    0.0000000000   -0.0000000000

Difference to rotation invariance:
           :   -0.0000000000    0.0000000000    0.0000000000

Norm of the Dispersion gradient    ...    0.0002446074
RMS gradient                       ...    0.0000315787
MAX gradient                       ...    0.0000850971
gCP correction                   ... done

------------------
CARTESIAN GRADIENT
------------------

   1   C   :    0.000013077   -0.000019974    0.000013402
   2   C   :    0.000004494    0.000010113   -0.000026805
   3   C   :    0.000035769    0.000035062    0.000021079
   4   C   :   -0.000025560    0.000022520    0.000052642
   5   O   :   -0.000019680    0.000017573   -0.000019548
   6   O   :   -0.000021276   -0.000068788   -0.000050730
   7   C   :    0.000103782    0.000024459    0.000029802
   8   C   :   -0.000023770    0.000013520   -0.000006868
   9   H   :    0.000004577   -0.000023874   -0.000030821
  10   H   :   -0.000016449   -0.000022899    0.000015714
  11   H   :   -0.000013325    0.000017660   -0.000010587
  12   H   :    0.000023158   -0.000011464    0.000005180
  13   H   :    0.000003652    0.000003821    0.000008481
  14   H   :    0.000003345   -0.000002175    0.000012139
  15   H   :   -0.000024275    0.000009344   -0.000017648
  16   H   :   -0.000009473   -0.000002949   -0.000018033
  17   H   :   -0.000011479   -0.000007178   -0.000025278
  18   H   :    0.000003599    0.000023163    0.000023471
  19   H   :   -0.000029679    0.000008524    0.000012219
  20   H   :   -0.000000488   -0.000026456    0.000012187

Difference to translation invariance:
           :    0.0000000000    0.0000000000   -0.0000000000

Difference to rotation invariance:
           :   -0.0001549353   -0.0002734726    0.0003435705

Norm of the Cartesian gradient     ...    0.0001994774
RMS gradient                       ...    0.0000257524
MAX gradient                       ...    0.0001037817

-------
TIMINGS
-------

Total SCF gradient time     ....       11.727 sec

Densities                   ....       0.001 sec  (  0.0%)
One electron gradient       ....       0.362 sec  (  3.1%)
RI-J Coulomb gradient       ....       1.865 sec  ( 15.9%)
XC gradient                 ....       7.306 sec  ( 62.3%)
CPCM gradient               ....       1.053 sec  (  9.0%)
   A-Matrix (El+Nuc)        ....       0.082 sec  (  0.7%)
   Potential                ....       0.971 sec  (  8.3%)
SMD gradient                ....       0.014 sec  (  0.1%)

Maximum memory used throughout the entire SCFGRAD-calculation: 35.4 MB

------------------------------------------------------------------------------
                              ORCA PROPERTY CALCULATIONS
------------------------------------------------------------------------------

GBWName                                 ... xtb_opt.gbw
Number of atoms                         ...     20
Number of basis functions               ...    222
Max core memory                         ...   1024 MB

Electric properties:
Dipole moment                           ... YES
Quadrupole moment                       ...  NO
Static polarizability (Dipole/Dipole)   ...  NO
Static polarizability (Dipole/Quad.)    ...  NO
Static polarizability (Quad./Quad.)     ...  NO
Static polarizability (Velocity)        ...  NO

Atomic electric properties:
Dipole moment                           ...  NO
Quadrupole moment                       ...  NO
Static polarizability                   ...  NO

Choice of electric origin               ... Center of mass
Position of electric origin             ...     0.010245    -0.008333    -0.005273

General magnetic properties:
Magnetizability                         ...  NO

EPR properties:
g-Tensor (aka g-matrix)                 ...  NO
Zero-Field splitting spin-orbit         ...  NO
Zero-field splitting spin-spin          ...  NO
Hyperfine couplings                     ...  NO (   0 nuclei)
Quadrupole couplings                    ...  NO (   0 nuclei)
Contact density                         ...  NO (   0 nuclei)

NMR properties:
Chemical shifts                         ...  NO (   0 nuclei)
Spin-rotation constants                 ...  NO (   0 nuclei)
Spin-spin couplings                     ...  NO (   0 nuclei,    0 pairs)

Choice of magnetic origin               ... GIAO
Position of magnetic origin             ...     0.000000     0.000000     0.000000

Properties with geometric perturbations:
SCF Hessian                             ...  NO
IR spectrum                             ...  NO
VCD spectrum                            ...  NO
X-ray spectroscopy properties:
SCF XES/XAS/RIXS spectra                ...  NO


-------------
DIPOLE MOMENT
-------------

Method             : SCF
Type of density    : Electron Density
Multiplicity       :   1
Irrep              :   0
Energy             :  -386.2488082646466978 Eh
Relativity type    : 
Basis              : AO
                                X                 Y                 Z
Electronic contribution:      3.566200609       4.861753360      -1.886737802
Nuclear contribution   :     -3.488093596      -5.844695498       1.330661221
                        -----------------------------------------
Total Dipole Moment    :      0.078107013      -0.982942138      -0.556076581
                        -----------------------------------------
Magnitude (a.u.)       :      1.132032295
Magnitude (Debye)      :      2.877397424



--------------------
Rotational spectrum 
--------------------
 
Rotational constants in cm-1:             0.131962             0.032941             0.030767 
Rotational constants in MHz :          3956.115399           987.554595           922.375022 

Dipole components along the rotational axes: 
x,y,z [a.u.] :    -0.045977    -0.933920    -0.638103 
x,y,z [Debye]:    -0.116865    -2.373837    -1.621930 

 

Dipole moment calculation done in   0.0 sec 

Maximum memory used throughout the entire PROP-calculation: 13.9 MB

--------------------------------
SUGGESTED CITATIONS FOR THIS RUN
--------------------------------

Below you find a list of papers that are relevant to this ORCA run
We neither can nor want to force you to cite these papers, but we appreciate if you do
You receive ORCA, which is the product of decades of hard work by many enthusiastic individuals, for free
The only thing we kindly ask in return is that you cite our papers,
We deeply appreciate it, if you show your appreciation for ORCA by not just citing the generic ORCA reference.

Please note that relegating all ORCA citations to the supporting information does *not* help us.
SI sections are not indexed - citations you put there will not count into any citation statistics
But we need these citations in order to attract the funding resources that allow us to do what we are doing

Therefore, if you are a happy ORCA user, please consider citing a few of the papers listed below in the main body of your paper

In addition to the list printed below, the program has created the file xtb_opt.bibtex that contains the list in bibtex format
You can import this file easily into all common literature databanks and citation aid programs


List of essential papers. We consider these as the minimum necessary citations

  1. Neese,F.
     Software update: the ORCA program system, version 5.0
     WIRES Comput. Molec. Sci., 2022 12(1)e1606
     doi.org/10.1002/wcms.1606
  2. Grimme,S.; Hansen,A.; Ehlert,S.; Mewes,J.
     r2SCAN-3c: A 'Swiss army knife' composite electronic-structure method
     J. Chem. Phys., 2021 154 064103
     doi.org/10.1063/5.0040021

List of papers to cite with high priority. The work reported in these papers was absolutely
necessary for this run to complete.
Our perspective: the developers of density functionals and basis sets usually get cited in chemistry papers
Good! But without the algorithms to do something with them, the functionals or basis sets would not do anything.
Hence, in our opinion, the algorithm design and method developments papers are equally worthy of getting cited

  1. Neese,F.
     An improvement of the resolution of the identity approximation for the formation of the Coulomb matrix
     J. Comp. Chem., 2003 24(14)1740-1747
     doi.org/10.1002/jcc.10318
  2. Garcia-Rates,M.; Neese,F.
     Effect of the Solute Cavity on the Solvation Energy and its Derivatives within the Framework of the Gaussian Charge Scheme
     J. Comput. Chem., 2020 41 922-939
     doi.org/10.1002/jcc.26139
  3. Neese,F.
     The SHARK Integral Generation and Digestion System
     J. Comp. Chem., 2022  1-16
     doi.org/10.1002/jcc.26942
  4. Lehtola,S.; Steigemann,C.; Oliveira,M.; Marques,M.
     Recent developments in Libxc - A comprehensive library of functionals for density functional theory
     Software X, 2018 7 
     doi.org/10.1016/j.softx.2017.11.002
  5. Caldeweyher,E.; Bannwarth,C.; Grimme,S.
     Extension of the D3 dispersion coefficient model
     J. Chem. Phys., 2017 147 034112-XXXX
     doi.org/10.1063/1.4993215
  6. Caldeweyher,E.; Ehlert,S.; Hansen,A.; Neugebauer,H.; Spicher,S.; Bannwarth,C.; Grimme,S.
     A generally applicable atomic-charge dependent London dispersion correction
     J. Chem. Phys., 2019 150 154122-XXXX
     doi.org/10.1063/1.5090222
  7. Caldeweyher,E.; Mewes,J.; Ehlert,S.; Grimme,S.
     Extension and evaluation of the D4 London-dispersion model for periodic systems
     Phys. Chem. Chem. Phys., 2020 22(16)8499-8512
     doi.org/10.1039/D0CP00502A

List of suggested additional citations. These are papers that are important in the 'surrounding' of 
of this run, or papers that preceded the highly important papers. If you like your results we are grateful for a citation.

  1. Neese,F.
     The ORCA program system
     WIRES Comput. Molec. Sci., 2012 2(1)73-78
     doi.org/10.1002/wcms.81
  2. Neese,F.
     Software update: the ORCA program system, version 4.0
     WIRES Comput. Molec. Sci., 2018 8(1)1-6
     doi.org/10.1002/wcms.1327
  3. Neese,F.; Wennmohs,F.; Becker,U.; Riplinger,C.
     The ORCA quantum chemistry program package
     J. Chem. Phys., 2020 152 Art. No. L224108
     doi.org/10.1063/5.0004608

List of optional additional citations

  1. Neese,F.
     Approximate second-order SCF convergence for spin unrestricted wavefunctions
     Chem. Phys. Lett., 2000 325(1-3)93-98
     doi.org/10.1016/s0009-2614(00)00662-x

Timings for individual modules:

Sum of individual times          ...       22.245 sec (=   0.371 min)
Startup calculation              ...        1.384 sec (=   0.023 min)   6.2 %
SCF iterations                   ...        8.799 sec (=   0.147 min)  39.6 %
Property calculations            ...        0.189 sec (=   0.003 min)   0.8 %
SCF Gradient evaluation          ...       11.873 sec (=   0.198 min)  53.4 %
                             ****ORCA TERMINATED NORMALLY****
TOTAL RUN TIME: 0 days 0 hours 0 minutes 23 seconds 126 msec
  ------------------------------------------------------------------------
          * successful ORCA run, taking over control again...

         :::::::::::::::::::::::::::::::::::::::::::::::::::::
         ::                  ORCA SUMMARY                   ::
         :::::::::::::::::::::::::::::::::::::::::::::::::::::
         :: total energy            -386.242395225377 Eh    ::
         :: gradient norm              0.000199477393 Eh/a0 ::
         :: HOMO-LUMO gap              0.000000000000 eV    ::
         :::::::::::::::::::::::::::::::::::::::::::::::::::::

           -------------------------------------------------
          |                Property Printout                |
           -------------------------------------------------
           -------------------------------------------------
          |                Geometry Summary                 |
           -------------------------------------------------

      molecular mass/u    :      116.1585142
   center of mass at/Å    :        0.0054311      -0.0043979      -0.0027918
  moments of inertia/u·Å² :        0.1277451E+03   0.5117353E+03   0.5478976E+03
rotational constants/cm⁻¹ :        0.1319630E+00   0.3294209E-01   0.3076785E-01

 * 16 selected distances

     #   Z          #   Z                                           value/Å
     1   6 C        2   6 C                                       1.5241784 (max)
     4   6 C        5   8 O                                       1.2213952
     4   6 C        6   8 O                                       1.3481329
     7   6 C        8   6 C                                       1.5112090
     1   6 C        9   1 H                                       1.0952686
     1   6 C       10   1 H                                       1.0944249
     1   6 C       11   1 H                                       1.0952824
     2   6 C       12   1 H                                       1.0961795
     2   6 C       13   1 H                                       1.0961148
     3   6 C       14   1 H                                       1.0936045
     3   6 C       15   1 H                                       1.0936872
     7   6 C       16   1 H                                       1.0915555 (min)
     7   6 C       17   1 H                                       1.0928216
     8   6 C       18   1 H                                       1.0946417
     8   6 C       19   1 H                                       1.0933712
     8   6 C       20   1 H                                       1.0939032

 * 3 distinct bonds (by element types)

   Z      Z             #   av. dist./Å        max./Å        min./Å
   1 H    6 C          12     1.0942379     1.0961795     1.0915555
   6 C    6 C           2     1.5176937     1.5241784     1.5112090
   6 C    8 O           2     1.2847640     1.3481329     1.2213952


optimized geometry written to: xtbopt.coord


           -------------------------------------------------
          | TOTAL ENERGY             -386.242395225377 Eh   |
          | GRADIENT NORM               0.000199477393 Eh/α |
           -------------------------------------------------

------------------------------------------------------------------------
 * finished run on 2025/04/11 at 16:32:07.711     
------------------------------------------------------------------------
 total:
 * wall-time:     0 d,  0 h,  5 min, 39.535 sec
 *  cpu-time:     0 d,  0 h,  0 min,  2.185 sec
 * ratio c/w:     0.006 speedup
 SCF:
 * wall-time:     0 d,  0 h,  0 min, 29.069 sec
 *  cpu-time:     0 d,  0 h,  0 min,  0.835 sec
 * ratio c/w:     0.029 speedup
 ANC optimizer:
 * wall-time:     0 d,  0 h,  5 min, 10.379 sec
 *  cpu-time:     0 d,  0 h,  0 min,  1.127 sec
 * ratio c/w:     0.004 speedup

