
                                 *****************
                                 * O   R   C   A *
                                 *****************

                                            #,                                       
                                            ###                                      
                                            ####                                     
                                            #####                                    
                                            ######                                   
                                           ########,                                 
                                     ,,################,,,,,                         
                               ,,#################################,,                 
                          ,,##########################################,,             
                       ,#########################################, ''#####,          
                    ,#############################################,,   '####,        
                  ,##################################################,,,,####,       
                ,###########''''           ''''###############################       
              ,#####''   ,,,,##########,,,,          '''####'''          '####       
            ,##' ,,,,###########################,,,                        '##       
           ' ,,###''''                  '''############,,,                           
         ,,##''                                '''############,,,,        ,,,,,,###''
      ,#''                                            '''#######################'''  
     '                                                          ''''####''''         
             ,#######,   #######,   ,#######,      ##                                
            ,#'     '#,  ##    ##  ,#'     '#,    #''#        ,####,   ,####,        
            ##       ##  ##   ,#'  ##            #'  '#       #'       #'  '#        
            ##       ##  #######   ##           ,######,      #####,   #    #        
            '#,     ,#'  ##    ##  '#,     ,#' ,#      #,     #,   #   #,  ,#        
             '#######'   ##     ##  '#######'  #'      '#     '####' # '####'        



                #########################################################
                #                        -***-                          #
                #          Department of theory and spectroscopy        #
                #                                                       #
                #                      Frank Neese                      #
                #                                                       #
                #     Directorship, Architecture, Infrastructure        #
                #                    SHARK, DRIVERS                     #
                #        Core code/Algorithms in most modules           #
                #                                                       #
                #        Max Planck Institute fuer Kohlenforschung      #
                #                Kaiser Wilhelm Platz 1                 #
                #                 D-45470 Muelheim/Ruhr                 #
                #                      Germany                          #
                #                                                       #
                #                  All rights reserved                  #
                #                        -***-                          #
                #########################################################


                         Program Version 6.0.1  -  RELEASE   -


 With contributions from (in alphabetic order):
[Max-Planck-Institut fuer Kohlenforschung]                               
  Daniel Aravena         : Magnetic Suceptibility                        
  Michael Atanasov       : Ab Initio Ligand Field Theory (pilot matlab implementation)
  Alexander A. Auer      : GIAO ZORA, VPT2 properties, NMR spectrum      
  Ute Becker             : All parallelization in ORCA, NUMFREQ, NUMCALC 
  Giovanni Bistoni       : ED, misc. LED, open-shell LED, HFLD           
  Martin Brehm           : Molecular dynamics                            
  Dmytro Bykov           : pre 5.0 version of the SCF Hessian            
  Marcos Casanova-Páez   : Triplet and SCS-CIS(D). UHF-(DLPNO)-IP/EA/STEOM-CCSD. UHF-CVS-IP/STEOM-CCSD   
  Vijay G. Chilkuri      : MRCI spin determinant printing, contributions to CSF-ICE 
  Pauline Colinet        : FMM embedding                                 
  Dipayan Datta          : RHF DLPNO-CCSD density                        
  Achintya Kumar Dutta   : EOM-CC, STEOM-CC                              
  Nicolas Foglia         : Exact transition moments, OPA infrastructure, MCD improvements    
  Dmitry Ganyushin       : Spin-Orbit,Spin-Spin,Magnetic field MRCI      
  Miquel Garcia-Rates    : C-PCM and meta-GGA Hessian, CCSD/C-PCM, Gaussian charge scheme 
  Tiago L. C. Gouveia    : GS-ROHF, GS-ROCIS                             
  Yang Guo               : DLPNO-NEVPT2, F12-NEVPT2, CIM, IAO-localization        
  Andreas Hansen         : Spin unrestricted coupled pair/coupled cluster methods 
  Ingolf Harden          : AUTO-CI MPn and infrastructure                
  Benjamin Helmich-Paris : MC-RPA, TRAH-(SCF,CASSCF), AVAS, COSX integrals, SCF dyn. polar. 
  Lee Huntington         : MR-EOM, pCC                                   
  Robert Izsak           : Overlap fitted RIJCOSX, COSX-SCS-MP3, EOM     
  Riya Kayal             : Wick's Theorem for AUTO-CI, AUTO-CI UHF-CCSDT 
  Emily Kempfer          : AUTO-CI, RHF CISDT and CCSDT                  
  Christian Kollmar      : KDIIS, OOCD, Brueckner-CCSD(T), CCSD density, CASPT2, CASPT2-K, improved NEVPT2 
  Axel Koslowski         : Symmetry handling                             
  Simone Kossmann        : meta-GGA functionals, TD-DFT gradient, OOMP2, (MP2 Hessian; deprecated post 5.0) 
  Lucas Lang             : DCDCAS                                        
  Marvin Lechner         : AUTO-CI (C++ implementation), FIC-MRCC        
  Spencer Leger          : CASSCF response                               
  Dagmar Lenk            : GEPOL surface, SMD, ORCA-2-JSON               
  Dimitrios Liakos       : Extrapolation schemes; Compound Job, initial MDCI parallelization 
  Dimitrios Manganas     : Further ROCIS development; embedding schemes. LFT, Crystal Embedding 
  Dimitrios Pantazis     : SARC Basis sets                               
  Anastasios Papadopoulos: AUTO-CI, single reference methods and gradients 
  Taras Petrenko         : pre 6.0 DFT Hessian and TD-DFT gradient, (ASA, deprecated), ECA, 1-Electron XAS/XES, NRVS 
  Peter Pinski           : DLPNO-MP2, DLPNO-MP2 Gradient                 
  Christoph Reimann      : Effective Core Potentials                     
  Marius Retegan         : Local ZFS, SOC                                
  Christoph Riplinger    : Optimizer, TS searches, QM/MM, DLPNO-CCSD(T), (RO)-DLPNO pert. Triples 
  Michael Roemelt        : Original ROCIS implementation                 
  Masaaki Saitow         : Open-shell DLPNO-CCSD energy and density      
  Barbara Sandhoefer     : DKH picture change effects                    
  Kantharuban Sivalingam : CASSCF convergence/infrastructure, NEVPT2 and variants, FIC-MRCI 
  Bernardo de Souza      : ESD, SOC TD-DFT                               
  Georgi L. Stoychev     : AutoAux, RI-MP2 NMR, DLPNO-MP2 response, X2C  
  Van Anh Tran           : RI-MP2 g-tensors                              
  Willem Van den Heuvel  : Paramagnetic NMR                              
  Zikuan Wang            : NOTCH, Electric field optimization            
  Frank Wennmohs         : Technical directorship and infrastructure     
  Hang Xu                : AUTO-CI-Response properties                   
                                                                         
[FACCTs GmbH]                                                            
  Markus Bursch, Miquel Garcia-Rates, Christoph Riplinger, Bernardo de Souza, Georgi L. Stoychev 
                                                                 
  APM, Basis sets (HGBS, AHGBS, def-TZVP (Ac-Lr), def2-XVPD (La-Lu)), CI-OPT, improved COSX, DLPNO-Multilevel,           
  DOCKER, DRACO, updates on ESD, GOAT, IRC, LR-CPCM, MBIS, meta-GGA TD-DFT gradient, ML-optimized integration grids, 
  MM, NACMEs, nearIR, NEB, NEB-TS, NL-DFT gradient (VV10), 2- and 3-layer-ONIOM, interface openCOSMO-RS, QMMM,   
  Crystal-QMMM, SF, symmetry and pop. for TD-DFT, r2SCAN hybrids, SOLVATOR                                   
                                                                         
[Other institutions]                                                     
  V. Asgeirsson          : NEB                                           
  Christoph Bannwarth    : sTDA-DFT, sTD-DFT, PBEh-3c, B97-3c, D3        
  Sebastian Ehlert       : rSCAN, r2SCAN, r2SCAN-3c, D4, dhf basis sets  
  Marvin Friede          : D4 for Fr, Ra, Ac-Lr                          
  Lars Goerigk           : TD-DFT with DH, B97 family of functionals     
  Stefan Grimme          : VdW corrections, initial TS optimization, DFT functionals, gCP, sTDA/sTD-DF 
  Waldemar Hujo          : DFT-NL                                        
  H. Jonsson             : NEB                                           
  Holger Kruse           : gCP                                           
  Marcel Mueller         : wB97X-3c, vDZP basis set                      
  Hagen Neugebauer       : wr2SCAN                                       
  Tobias Risthaus        : range-separated hybrid DFT                    
  Lukas Wittmann         : regularized MP2, r2SCAN double-hybrids, wr2SCAN        
                                                                         
We gratefully acknowledge several colleagues who have allowed us to      
interface, adapt or use parts of their codes:                            
  Ed Valeev, F. Pavosevic, A. Kumar             : LibInt (2-el integral package), F12 methods 
  Garnet Chan, S. Sharma, J. Yang, R. Olivares  : DMRG                   
  Ulf Ekstrom                                   : XCFun DFT Library      
  Mihaly Kallay                                 : mrcc  (arbitrary order and MRCC methods)
  Frank Weinhold                                : gennbo (NPA and NBO analysis)           
  Simon Mueller                                 : openCOSMO-RS                            
  Christopher J. Cramer and Donald G. Truhlar   : smd solvation model                     
  S Lehtola, MJT Oliveira, MAL Marques          : LibXC Library                           
  Liviu Ungur et al                             : ANISO software                          


 Your calculation uses the libint2 library for the computation of 2-el integrals
 For citations please refer to: http://libint.valeyev.net

 Your ORCA version has been built with support for libXC version: 6.2.2
 For citations please refer to: https://libxc.gitlab.io

 This ORCA versions uses:
   CBLAS   interface :  Fast vector & matrix operations
   LAPACKE interface :  Fast linear algebra routines
   SCALAPACK package :  Parallel linear algebra routines
   Shared memory     :  Shared parallel matrices
   BLAS/LAPACK       :  OpenBLAS 0.3.27  USE64BITINT DYNAMIC_ARCH NO_AFFINITY Zen SINGLE_THREADED
        Core in use  :  Zen
   Copyright (c) 2011-2014, The OpenBLAS Project


Your calculation utilizes the geometrical counterpoise correction gCP
Please cite in your paper:
H.Kruse, S. Grimme J.Chem.Phys., 136, (2012), 154101 
   

Your calculation utilizes the atom-pairwise dispersion correction
based on EEQ partial charges (D4)


================================================================================

----- Orbital basis set information -----
Your calculation utilizes the basis: def2-mTZVPP
   Stefan Grimme, Andreas Hansen, Sebastian Ehlert, and Jan-Michael Mewes 
   J. Chem. Phys. 154, 064103 (2021). DOI: 10.1063/5.0040021

----- AuxJ basis set information -----
Your calculation utilizes the auxiliary basis: def2/J
   F. Weigend, Phys. Chem. Chem. Phys. 8, 1057 (2006).

================================================================================
                                        WARNINGS
                       Please study these warnings very carefully!
================================================================================



WARNING: SCAN, rSCAN, or r2SCAN functional requested.
  ===> : libXC variant has now been activated.



================================================================================
                                       INPUT FILE
================================================================================
NAME = sp_gas.inp
|  1> ! r2scan-3c def2/J RI DEFGRID2 scfconv6 printgap
|  2> %output
|  3>     printlevel normal
|  4> end
|  5> * xyz 0 1
|  6> C -3.7463524589 0.5396687881 -1.8026260603
|  7> C -3.2839222889 -0.4280149654 -0.7121498367
|  8> H -3.5700922762 -1.4521122069 -0.9617526283
|  9> C -1.784025099 -0.3686107209 -0.5256439184
| 10> C -0.9826082187 -1.461943156 -0.8277480781
| 11> C 0.388976172 -1.3955961621 -0.674651991
| 12> C 1.0164463522 -0.2393589924 -0.2137833419
| 13> C 0.1873857886 0.8359967755 0.0903582668
| 14> C -1.1832668473 0.7915214143 -0.0539883756
| 15> F 0.729857805 1.9884507162 0.5851553093
| 16> C 2.4783086768 -0.1806108533 -0.0565463932
| 17> C 3.1577656292 -1.2441213971 0.5336990015
| 18> C 4.5316743649 -1.2024473353 0.6800272476
| 19> C 5.2463994534 -0.1028686061 0.2336475039
| 20> C 4.5791367216 0.9566187647 -0.3579290189
| 21> C 3.2040636409 0.9210967012 -0.5014612909
| 22> C -3.9104099011 -0.0854637254 0.625189553
| 23> O -4.1344246445 1.0367242713 1.0213404087
| 24> O -4.1579595283 -1.1658184972 1.3453171183
| 25> H -4.8099951844 0.415631058 -1.9875501224
| 26> H -3.5692973345 1.5657865457 -1.4920509312
| 27> H -3.2002757636 0.3470387787 -2.7212651161
| 28> H -1.4341270573 -2.3717539371 -1.1905993394
| 29> H 0.9990108568 -2.247478849 -0.9304701741
| 30> H -1.7713565495 1.6543060672 0.2184447019
| 31> H 2.6006913269 -2.094816347 0.8963735189
| 32> H 5.046747844 -2.0292907234 1.1451966876
| 33> H 6.3192370707 -0.0709368761 0.3472541439
| 34> H 5.1305694565 1.8153646619 -0.7100648468
| 35> H 2.6915248214 1.7473039248 -0.9714818877
| 36> H -4.5285974326 -0.9629837762 2.2267678506
| 37> *
| 38> 
| 39>                          ****END OF INPUT****
================================================================================

                       ****************************
                       * Single Point Calculation *
                       ****************************

---------------------------------
CARTESIAN COORDINATES (ANGSTROEM)
---------------------------------
  C     -3.746352    0.539669   -1.802626
  C     -3.283922   -0.428015   -0.712150
  H     -3.570092   -1.452112   -0.961753
  C     -1.784025   -0.368611   -0.525644
  C     -0.982608   -1.461943   -0.827748
  C      0.388976   -1.395596   -0.674652
  C      1.016446   -0.239359   -0.213783
  C      0.187386    0.835997    0.090358
  C     -1.183267    0.791521   -0.053988
  F      0.729858    1.988451    0.585155
  C      2.478309   -0.180611   -0.056546
  C      3.157766   -1.244121    0.533699
  C      4.531674   -1.202447    0.680027
  C      5.246399   -0.102869    0.233648
  C      4.579137    0.956619   -0.357929
  C      3.204064    0.921097   -0.501461
  C     -3.910410   -0.085464    0.625190
  O     -4.134425    1.036724    1.021340
  O     -4.157960   -1.165818    1.345317
  H     -4.809995    0.415631   -1.987550
  H     -3.569297    1.565787   -1.492051
  H     -3.200276    0.347039   -2.721265
  H     -1.434127   -2.371754   -1.190599
  H      0.999011   -2.247479   -0.930470
  H     -1.771357    1.654306    0.218445
  H      2.600691   -2.094816    0.896374
  H      5.046748   -2.029291    1.145197
  H      6.319237   -0.070937    0.347254
  H      5.130569    1.815365   -0.710065
  H      2.691525    1.747304   -0.971482
  H     -4.528597   -0.962984    2.226768

----------------------------
CARTESIAN COORDINATES (A.U.)
----------------------------
  NO LB      ZA    FRAG     MASS         X           Y           Z
   0 C     6.0000    0    12.011   -7.079580    1.019826   -3.406470
   1 C     6.0000    0    12.011   -6.205714   -0.808831   -1.345768
   2 H     1.0000    0     1.008   -6.746497   -2.744094   -1.817449
   3 C     6.0000    0    12.011   -3.371319   -0.696573   -0.993323
   4 C     6.0000    0    12.011   -1.856860   -2.762672   -1.564217
   5 C     6.0000    0    12.011    0.735058   -2.637295   -1.274907
   6 C     6.0000    0    12.011    1.920805   -0.452323   -0.403992
   7 C     6.0000    0    12.011    0.354108    1.579805    0.170752
   8 C     6.0000    0    12.011   -2.236050    1.495759   -0.102023
   9 F     9.0000    0    18.998    1.379231    3.757627    1.105783
  10 C     6.0000    0    12.011    4.683325   -0.341305   -0.106857
  11 C     6.0000    0    12.011    5.967312   -2.351049    1.008545
  12 C     6.0000    0    12.011    8.563623   -2.272296    1.285065
  13 C     6.0000    0    12.011    9.914258   -0.194393    0.441530
  14 C     6.0000    0    12.011    8.653314    1.807747   -0.676388
  15 C     6.0000    0    12.011    6.054803    1.740621   -0.947625
  16 C     6.0000    0    12.011   -7.389604   -0.161503    1.181437
  17 O     8.0000    0    15.999   -7.812930    1.959125    1.930054
  18 O     8.0000    0    15.999   -7.857405   -2.203078    2.542281
  19 H     1.0000    0     1.008   -9.089574    0.785429   -3.755925
  20 H     1.0000    0     1.008   -6.744994    2.958908   -2.819568
  21 H     1.0000    0     1.008   -6.047645    0.655808   -5.142446
  22 H     1.0000    0     1.008   -2.710107   -4.481965   -2.249907
  23 H     1.0000    0     1.008    1.887857   -4.247120   -1.758334
  24 H     1.0000    0     1.008   -3.347379    3.126185    0.412801
  25 H     1.0000    0     1.008    4.914594   -3.958629    1.693900
  26 H     1.0000    0     1.008    9.536971   -3.834804    2.164108
  27 H     1.0000    0     1.008   11.941627   -0.134051    0.656215
  28 H     1.0000    0     1.008    9.695371    3.430542   -1.341828
  29 H     1.0000    0     1.008    5.086245    3.301926   -1.835835
  30 H     1.0000    0     1.008   -8.557809   -1.819776    4.207981

--------------------------------
INTERNAL COORDINATES (ANGSTROEM)
--------------------------------
 C      0   0   0     0.000000000000     0.00000000     0.00000000
 C      1   0   0     1.529507078490     0.00000000     0.00000000
 H      2   1   0     1.092231649081   110.55254017     0.00000000
 C      2   1   3     1.512615252500   111.27585297   121.21486191
 C      4   2   1     1.388852675045   120.96049892   245.54809474
 C      5   4   2     1.381696086807   120.72440983   179.01720929
 C      6   5   4     1.393916472160   121.55522528     0.06454570
 C      7   6   5     1.391486099038   116.42980449     0.40971946
 C      8   7   6     1.378949839271   122.98496593   359.62931369
 F      8   7   6     1.366473595529   119.62942043   178.06061398
 C      7   6   5     1.471467382571   121.04144358   180.07621101
 C     11   7   6     1.393235820995   119.95325328   315.67190112
 C     12  11   7     1.382307453885   120.43450482   179.66045318
 C     13  12  11     1.385337579591   120.17260915   359.67414062
 C     14  13  12     1.384816169916   119.75645363     0.12269354
 C     15  14  13     1.383000111123   120.24936908     0.13093176
 C      2   1   3     1.516016069674   111.16367235   240.35342204
 O     17   2   1     1.210959952133   125.05892159   323.84833944
 O     17   2   1     1.321752987961   111.92072340   145.63870947
 H      1   2   3     1.086700563514   110.18386688    53.44116821
 H      1   2   3     1.086610822859   110.14596369   173.00378193
 H      1   2   3     1.085911503076   109.80783924   293.18682579
 H      5   4   2     1.078557349817   119.71381808   359.32416095
 H      6   5   4     1.078558932884   119.81854964   181.09880470
 H      9   8   7     1.079104553243   119.30675376   178.78920094
 H     12  11   7     1.079604780297   119.48275924   358.36404739
 H     13  12  11     1.079515301062   119.78575147   179.56836114
 H     14  13  12     1.079308416129   120.15855380   180.05227165
 H     15  14  13     1.079593543130   120.11848704   180.14936811
 H     16  15  14     1.079923043202   119.82854146   180.52602842
 H     19  17   2     0.977481341827   113.12312438   177.64149188

---------------------------
INTERNAL COORDINATES (A.U.)
---------------------------
 C      0   0   0     0.000000000000     0.00000000     0.00000000
 C      1   0   0     2.890349498240     0.00000000     0.00000000
 H      2   1   0     2.064018691564   110.55254017     0.00000000
 C      2   1   3     2.858428573217   111.27585297   121.21486191
 C      4   2   1     2.624551196199   120.96049892   245.54809474
 C      5   4   2     2.611027204375   120.72440983   179.01720929
 C      6   5   4     2.634120385944   121.55522528     0.06454570
 C      7   6   5     2.629527646340   116.42980449     0.40971946
 C      8   7   6     2.605837548637   122.98496593   359.62931369
 F      8   7   6     2.582260864785   119.62942043   178.06061398
 C      7   6   5     2.780670368056   121.04144358   180.07621101
 C     11   7   6     2.632834141649   119.95325328   315.67190112
 C     12  11   7     2.612182520721   120.43450482   179.66045318
 C     13  12  11     2.617908628456   120.17260915   359.67414062
 C     14  13  12     2.616923306968   119.75645363     0.12269354
 C     15  14  13     2.613491453205   120.24936908     0.13093176
 C      2   1   3     2.864855186307   111.16367235   240.35342204
 O     17   2   1     2.288382668678   125.05892159   323.84833944
 O     17   2   1     2.497751163938   111.92072340   145.63870947
 H      1   2   3     2.053566454619   110.18386688    53.44116821
 H      1   2   3     2.053396869358   110.14596369   173.00378193
 H      1   2   3     2.052075346488   109.80783924   293.18682579
 H      5   4   2     2.038178010881   119.71381808   359.32416095
 H      6   5   4     2.038181002445   119.81854964   181.09880470
 H      9   8   7     2.039212075497   119.30675376   178.78920094
 H     12  11   7     2.040157367633   119.48275924   358.36404739
 H     13  12  11     2.039988276385   119.78575147   179.56836114
 H     14  13  12     2.039597320520   120.15855380   180.05227165
 H     15  14  13     2.040136132465   120.11848704   180.14936811
 H     16  15  14     2.040758797363   119.82854146   180.52602842
 H     19  17   2     1.847172037070   113.12312438   177.64149188

---------------------
BASIS SET INFORMATION
---------------------
There are 4 groups of distinct atoms

 Group   1 Type C   : 11s6p1d contracted to 5s3p1d pattern {62111/411/1}
 Group   2 Type H   : 4s1p contracted to 2s1p pattern {31/1}
 Group   3 Type F   : 11s6p2d contracted to 5s3p2d pattern {62111/411/11}
 Group   4 Type O   : 11s6p2d contracted to 5s3p2d pattern {62111/411/11}

Atom   0C    basis set group =>   1
Atom   1C    basis set group =>   1
Atom   2H    basis set group =>   2
Atom   3C    basis set group =>   1
Atom   4C    basis set group =>   1
Atom   5C    basis set group =>   1
Atom   6C    basis set group =>   1
Atom   7C    basis set group =>   1
Atom   8C    basis set group =>   1
Atom   9F    basis set group =>   3
Atom  10C    basis set group =>   1
Atom  11C    basis set group =>   1
Atom  12C    basis set group =>   1
Atom  13C    basis set group =>   1
Atom  14C    basis set group =>   1
Atom  15C    basis set group =>   1
Atom  16C    basis set group =>   1
Atom  17O    basis set group =>   4
Atom  18O    basis set group =>   4
Atom  19H    basis set group =>   2
Atom  20H    basis set group =>   2
Atom  21H    basis set group =>   2
Atom  22H    basis set group =>   2
Atom  23H    basis set group =>   2
Atom  24H    basis set group =>   2
Atom  25H    basis set group =>   2
Atom  26H    basis set group =>   2
Atom  27H    basis set group =>   2
Atom  28H    basis set group =>   2
Atom  29H    basis set group =>   2
Atom  30H    basis set group =>   2
---------------------------------
AUXILIARY/J BASIS SET INFORMATION
---------------------------------
There are 4 groups of distinct atoms

 Group   1 Type C   : 12s5p4d2f1g contracted to 6s4p3d1f1g pattern {711111/2111/211/2/1}
 Group   2 Type H   : 5s2p1d contracted to 3s1p1d pattern {311/2/1}
 Group   3 Type F   : 12s5p4d2f1g contracted to 6s4p3d1f1g pattern {711111/2111/211/2/1}
 Group   4 Type O   : 12s5p4d2f1g contracted to 6s4p3d1f1g pattern {711111/2111/211/2/1}

Atom   0C    basis set group =>   1
Atom   1C    basis set group =>   1
Atom   2H    basis set group =>   2
Atom   3C    basis set group =>   1
Atom   4C    basis set group =>   1
Atom   5C    basis set group =>   1
Atom   6C    basis set group =>   1
Atom   7C    basis set group =>   1
Atom   8C    basis set group =>   1
Atom   9F    basis set group =>   3
Atom  10C    basis set group =>   1
Atom  11C    basis set group =>   1
Atom  12C    basis set group =>   1
Atom  13C    basis set group =>   1
Atom  14C    basis set group =>   1
Atom  15C    basis set group =>   1
Atom  16C    basis set group =>   1
Atom  17O    basis set group =>   4
Atom  18O    basis set group =>   4
Atom  19H    basis set group =>   2
Atom  20H    basis set group =>   2
Atom  21H    basis set group =>   2
Atom  22H    basis set group =>   2
Atom  23H    basis set group =>   2
Atom  24H    basis set group =>   2
Atom  25H    basis set group =>   2
Atom  26H    basis set group =>   2
Atom  27H    basis set group =>   2
Atom  28H    basis set group =>   2
Atom  29H    basis set group =>   2
Atom  30H    basis set group =>   2

Checking for AutoStart:
The File: sp_gas.gbw exists
Trying to determine its content:
     ... Fine, the file contains calculation information
     ... Fine, the calculation information was read
     ... Fine, the file contains a basis set
     ... Fine, the basis set was read
     ... Fine, the file contains a geometry
     ... Fine, the geometry was read
     ... Fine, the file contains a set of orbitals
     ... Fine, the orbitals can be read
     => possible old guess file was deleted
     => GBW file was renamed to GES file
     => GES file is set as startup file
     => Guess is set to MORead
     ... now leaving AutoStart

------------------------------------------------------------------------------
                             ORCA STARTUP CALCULATIONS
                           -- RI-GTO INTEGRALS CHOSEN --
------------------------------------------------------------------------------
------------------------------------------------------------------------------
                   ___                                                        
                  /   \      - P O W E R E D   B Y -                         
                 /     \                                                     
                 |  |  |   _    _      __       _____    __    __             
                 |  |  |  | |  | |    /  \     |  _  \  |  |  /  |          
                  \  \/   | |  | |   /    \    | | | |  |  | /  /          
                 / \  \   | |__| |  /  /\  \   | |_| |  |  |/  /          
                |  |  |   |  __  | /  /__\  \  |    /   |      \           
                |  |  |   | |  | | |   __   |  |    \   |  |\   \          
                \     /   | |  | | |  |  |  |  | |\  \  |  | \   \       
                 \___/    |_|  |_| |__|  |__|  |_| \__\ |__|  \__/        
                                                                              
                      - O R C A' S   B I G   F R I E N D -                    
                                      &                                       
                       - I N T E G R A L  F E E D E R -                       
                                                                              
 v1 FN, 2020, v2 2021, v3 2022-2024                                           
------------------------------------------------------------------------------


----------------------
SHARK INTEGRAL PACKAGE
----------------------

Number of atoms                             ...     31
Number of basis functions                   ...    422
Number of shells                            ...    204
Maximum angular momentum                    ...      2
Integral batch strategy                     ... SHARK/LIBINT Hybrid
RI-J (if used) integral strategy            ... SPLIT-RIJ (Revised 2003 algorithm where possible)
Printlevel                                  ...      1
Contraction scheme used                     ... SEGMENTED contraction
Prescreening option                         ... SCHWARTZ
   Thresh                                   ... 1.000e-10
   Tcut                                     ... 1.000e-11
   Tpresel                                  ... 1.000e-11 
Coulomb Range Separation                    ... NOT USED
Exchange Range Separation                   ... NOT USED
Multipole approximations                    ... NOT USED
Finite Nucleus Model                        ... NOT USED
CABS basis                                  ... NOT available
Auxiliary Coulomb fitting basis             ... AVAILABLE
   # of basis functions in Aux-J            ...   1025
   # of shells in Aux-J                     ...    335
   Maximum angular momentum in Aux-J        ...      4
Auxiliary J/K fitting basis                 ... NOT available
Auxiliary Correlation fitting basis         ... NOT available
Auxiliary 'external' fitting basis          ... NOT available

Checking pre-screening integrals            ... done (  0.0 sec) Dimension = 204
Check shell pair data                       ... done (  0.0 sec)
Shell pair information
Shell pair cut-off parameter TPreSel        ...   1.0e-11
Total number of shell pairs                 ...     20910
Shell pairs after pre-screening             ...     14872
Total number of primitive shell pairs       ...     77463
Primitive shell pairs kept                  ...     35445
          la=0 lb=0:   4559 shell pairs
          la=1 lb=0:   5688 shell pairs
          la=1 lb=1:   1795 shell pairs
          la=2 lb=0:   1643 shell pairs
          la=2 lb=1:   1029 shell pairs
          la=2 lb=2:    158 shell pairs

Calculating one electron integrals          ... done (  0.1 sec)
Calculating RI/J V-Matrix + Cholesky decomp.... done (  0.1 sec)
Calculating Nuclear repulsion               ... done (  0.0 sec) ENN=   1228.693108712553 Eh

Diagonalization of the overlap matrix:
Smallest eigenvalue                        ... 1.893e-05
Time for diagonalization                   ...    0.024 sec
Threshold for overlap eigenvalues          ... 1.000e-07
Number of eigenvalues below threshold      ... 0
Time for construction of square roots      ...    0.014 sec
Total time needed                          ...    0.040 sec

-------------------
DFT GRID GENERATION
-------------------

General Integration Accuracy     IntAcc      ... 4.388
Radial Grid Type                 RadialGrid  ... OptM3 with GC (2021)
Angular Grid (max. ang.)         AngularGrid ... 4 (Lebedev-302)
Angular grid pruning method      GridPruning ... 4 (adaptive)
Weight generation scheme         WeightScheme... mBecke (2022)
Basis function cutoff            BFCut       ... 1.0000e-10
Integration weight cutoff        WCut        ... 1.0000e-14
Partially contracted basis set               ... off
Rotationally invariant grid construction     ... off
Angular grids for H and He will be reduced by one unit
Diffuse basis detected: some atoms will have their outermost
                        angular grid increased by 1.

Total number of grid points                  ...   149939
Total number of batches                      ...     2361
Average number of points per batch           ...       63
Average number of grid points per atom       ...     4837
Initializing property integral containers    ... done (  0.0 sec)

SHARK setup successfully completed in   2.0 seconds

Maximum memory used throughout the entire STARTUP-calculation: 77.2 MB
-------------------------------------------------------------------------------
                                 ORCA GUESS
                   Start orbitals & Density for SCF / CASSCF
-------------------------------------------------------------------------------

------------
SCF SETTINGS
------------
Hamiltonian:
 Density Functional     Method          .... DFT(GTOs)
  Functional kind                       .... Exchange
  Functional name                       .... Re-regularized SCAN exchange by Furness et al
  Functional family                     .... MGGA
  Functional refs                              
    [ 0] J. W. Furness, A. D. Kaplan, J. Ning, J. P. Perdew, and J. Sun.,  J. Phys. Chem. Lett. 11, 8208-8215 (2020), doi: 10.1021/acs.jpclett.0c02405
    [ 1] J. W. Furness, A. D. Kaplan, J. Ning, J. P. Perdew, and J. Sun.,  J. Phys. Chem. Lett. 11, 9248-9248 (2020), doi: 10.1021/acs.jpclett.0c03077
  Functional external parameters        .... 6
    Parameter  0 _c1        =  6.670000e-01 : c1 parameter        
    Parameter  1 _c2        =  8.000000e-01 : c2 parameter        
    Parameter  2 _d         =  1.240000e+00 : d parameter         
    Parameter  3 _k1        =  6.500000e-02 : k1 parameter        
    Parameter  4 _eta       =  1.000000e-03 : eta parameter       
    Parameter  5 _dp2       =  3.610000e-01 : dp2 parameter       
  Functional kind                       .... Correlation
  Functional name                       .... Re-regularized SCAN correlation by Furness et al
  Functional family                     .... MGGA
  Functional refs                              
    [ 0] J. W. Furness, A. D. Kaplan, J. Ning, J. P. Perdew, and J. Sun.,  J. Phys. Chem. Lett. 11, 8208-8215 (2020), doi: 10.1021/acs.jpclett.0c02405
    [ 1] J. W. Furness, A. D. Kaplan, J. Ning, J. P. Perdew, and J. Sun.,  J. Phys. Chem. Lett. 11, 9248-9248 (2020), doi: 10.1021/acs.jpclett.0c03077
  Functional external parameters        .... 1
    Parameter  0 _eta       =  1.000000e-03 : Regularization parameter
 Gradients option       PostSCFGGA      .... off
 RI-approximation to the Coulomb term is turned on
   Number of AuxJ basis functions       .... 1025


General Settings:
 Integral files         IntName         .... sp_gas
 Hartree-Fock type      HFTyp           .... RHF
 Total Charge           Charge          ....    0
 Multiplicity           Mult            ....    1
 Number of Electrons    NEL             ....  128
 Basis Dimension        Dim             ....  422
 Nuclear Repulsion      ENuc            ....   1228.6931087126 Eh

Convergence Acceleration:
 AO-DIIS                CNVDIIS         .... on
   Start iteration      DIISMaxIt       ....    12
   Startup error        DIISStart       ....  0.200000
   # of expansion vecs  DIISMaxEq       ....     5
   Bias factor          DIISBfac        ....   1.050
   Max. coefficient     DIISMaxC        ....  10.000
 MO-DIIS                CNVKDIIS        .... off
 Trust-Rad. Augm. Hess. CNVTRAH         .... auto
   Auto Start mean grad. ratio tolernc. ....  1.125000
   Auto Start start iteration           ....     1
   Auto Start num. interpolation iter.  ....    10
   Max. Number of Micro iterations      ....    24
   Max. Number of Macro iterations      .... Maxiter - #DIIS iter
   Number of Davidson start vectors     ....     2
   Converg. threshold    (grad. norm)   ....   3.330e-04
   Grad. Scal. Fac. for Micro threshold ....   0.100
   Minimum threshold for Micro iter.    ....   1.000e-02
   NR start threshold (gradient norm)   ....   1.000e-04
   Initial trust radius                 ....   0.400
   Minimum AH scaling param. (alpha)    ....   1.000
   Maximum AH scaling param. (alpha)    .... 1000.000
   Quad. conv. algorithm                .... NR
   White noise on init. David. guess    .... on
   Maximum white noise                  ....   0.010
   Pseudo random numbers                .... off
   Inactive MOs                         .... canonical
   Orbital update algorithm             .... Taylor
   Preconditioner                       .... Diag
   Full preconditioner red. dimension   ....   250
   COSX micro iterations for RIJONX calc.... off
 SOSCF                  CNVSOSCF        .... on
   Start iteration      SOSCFMaxIt      ....   150
   Startup grad/error   SOSCFStart      ....  0.003300
   Hessian update       SOSCFHessUp     .... L-BFGS
 Level Shifting         CNVShift        .... on
   Level shift para.    LevelShift      ....    0.2500
   Turn off err/grad.   ShiftErr        ....    0.0010
 Zerner damping         CNVZerner       .... off
 Static damping         CNVDamp         .... on
   Fraction old density DampFac         ....    0.7000
   Max. Damping (<1)    DampMax         ....    0.9800
   Min. Damping (>=0)   DampMin         ....    0.0000
   Turn off err/grad.   DampErr         ....    0.1000

SCF Procedure:
 Maximum # iterations   MaxIter         ....   125
 SCF integral mode      SCFMode         .... Direct
   Integral package                     .... SHARK and LIBINT hybrid scheme
 Reset frequency        DirectResetFreq ....    20
 Integral Threshold     Thresh          ....  1.000e-10 Eh
 Primitive CutOff       TCut            ....  1.000e-11 Eh

Convergence Tolerance:
 Convergence Check Mode ConvCheckMode   .... Total+1el-Energy
 Convergence forced     ConvForced      .... 0
 Energy Change          TolE            ....  1.000e-06 Eh
 1-El. energy change                    ....  1.000e-03 Eh
 Orbital Gradient       TolG            ....  3.330e-04
 Orbital Rotation angle TolX            ....  3.330e-04
 DIIS Error             TolErr          ....  1.000e-06

---------------------
INITIAL GUESS: MOREAD
---------------------
Guess MOs are being read from file: sp_gas.ges
Input Geometry matches current geometry (good)
Atom 0: N(Shells)= 9 and 6 - projection required
Input basis set needs projection
NBasis(read)= 278
NBasis(calc)= 422
Basis set overlap was calculated
Using GuessMode=FMatrix for the initial guess
C*T matrix was formed
Effective Fockian was calculated
Effective Fockian was diagonalized
Initial density was built
                      ------------------
                      INITIAL GUESS DONE (   0.1 sec)
                      ------------------
             **** ENERGY FILE WAS UPDATED (sp_gas.en.tmp) ****
Finished Guess after   0.2 sec
Maximum memory used throughout the entire GUESS-calculation: 41.7 MB

-------------------------------------------------------------------------------------------
                                      ORCA LEAN-SCF
                              memory conserving SCF solver
-------------------------------------------------------------------------------------------

----------------------------------------D-I-I-S--------------------------------------------
Iteration    Energy (Eh)           Delta-E    RMSDP     MaxDP     DIISErr   Damp  Time(sec)
-------------------------------------------------------------------------------------------
               ***  Starting incremental Fock matrix formation  ***
    1    -829.1923736747462499     0.00e+00  1.05e-02  6.66e-01  8.29e-01  0.700   6.2
    2    -829.3064789410332196    -1.14e-01  7.73e-03  4.77e-01  5.83e-01  0.700   5.5
    3    -829.3869263336841868    -8.04e-02  5.47e-03  3.32e-01  4.09e-01  0.700   5.4
    4    -829.4433720498736875    -5.64e-02  3.84e-03  2.31e-01  2.86e-01  0.700   5.3
    5    -829.4829499186243993    -3.96e-02  2.69e-03  1.61e-01  2.00e-01  0.700   5.2
                               ***Turning on AO-DIIS***
    6    -829.5106889149574272    -2.77e-02  1.89e-03  1.12e-01  1.40e-01  0.700   5.1
    7    -829.5301243478543256    -1.94e-02  1.32e-03  7.78e-02  9.82e-02  0.700   5.0
    8    -829.5437399099901086    -1.36e-02  3.08e-03  1.81e-01  6.88e-02  0.000   4.8
                              *** Initializing SOSCF ***
---------------------------------------S-O-S-C-F--------------------------------------
Iteration    Energy (Eh)           Delta-E    RMSDP     MaxDP     MaxGrad    Time(sec)
--------------------------------------------------------------------------------------
    9    -829.5755454000550344    -3.18e-02  1.08e-05  8.58e-04  2.18e-04     5.2
               *** Restarting incremental Fock matrix formation ***
   10    -829.5755455188382257    -1.19e-07  1.64e-05  1.25e-03  6.30e-05     6.4
                  *** Gradient check signals convergence ***

               *****************************************************
               *                     SUCCESS                       *
               *           SCF CONVERGED AFTER  10 CYCLES          *
               *****************************************************

             **** ENERGY FILE WAS UPDATED (sp_gas.en.tmp) ****

----------------
TOTAL SCF ENERGY
----------------

Total Energy       :       -829.57554551883823 Eh          -22573.89823 eV

Components:
Nuclear Repulsion  :       1228.69310871255266 Eh           33434.43926 eV
Electronic Energy  :      -2058.26865423139134 Eh          -56008.33749 eV
One Electron Energy:      -3569.21546601686077 Eh          -97123.29048 eV
Two Electron Energy:       1510.94681178546966 Eh           41114.95299 eV

Virial components:
Potential Energy   :      -1656.00345241511695 Eh          -45062.14486 eV
Kinetic Energy     :        826.42790689627861 Eh           22488.24663 eV
Virial Ratio       :          2.00380872741142

DFT components:
N(Alpha)           :       63.999986493145 electrons
N(Beta)            :       63.999986493145 electrons
N(Total)           :      127.999972986291 electrons
E(X)               :     -109.501495259452 Eh       
E(C)               :       -4.200894006258 Eh       
E(XC)              :     -113.702389265710 Eh       

---------------
SCF CONVERGENCE
---------------

  Last Energy change         ...    1.1878e-07  Tolerance :   1.0000e-06
  Last MAX-Density change    ...    1.2472e-03  Tolerance :   1.0000e-05
  Last RMS-Density change    ...    1.6388e-05  Tolerance :   1.0000e-06
  Last DIIS Error            ...    2.1827e-04  Tolerance :   1.0000e-06
  Last Orbital Gradient      ...    6.2971e-05  Tolerance :   3.3300e-04
  Last Orbital Rotation      ...    1.5341e-04  Tolerance :   3.3300e-04


----------------
ORBITAL ENERGIES
----------------

  NO   OCC          E(Eh)            E(eV) 
   0   2.0000     -24.495603      -666.5592 
   1   2.0000     -19.011915      -517.3405 
   2   2.0000     -18.942155      -515.4422 
   3   2.0000     -10.168606      -276.7018 
   4   2.0000     -10.124275      -275.4955 
   5   2.0000     -10.067184      -273.9420 
   6   2.0000     -10.062423      -273.8125 
   7   2.0000     -10.057398      -273.6757 
   8   2.0000     -10.052329      -273.5378 
   9   2.0000     -10.048621      -273.4369 
  10   2.0000     -10.043973      -273.3104 
  11   2.0000     -10.043408      -273.2950 
  12   2.0000     -10.039373      -273.1852 
  13   2.0000     -10.038458      -273.1603 
  14   2.0000     -10.037777      -273.1418 
  15   2.0000     -10.037457      -273.1331 
  16   2.0000     -10.037121      -273.1240 
  17   2.0000     -10.033319      -273.0205 
  18   2.0000      -1.178856       -32.0783 
  19   2.0000      -1.086145       -29.5555 
  20   2.0000      -0.988199       -26.8903 
  21   2.0000      -0.853997       -23.2384 
  22   2.0000      -0.831415       -22.6239 
  23   2.0000      -0.790072       -21.4990 
  24   2.0000      -0.744078       -20.2474 
  25   2.0000      -0.727434       -19.7945 
  26   2.0000      -0.720059       -19.5938 
  27   2.0000      -0.694239       -18.8912 
  28   2.0000      -0.656093       -17.8532 
  29   2.0000      -0.612744       -16.6736 
  30   2.0000      -0.599379       -16.3099 
  31   2.0000      -0.575171       -15.6512 
  32   2.0000      -0.568578       -15.4718 
  33   2.0000      -0.555382       -15.1127 
  34   2.0000      -0.511151       -13.9091 
  35   2.0000      -0.492255       -13.3949 
  36   2.0000      -0.487092       -13.2544 
  37   2.0000      -0.461578       -12.5602 
  38   2.0000      -0.453859       -12.3501 
  39   2.0000      -0.451038       -12.2734 
  40   2.0000      -0.438573       -11.9342 
  41   2.0000      -0.431237       -11.7346 
  42   2.0000      -0.421558       -11.4712 
  43   2.0000      -0.413990       -11.2652 
  44   2.0000      -0.410175       -11.1614 
  45   2.0000      -0.407537       -11.0896 
  46   2.0000      -0.392785       -10.6882 
  47   2.0000      -0.381682       -10.3861 
  48   2.0000      -0.381440       -10.3795 
  49   2.0000      -0.364439        -9.9169 
  50   2.0000      -0.360126        -9.7995 
  51   2.0000      -0.351265        -9.5584 
  52   2.0000      -0.343365        -9.3434 
  53   2.0000      -0.334853        -9.1118 
  54   2.0000      -0.332034        -9.0351 
  55   2.0000      -0.326642        -8.8884 
  56   2.0000      -0.315109        -8.5745 
  57   2.0000      -0.307629        -8.3710 
  58   2.0000      -0.300054        -8.1649 
  59   2.0000      -0.263129        -7.1601 
  60   2.0000      -0.247939        -6.7468 
  61   2.0000      -0.240987        -6.5576 
  62   2.0000      -0.239921        -6.5286 
  63   2.0000      -0.216707        -5.8969 
  64   0.0000      -0.063897        -1.7387 
  65   0.0000      -0.040160        -1.0928 
  66   0.0000      -0.034711        -0.9445 
  67   0.0000      -0.028048        -0.7632 
  68   0.0000      -0.004507        -0.1226 
  69   0.0000       0.049851         1.3565 
  70   0.0000       0.057397         1.5618 
  71   0.0000       0.075836         2.0636 
  72   0.0000       0.087048         2.3687 
  73   0.0000       0.098350         2.6762 
  74   0.0000       0.107274         2.9191 
*Only the first 10 virtual orbitals were printed.

                    ********************************
                    * MULLIKEN POPULATION ANALYSIS *
                    ********************************

-----------------------
MULLIKEN ATOMIC CHARGES
-----------------------
   0 C :   -0.493627
   1 C :   -0.036089
   2 H :    0.153483
   3 C :    0.142767
   4 C :   -0.238256
   5 C :   -0.197409
   6 C :    0.059083
   7 C :    0.308956
   8 C :   -0.351106
   9 F :   -0.239449
  10 C :    0.104274
  11 C :   -0.208774
  12 C :   -0.170182
  13 C :   -0.135934
  14 C :   -0.172565
  15 C :   -0.180263
  16 C :    0.338063
  17 O :   -0.408874
  18 O :   -0.334484
  19 H :    0.150277
  20 H :    0.181238
  21 H :    0.157515
  22 H :    0.147348
  23 H :    0.154450
  24 H :    0.193381
  25 H :    0.152516
  26 H :    0.145607
  27 H :    0.146863
  28 H :    0.145918
  29 H :    0.155343
  30 H :    0.329930
Sum of atomic charges:    0.0000000

--------------------------------
MULLIKEN REDUCED ORBITAL CHARGES
--------------------------------
  0 C s       :     3.351185  s :     3.351185
      pz      :     1.005285  p :     3.116036
      px      :     1.081996
      py      :     1.028756
      dz2     :     0.005770  d :     0.026405
      dxz     :     0.005060
      dyz     :     0.005406
      dx2y2   :     0.008080
      dxy     :     0.002090

  1 C s       :     2.990391  s :     2.990391
      pz      :     0.941524  p :     3.000356
      px      :     0.972179
      py      :     1.086654
      dz2     :     0.011001  d :     0.045341
      dxz     :     0.010577
      dyz     :     0.006952
      dx2y2   :     0.010984
      dxy     :     0.005828

  2 H s       :     0.828888  s :     0.828888
      pz      :     0.003492  p :     0.017630
      px      :     0.003675
      py      :     0.010462

  3 C s       :     3.141003  s :     3.141003
      pz      :     0.977579  p :     2.668264
      px      :     0.806106
      py      :     0.884579
      dz2     :     0.004812  d :     0.047966
      dxz     :     0.007058
      dyz     :     0.007344
      dx2y2   :     0.014287
      dxy     :     0.014464

  4 C s       :     3.188396  s :     3.188396
      pz      :     1.018770  p :     3.012429
      px      :     0.981846
      py      :     1.011813
      dz2     :     0.003317  d :     0.037432
      dxz     :     0.006767
      dyz     :     0.003963
      dx2y2   :     0.011266
      dxy     :     0.012118

  5 C s       :     3.198876  s :     3.198876
      pz      :     0.974358  p :     2.960941
      px      :     1.010098
      py      :     0.976485
      dz2     :     0.003969  d :     0.037592
      dxz     :     0.006593
      dyz     :     0.004216
      dx2y2   :     0.010353
      dxy     :     0.012462

  6 C s       :     3.172464  s :     3.172464
      pz      :     0.993829  p :     2.722034
      px      :     0.781545
      py      :     0.946660
      dz2     :     0.004734  d :     0.046419
      dxz     :     0.007969
      dyz     :     0.006302
      dx2y2   :     0.012590
      dxy     :     0.014825

  7 C s       :     3.156705  s :     3.156705
      pz      :     0.920936  p :     2.458908
      px      :     0.832118
      py      :     0.705854
      dz2     :     0.007575  d :     0.075431
      dxz     :     0.010880
      dyz     :     0.012542
      dx2y2   :     0.022101
      dxy     :     0.022334

  8 C s       :     3.176703  s :     3.176703
      pz      :     1.030226  p :     3.139220
      px      :     1.049865
      py      :     1.059129
      dz2     :     0.003905  d :     0.035182
      dxz     :     0.006186
      dyz     :     0.004308
      dx2y2   :     0.011561
      dxy     :     0.009222

  9 F s       :     3.927201  s :     3.927201
      pz      :     1.845050  p :     5.295640
      px      :     1.874807
      py      :     1.575784
      dz2     :     0.001943  d :     0.016608
      dxz     :     0.002021
      dyz     :     0.003423
      dx2y2   :     0.004418
      dxy     :     0.004803

 10 C s       :     3.234547  s :     3.234547
      pz      :     0.952829  p :     2.613172
      px      :     0.749580
      py      :     0.910763
      dz2     :     0.005577  d :     0.048007
      dxz     :     0.008061
      dyz     :     0.006910
      dx2y2   :     0.014490
      dxy     :     0.012969

 11 C s       :     3.195205  s :     3.195205
      pz      :     0.979494  p :     2.976342
      px      :     0.996947
      py      :     0.999900
      dz2     :     0.004052  d :     0.037227
      dxz     :     0.007141
      dyz     :     0.004213
      dx2y2   :     0.010020
      dxy     :     0.011801

 12 C s       :     3.199391  s :     3.199391
      pz      :     0.995898  p :     2.933046
      px      :     0.942710
      py      :     0.994438
      dz2     :     0.003488  d :     0.037745
      dxz     :     0.007191
      dyz     :     0.004657
      dx2y2   :     0.010870
      dxy     :     0.011539

 13 C s       :     3.177349  s :     3.177349
      pz      :     0.968396  p :     2.920999
      px      :     1.028511
      py      :     0.924092
      dz2     :     0.004851  d :     0.037587
      dxz     :     0.004204
      dyz     :     0.006783
      dx2y2   :     0.011833
      dxy     :     0.009915

 14 C s       :     3.201457  s :     3.201457
      pz      :     0.984473  p :     2.933405
      px      :     0.950607
      py      :     0.998324
      dz2     :     0.004095  d :     0.037703
      dxz     :     0.007098
      dyz     :     0.004406
      dx2y2   :     0.010529
      dxy     :     0.011575

 15 C s       :     3.193679  s :     3.193679
      pz      :     0.976400  p :     2.949357
      px      :     0.976005
      py      :     0.996952
      dz2     :     0.003474  d :     0.037227
      dxz     :     0.007134
      dyz     :     0.004571
      dx2y2   :     0.010371
      dxy     :     0.011678

 16 C s       :     3.121132  s :     3.121132
      pz      :     0.878350  p :     2.414588
      px      :     0.784202
      py      :     0.752036
      dz2     :     0.022068  d :     0.126217
      dxz     :     0.009224
      dyz     :     0.043054
      dx2y2   :     0.022588
      dxy     :     0.029282

 17 O s       :     3.835694  s :     3.835694
      pz      :     1.697100  p :     4.546710
      px      :     1.479436
      py      :     1.370175
      dz2     :     0.003874  d :     0.026470
      dxz     :     0.001910
      dyz     :     0.005275
      dx2y2   :     0.008502
      dxy     :     0.006908

 18 O s       :     3.725824  s :     3.725824
      pz      :     1.337928  p :     4.584245
      px      :     1.706383
      py      :     1.539935
      dz2     :     0.007290  d :     0.024415
      dxz     :     0.001376
      dyz     :     0.005486
      dx2y2   :     0.006031
      dxy     :     0.004232

 19 H s       :     0.831448  s :     0.831448
      pz      :     0.003822  p :     0.018275
      px      :     0.010757
      py      :     0.003696

 20 H s       :     0.800404  s :     0.800404
      pz      :     0.004191  p :     0.018358
      px      :     0.003733
      py      :     0.010434

 21 H s       :     0.824176  s :     0.824176
      pz      :     0.009012  p :     0.018310
      px      :     0.005480
      py      :     0.003817

 22 H s       :     0.832867  s :     0.832867
      pz      :     0.005267  p :     0.019785
      px      :     0.004705
      py      :     0.009813

 23 H s       :     0.825729  s :     0.825729
      pz      :     0.004608  p :     0.019821
      px      :     0.006231
      py      :     0.008981

 24 H s       :     0.786479  s :     0.786479
      pz      :     0.004634  p :     0.020140
      px      :     0.006253
      py      :     0.009253

 25 H s       :     0.827762  s :     0.827762
      pz      :     0.005074  p :     0.019722
      px      :     0.005678
      py      :     0.008970

 26 H s       :     0.834875  s :     0.834875
      pz      :     0.005646  p :     0.019519
      px      :     0.005232
      py      :     0.008640

 27 H s       :     0.833598  s :     0.833598
      pz      :     0.004072  p :     0.019539
      px      :     0.012114
      py      :     0.003353

 28 H s       :     0.834588  s :     0.834588
      pz      :     0.004889  p :     0.019493
      px      :     0.005524
      py      :     0.009080

 29 H s       :     0.825003  s :     0.825003
      pz      :     0.005507  p :     0.019654
      px      :     0.005342
      py      :     0.008806

 30 H s       :     0.629321  s :     0.629321
      pz      :     0.020299  p :     0.040748
      px      :     0.012191
      py      :     0.008259


------------------------
MULLIKEN OVERLAP CHARGES
------------------------
B(  0-C ,  1-C ) :   0.5749 B(  0-C ,  3-C ) :  -0.2004 B(  0-C , 16-C ) :  -0.2037 
B(  0-C , 17-O ) :   0.0564 B(  0-C , 19-H ) :   0.8013 B(  0-C , 20-H ) :   0.8379 
B(  0-C , 21-H ) :   0.8307 B(  1-C ,  2-H ) :   0.8938 B(  1-C ,  3-C ) :   0.0573 
B(  1-C ,  4-C ) :  -0.1541 B(  1-C ,  5-C ) :   0.0611 B(  1-C ,  7-C ) :   0.0674 
B(  1-C ,  8-C ) :  -0.0907 B(  1-C , 16-C ) :   0.2317 B(  1-C , 17-O ) :  -0.1675 
B(  1-C , 18-O ) :  -0.1023 B(  1-C , 19-H ) :  -0.1091 B(  1-C , 21-H ) :  -0.1130 
B(  2-H ,  3-C ) :  -0.1461 B(  2-H , 16-C ) :  -0.0629 B(  3-C ,  4-C ) :   0.6798 
B(  3-C ,  6-C ) :  -0.1317 B(  3-C ,  7-C ) :   0.2250 B(  3-C ,  8-C ) :   0.3043 
B(  3-C , 16-C ) :   0.0920 B(  3-C , 17-O ) :  -0.0637 B(  3-C , 18-O ) :  -0.0631 
B(  3-C , 22-H ) :  -0.0867 B(  3-C , 24-H ) :  -0.0867 B(  4-C ,  5-C ) :   0.3750 
B(  4-C ,  7-C ) :  -0.4190 B(  4-C ,  8-C ) :   0.2806 B(  4-C , 10-C ) :   0.0784 
B(  4-C , 22-H ) :   0.7899 B(  5-C ,  6-C ) :   0.6434 B(  5-C ,  7-C ) :   0.0780 
B(  5-C ,  8-C ) :  -0.3704 B(  5-C , 10-C ) :  -0.2140 B(  5-C , 11-C ) :  -0.0546 
B(  5-C , 15-C ) :   0.0824 B(  5-C , 23-H ) :   0.7854 B(  6-C ,  7-C ) :   0.5060 
B(  6-C ,  8-C ) :   0.0576 B(  6-C ,  9-F ) :  -0.1710 B(  6-C , 10-C ) :   0.1175 
B(  6-C , 11-C ) :  -0.1597 B(  6-C , 15-C ) :  -0.1380 B(  6-C , 23-H ) :  -0.0563 
B(  7-C ,  8-C ) :  -0.1187 B(  7-C ,  9-F ) :   0.4002 B(  7-C , 10-C ) :  -0.2287 
B(  7-C , 11-C ) :   0.0909 B(  7-C , 15-C ) :  -0.0810 B(  8-C ,  9-F ) :  -0.1228 
B(  8-C , 10-C ) :   0.0785 B(  8-C , 24-H ) :   0.8095 B( 10-C , 11-C ) :   0.9201 
B( 10-C , 12-C ) :  -0.1118 B( 10-C , 13-C ) :  -0.0798 B( 10-C , 14-C ) :  -0.0551 
B( 10-C , 15-C ) :   0.8887 B( 10-C , 25-H ) :  -0.0772 B( 10-C , 29-H ) :  -0.0781 
B( 11-C , 12-C ) :   0.8260 B( 11-C , 13-C ) :  -0.1741 B( 11-C , 14-C ) :  -0.0857 
B( 11-C , 15-C ) :  -0.2475 B( 11-C , 25-H ) :   0.7962 B( 11-C , 26-H ) :  -0.0527 
B( 12-C , 13-C ) :   0.9939 B( 12-C , 14-C ) :  -0.1378 B( 12-C , 15-C ) :  -0.0830 
B( 12-C , 26-H ) :   0.7958 B( 12-C , 27-H ) :  -0.0597 B( 13-C , 14-C ) :   0.9507 
B( 13-C , 15-C ) :  -0.1428 B( 13-C , 26-H ) :  -0.0582 B( 13-C , 27-H ) :   0.7939 
B( 13-C , 28-H ) :  -0.0662 B( 14-C , 15-C ) :   0.7747 B( 14-C , 27-H ) :  -0.0575 
B( 14-C , 28-H ) :   0.8032 B( 14-C , 29-H ) :  -0.0570 B( 15-C , 28-H ) :  -0.0559 
B( 15-C , 29-H ) :   0.7968 B( 16-C , 17-O ) :   1.0479 B( 16-C , 18-O ) :   0.4428 
B( 17-O , 18-O ) :  -0.2251 B( 18-O , 30-H ) :   0.5779 


                     *******************************
                     * LOEWDIN POPULATION ANALYSIS *
                     *******************************

----------------------
LOEWDIN ATOMIC CHARGES
----------------------
   0 C :   -0.370199
   1 C :   -0.146381
   2 H :    0.186616
   3 C :   -0.059788
   4 C :   -0.158230
   5 C :   -0.129419
   6 C :   -0.062695
   7 C :    0.239571
   8 C :   -0.127451
   9 F :   -0.286831
  10 C :   -0.062849
  11 C :   -0.146509
  12 C :   -0.160553
  13 C :   -0.163401
  14 C :   -0.158698
  15 C :   -0.132104
  16 C :    0.353067
  17 O :   -0.424194
  18 O :   -0.390702
  19 H :    0.159873
  20 H :    0.172288
  21 H :    0.161066
  22 H :    0.172147
  23 H :    0.177529
  24 H :    0.201053
  25 H :    0.173730
  26 H :    0.167851
  27 H :    0.167268
  28 H :    0.168418
  29 H :    0.177908
  30 H :    0.301618

-------------------------------
LOEWDIN REDUCED ORBITAL CHARGES
-------------------------------
  0 C s       :     2.963352  s :     2.963352
      pz      :     1.086286  p :     3.344444
      px      :     1.140557
      py      :     1.117602
      dz2     :     0.013268  d :     0.062403
      dxz     :     0.012127
      dyz     :     0.012953
      dx2y2   :     0.019532
      dxy     :     0.004523

  1 C s       :     2.881134  s :     2.881134
      pz      :     1.024625  p :     3.174100
      px      :     1.042142
      py      :     1.107334
      dz2     :     0.021395  d :     0.091147
      dxz     :     0.019599
      dyz     :     0.015525
      dx2y2   :     0.023723
      dxy     :     0.010906

  2 H s       :     0.769744  s :     0.769744
      pz      :     0.008294  p :     0.043640
      px      :     0.008917
      py      :     0.026429

  3 C s       :     2.857030  s :     2.857030
      pz      :     0.974885  p :     3.102986
      px      :     1.032969
      py      :     1.095132
      dz2     :     0.008875  d :     0.099772
      dxz     :     0.012978
      dyz     :     0.014260
      dx2y2   :     0.032182
      dxy     :     0.031478

  4 C s       :     2.892151  s :     2.892151
      pz      :     1.015322  p :     3.183456
      px      :     1.087691
      py      :     1.080443
      dz2     :     0.005806  d :     0.082623
      dxz     :     0.013178
      dyz     :     0.007545
      dx2y2   :     0.027041
      dxy     :     0.029053

  5 C s       :     2.892556  s :     2.892556
      pz      :     0.990474  p :     3.154467
      px      :     1.092466
      py      :     1.071528
      dz2     :     0.007074  d :     0.082396
      dxz     :     0.012880
      dyz     :     0.007988
      dx2y2   :     0.024694
      dxy     :     0.029759

  6 C s       :     2.846089  s :     2.846089
      pz      :     1.005704  p :     3.119665
      px      :     1.047733
      py      :     1.066227
      dz2     :     0.008644  d :     0.096941
      dxz     :     0.014689
      dyz     :     0.012031
      dx2y2   :     0.028477
      dxy     :     0.033101

  7 C s       :     2.788253  s :     2.788253
      pz      :     0.922887  p :     2.805507
      px      :     1.031486
      py      :     0.851134
      dz2     :     0.015604  d :     0.166669
      dxz     :     0.021608
      dyz     :     0.027429
      dx2y2   :     0.051041
      dxy     :     0.050987

  8 C s       :     2.886165  s :     2.886165
      pz      :     1.014574  p :     3.163394
      px      :     1.057816
      py      :     1.091004
      dz2     :     0.006832  d :     0.077892
      dxz     :     0.012149
      dyz     :     0.008178
      dx2y2   :     0.026950
      dxy     :     0.023783

  9 F s       :     3.744812  s :     3.744812
      pz      :     1.857617  p :     5.387391
      px      :     1.870801
      py      :     1.658972
      dz2     :     0.022444  d :     0.154628
      dxz     :     0.015685
      dyz     :     0.036764
      dx2y2   :     0.040481
      dxy     :     0.039253

 10 C s       :     2.848143  s :     2.848143
      pz      :     0.996789  p :     3.114532
      px      :     1.030850
      py      :     1.086892
      dz2     :     0.010227  d :     0.100174
      dxz     :     0.015413
      dyz     :     0.013813
      dx2y2   :     0.032115
      dxy     :     0.028606

 11 C s       :     2.895348  s :     2.895348
      pz      :     1.007507  p :     3.169635
      px      :     1.092953
      py      :     1.069175
      dz2     :     0.007364  d :     0.081526
      dxz     :     0.014493
      dyz     :     0.008285
      dx2y2   :     0.023697
      dxy     :     0.027687

 12 C s       :     2.903055  s :     2.903055
      pz      :     0.999401  p :     3.175111
      px      :     1.097092
      py      :     1.078618
      dz2     :     0.006138  d :     0.082387
      dxz     :     0.014466
      dyz     :     0.009127
      dx2y2   :     0.025354
      dxy     :     0.027303

 13 C s       :     2.904368  s :     2.904368
      pz      :     0.999371  p :     3.177116
      px      :     1.100724
      py      :     1.077021
      dz2     :     0.008799  d :     0.081917
      dxz     :     0.008243
      dyz     :     0.013795
      dx2y2   :     0.028052
      dxy     :     0.023028

 14 C s       :     2.903211  s :     2.903211
      pz      :     0.997652  p :     3.173180
      px      :     1.097732
      py      :     1.077797
      dz2     :     0.007281  d :     0.082306
      dxz     :     0.014505
      dyz     :     0.008567
      dx2y2   :     0.024617
      dxy     :     0.027336

 15 C s       :     2.895574  s :     2.895574
      pz      :     0.998306  p :     3.155100
      px      :     1.091165
      py      :     1.065629
      dz2     :     0.006262  d :     0.081430
      dxz     :     0.014251
      dyz     :     0.009024
      dx2y2   :     0.024446
      dxy     :     0.027447

 16 C s       :     2.741691  s :     2.741691
      pz      :     0.923283  p :     2.631582
      px      :     0.746156
      py      :     0.962143
      dz2     :     0.045625  d :     0.273659
      dxz     :     0.017014
      dyz     :     0.095183
      dx2y2   :     0.057864
      dxy     :     0.057973

 17 O s       :     3.549698  s :     3.549698
      pz      :     1.679325  p :     4.659517
      px      :     1.469340
      py      :     1.510853
      dz2     :     0.032103  d :     0.214979
      dxz     :     0.012755
      dyz     :     0.066051
      dx2y2   :     0.058296
      dxy     :     0.045774

 18 O s       :     3.473208  s :     3.473208
      pz      :     1.401481  p :     4.675403
      px      :     1.674003
      py      :     1.599919
      dz2     :     0.066611  d :     0.242091
      dxz     :     0.032380
      dyz     :     0.057209
      dx2y2   :     0.047487
      dxy     :     0.038404

 19 H s       :     0.796455  s :     0.796455
      pz      :     0.008346  p :     0.043672
      px      :     0.027040
      py      :     0.008286

 20 H s       :     0.783015  s :     0.783015
      pz      :     0.009613  p :     0.044697
      px      :     0.008377
      py      :     0.026708

 21 H s       :     0.795139  s :     0.795139
      pz      :     0.022076  p :     0.043795
      px      :     0.012965
      py      :     0.008753

 22 H s       :     0.782747  s :     0.782747
      pz      :     0.011774  p :     0.045106
      px      :     0.010616
      py      :     0.022717

 23 H s       :     0.777082  s :     0.777082
      pz      :     0.010181  p :     0.045389
      px      :     0.014258
      py      :     0.020950

 24 H s       :     0.751697  s :     0.751697
      pz      :     0.010615  p :     0.047250
      px      :     0.014467
      py      :     0.022167

 25 H s       :     0.781044  s :     0.781044
      pz      :     0.011295  p :     0.045226
      px      :     0.012945
      py      :     0.020986

 26 H s       :     0.787570  s :     0.787570
      pz      :     0.012562  p :     0.044579
      px      :     0.011961
      py      :     0.020055

 27 H s       :     0.787998  s :     0.787998
      pz      :     0.008870  p :     0.044734
      px      :     0.028383
      py      :     0.007481

 28 H s       :     0.787012  s :     0.787012
      pz      :     0.010806  p :     0.044570
      px      :     0.012655
      py      :     0.021110

 29 H s       :     0.776976  s :     0.776976
      pz      :     0.012476  p :     0.045117
      px      :     0.012153
      py      :     0.020487

 30 H s       :     0.582609  s :     0.582609
      pz      :     0.060209  p :     0.115773
      px      :     0.032597
      py      :     0.022967


---------------------------------
LOEWDIN BOND ORDERS (THRESH 0.050000)
---------------------------------
B(  0-C ,  1-C ) :   1.0780 B(  0-C ,  3-C ) :   0.0705 B(  0-C , 16-C ) :   0.0700 
B(  0-C , 19-H ) :   0.9191 B(  0-C , 20-H ) :   0.9066 B(  0-C , 21-H ) :   0.9167 
B(  1-C ,  2-H ) :   0.8272 B(  1-C ,  3-C ) :   1.0096 B(  1-C ,  4-C ) :   0.0913 
B(  1-C ,  8-C ) :   0.0790 B(  1-C , 16-C ) :   0.8761 B(  1-C , 17-O ) :   0.1728 
B(  1-C , 18-O ) :   0.1816 B(  3-C ,  4-C ) :   1.4226 B(  3-C ,  5-C ) :   0.0930 
B(  3-C ,  6-C ) :   0.1095 B(  3-C ,  7-C ) :   0.1012 B(  3-C ,  8-C ) :   1.4071 
B(  3-C , 16-C ) :   0.0779 B(  3-C , 22-H ) :   0.0524 B(  4-C ,  5-C ) :   1.5118 
B(  4-C ,  6-C ) :   0.0903 B(  4-C ,  7-C ) :   0.1087 B(  4-C ,  8-C ) :   0.0853 
B(  4-C , 22-H ) :   0.8640 B(  4-C , 23-H ) :   0.0547 B(  5-C ,  6-C ) :   1.3994 
B(  5-C ,  7-C ) :   0.0945 B(  5-C ,  8-C ) :   0.1215 B(  5-C , 10-C ) :   0.0854 
B(  5-C , 22-H ) :   0.0551 B(  5-C , 23-H ) :   0.8580 B(  6-C ,  7-C ) :   1.2950 
B(  6-C ,  8-C ) :   0.0923 B(  6-C ,  9-F ) :   0.1552 B(  6-C , 10-C ) :   1.0520 
B(  6-C , 11-C ) :   0.0885 B(  6-C , 15-C ) :   0.0866 B(  6-C , 23-H ) :   0.0510 
B(  7-C ,  8-C ) :   1.3983 B(  7-C ,  9-F ) :   1.3216 B(  7-C , 10-C ) :   0.0794 
B(  7-C , 24-H ) :   0.0569 B(  8-C ,  9-F ) :   0.1722 B(  8-C , 24-H ) :   0.8384 
B( 10-C , 11-C ) :   1.4122 B( 10-C , 12-C ) :   0.0895 B( 10-C , 13-C ) :   0.1221 
B( 10-C , 14-C ) :   0.0903 B( 10-C , 15-C ) :   1.4128 B( 10-C , 25-H ) :   0.0515 
B( 10-C , 29-H ) :   0.0509 B( 11-C , 12-C ) :   1.5172 B( 11-C , 13-C ) :   0.0885 
B( 11-C , 14-C ) :   0.1276 B( 11-C , 15-C ) :   0.0814 B( 11-C , 25-H ) :   0.8623 
B( 11-C , 26-H ) :   0.0557 B( 12-C , 13-C ) :   1.5027 B( 12-C , 14-C ) :   0.0872 
B( 12-C , 15-C ) :   0.1278 B( 12-C , 25-H ) :   0.0534 B( 12-C , 26-H ) :   0.8732 
B( 12-C , 27-H ) :   0.0540 B( 13-C , 14-C ) :   1.5015 B( 13-C , 15-C ) :   0.0889 
B( 13-C , 26-H ) :   0.0538 B( 13-C , 27-H ) :   0.8754 B( 13-C , 28-H ) :   0.0538 
B( 14-C , 15-C ) :   1.5177 B( 14-C , 27-H ) :   0.0541 B( 14-C , 28-H ) :   0.8729 
B( 14-C , 29-H ) :   0.0532 B( 15-C , 28-H ) :   0.0557 B( 15-C , 29-H ) :   0.8601 
B( 16-C , 17-O ) :   2.1890 B( 16-C , 18-O ) :   1.4983 B( 16-C , 30-H ) :   0.0556 
B( 17-O , 18-O ) :   0.4666 B( 18-O , 30-H ) :   0.9126 

------------------------------------------
LOEWDIN REDUCED ORBITAL POPULATIONS PER MO
-------------------------------------------
THRESHOLD FOR PRINTING IS 0.1%%
                      0         1         2         3         4         5   
                 -24.49560 -19.01191 -18.94215 -10.16861 -10.12427 -10.06718
                   2.00000   2.00000   2.00000   2.00000   2.00000   2.00000
                  --------  --------  --------  --------  --------  --------
 1 C  s               0.0       0.0       0.0       0.0       0.0      99.6
 7 C  s               0.0       0.0       0.0       0.0      99.2       0.0
 8 C  px              0.0       0.0       0.0       0.0       0.1       0.0
 9 F  s             100.0       0.0       0.0       0.0       0.0       0.0
 9 F  dxy             0.0       0.0       0.0       0.0       0.1       0.0
16 C  s               0.0       0.0       0.0      98.9       0.0       0.0
17 O  s               0.0       0.0      99.9       0.0       0.0       0.0
17 O  py              0.0       0.0       0.0       0.2       0.0       0.0
17 O  dx2y2           0.0       0.0       0.0       0.2       0.0       0.0
18 O  s               0.0      99.9       0.0       0.0       0.0       0.0
18 O  dyz             0.0       0.0       0.0       0.2       0.0       0.0

                      6         7         8         9        10        11   
                 -10.06242 -10.05740 -10.05233 -10.04862 -10.04397 -10.04341
                   2.00000   2.00000   2.00000   2.00000   2.00000   2.00000
                  --------  --------  --------  --------  --------  --------
 3 C  s              99.5       0.0       0.0       0.0       0.0       0.0
 4 C  s               0.0       0.0       0.0       0.2       0.0      99.4
 4 C  px              0.0       0.0       0.0       0.1       0.0       0.0
 5 C  s               0.0       0.1       0.0      99.3       0.0       0.2
 5 C  px              0.0       0.0       0.0       0.0       0.0       0.1
 6 C  s               0.0      99.4       0.1       0.1       0.0       0.0
 6 C  px              0.0       0.0       0.1       0.0       0.0       0.0
 7 C  px              0.0       0.0       0.0       0.0       0.1       0.0
 8 C  s               0.0       0.0       0.0       0.0      99.5       0.0
10 C  s               0.0       0.1      99.4       0.0       0.0       0.0
10 C  px              0.0       0.1       0.0       0.0       0.0       0.0

                     12        13        14        15        16        17   
                 -10.03937 -10.03846 -10.03778 -10.03746 -10.03712 -10.03332
                   2.00000   2.00000   2.00000   2.00000   2.00000   2.00000
                  --------  --------  --------  --------  --------  --------
 0 C  s               0.0       0.0       0.0       0.0       0.0      99.7
11 C  s              92.7       6.8       0.1       0.0       0.0       0.0
11 C  px              0.0       0.1       0.0       0.0       0.0       0.0
12 C  s               6.8      87.1       2.1       2.8       0.8       0.0
12 C  px              0.1       0.0       0.0       0.0       0.0       0.0
13 C  s               0.1       5.5      18.0      49.0      27.0       0.0
14 C  s               0.0       0.3      48.0       0.8      50.6       0.0
14 C  px              0.0       0.0       0.0       0.1       0.0       0.0
15 C  s               0.0       0.0      31.4      46.9      21.3       0.0

                     18        19        20        21        22        23   
                  -1.17886  -1.08615  -0.98820  -0.85400  -0.83141  -0.79007
                   2.00000   2.00000   2.00000   2.00000   2.00000   2.00000
                  --------  --------  --------  --------  --------  --------
 0 C  s               0.0       0.1       0.1       0.6       0.7       7.2
 0 C  pz              0.0       0.2       0.2       0.2       0.2       1.0
 0 C  px              0.0       0.0       0.0       0.1       0.1       0.2
 0 C  py              0.0       0.0       0.0       0.1       0.1       0.8
 1 C  s               0.0       1.1       0.2       2.8       2.8      16.9
 1 C  pz              0.0       1.8       0.1       0.0       0.0       0.1
 1 C  px              0.0       0.3       0.0       1.1       0.6       0.1
 1 C  py              0.0       0.0       0.4       0.0       0.0       0.3
 2 H  s               0.0       0.1       0.0       0.3       0.3       2.4
 2 H  py              0.0       0.0       0.0       0.0       0.0       0.2
 3 C  s               0.0       0.1       0.0      10.4       5.8       5.3
 3 C  px              0.0       0.3       0.1       0.8       0.0       4.8
 4 C  s               0.0       0.0       0.0       8.4       2.8       0.0
 4 C  pz              0.0       0.0       0.0       0.2       0.1       0.0
 4 C  px              0.0       0.0       0.0       0.3       0.1       3.3
 4 C  py              0.0       0.0       0.0       1.6       0.7       0.2
 5 C  s               0.0       0.0       0.0       9.2       0.5       4.4
 5 C  pz              0.0       0.0       0.0       0.2       0.0       0.2
 5 C  px              0.0       0.0       0.0       0.3       1.2       0.4
 5 C  py              0.0       0.0       0.0       1.7       0.0       1.0
 6 C  s               0.4       0.0       0.0      12.6       0.2       8.7
 6 C  pz              0.1       0.0       0.0       0.0       0.0       0.0
 6 C  px              0.1       0.0       0.0       0.4       3.6       0.3
 6 C  py              1.0       0.0       0.0       0.0       0.0       0.0
 6 C  dz2             0.0       0.0       0.0       0.1       0.0       0.1
 7 C  s               6.7       0.0       0.0       6.9       0.6       2.5
 7 C  pz              1.3       0.0       0.0       0.5       0.0       0.2
 7 C  px              1.5       0.0       0.0       0.3       1.4       0.7
 7 C  py              6.9       0.0       0.0       3.4       0.0       1.8
 7 C  dz2             0.1       0.0       0.0       0.1       0.0       0.0
 7 C  dyz             0.4       0.0       0.0       0.0       0.0       0.0
 7 C  dx2y2           0.3       0.0       0.0       0.0       0.0       0.0
 7 C  dxy             0.4       0.0       0.0       0.1       0.0       0.1
 8 C  s               0.4       0.0       0.0       8.0       3.2       0.1
 8 C  pz              0.1       0.0       0.0       0.2       0.1       0.1
 8 C  px              1.1       0.1       0.1       0.3       0.0       2.5
 8 C  py              0.2       0.0       0.0       1.8       0.7       0.3
 9 F  s              76.4       0.0       0.0       1.0       0.0       0.5
 9 F  pz              0.2       0.0       0.0       0.1       0.0       0.1
 9 F  px              0.3       0.0       0.0       0.1       0.1       0.0
 9 F  py              1.3       0.0       0.0       0.5       0.0       0.4
10 C  s               0.0       0.0       0.0       6.6       9.7       0.6
10 C  px              0.1       0.0       0.0       0.4       2.2       3.1
11 C  s               0.0       0.0       0.0       2.8       9.3       0.2
11 C  pz              0.0       0.0       0.0       0.2       0.2       0.0
11 C  px              0.0       0.0       0.0       0.1       0.5       1.3
11 C  py              0.0       0.0       0.0       0.6       1.4       0.0
12 C  s               0.0       0.0       0.0       1.4       8.7       2.3
12 C  pz              0.0       0.0       0.0       0.1       0.4       0.1
12 C  px              0.0       0.0       0.0       0.3       0.5       0.0
12 C  py              0.0       0.0       0.0       0.2       1.1       0.4
13 C  s               0.0       0.0       0.0       1.1       8.4       3.3
13 C  px              0.0       0.0       0.0       0.4       2.0       0.3
14 C  s               0.0       0.0       0.0       1.3       8.5       2.3
14 C  pz              0.0       0.0       0.0       0.0       0.2       0.1
14 C  px              0.0       0.0       0.0       0.2       0.6       0.0
14 C  py              0.0       0.0       0.0       0.2       1.2       0.4
15 C  s               0.0       0.0       0.0       2.6       9.1       0.3
15 C  pz              0.0       0.0       0.0       0.1       0.4       0.0
15 C  px              0.1       0.0       0.0       0.1       0.4       1.2
15 C  py              0.0       0.0       0.0       0.7       1.3       0.0
16 C  s               0.0      17.4       3.5       0.1       0.1       1.3
16 C  pz              0.0       4.1       0.0       0.6       0.6       4.6
16 C  px              0.0       0.6       0.1       0.3       0.3       1.2
16 C  py              0.0       0.5      24.2       0.1       0.1       0.8
16 C  dz2             0.0       0.0       0.1       0.0       0.0       0.1
16 C  dyz             0.0       0.2       1.3       0.0       0.0       0.0
16 C  dx2y2           0.0       0.9       0.3       0.0       0.0       0.0
16 C  dxy             0.0       0.0       0.3       0.0       0.0       0.0
17 O  s               0.0      12.7      41.5       0.1       0.1       0.9
17 O  pz              0.0       0.1       0.6       0.0       0.0       0.1
17 O  px              0.0       0.1       0.2       0.0       0.0       0.0
17 O  py              0.0       3.2       2.9       0.0       0.0       0.1
17 O  dz2             0.0       0.3       0.0       0.0       0.0       0.0
17 O  dyz             0.0       0.0       0.2       0.0       0.0       0.2
17 O  dx2y2           0.0       1.2       0.1       0.0       0.0       0.0
18 O  s               0.0      42.6      17.9       0.0       0.0       0.3
18 O  pz              0.0       0.1       0.2       0.1       0.1       0.9
18 O  px              0.0       0.0       0.0       0.0       0.0       0.2
18 O  py              0.0       3.1       0.6       0.0       0.0       0.0
18 O  dz2             0.0       0.0       0.3       0.0       0.0       0.1
18 O  dyz             0.0       0.3       0.2       0.0       0.0       0.1
18 O  dx2y2           0.0       0.5       0.7       0.0       0.0       0.0
19 H  s               0.0       0.0       0.0       0.0       0.1       0.9
20 H  s               0.0       0.0       0.0       0.1       0.1       0.9
21 H  s               0.0       0.0       0.0       0.1       0.1       0.9
22 H  s               0.0       0.0       0.0       0.7       0.3       0.0
23 H  s               0.0       0.0       0.0       0.8       0.0       0.5
24 H  s               0.0       0.0       0.0       0.7       0.3       0.0
25 H  s               0.0       0.0       0.0       0.3       0.8       0.0
26 H  s               0.0       0.0       0.0       0.1       0.8       0.2
27 H  s               0.0       0.0       0.0       0.1       0.8       0.4
28 H  s               0.0       0.0       0.0       0.1       0.8       0.3
29 H  s               0.0       0.0       0.0       0.2       0.8       0.0
30 H  s               0.0       6.3       2.6       0.0       0.0       0.3
30 H  pz              0.0       1.2       0.6       0.0       0.0       0.0
30 H  px              0.0       0.2       0.1       0.0       0.0       0.0

                     24        25        26        27        28        29   
                  -0.74408  -0.72743  -0.72006  -0.69424  -0.65609  -0.61274
                   2.00000   2.00000   2.00000   2.00000   2.00000   2.00000
                  --------  --------  --------  --------  --------  --------
 0 C  s               5.8       0.0       0.0       6.3      19.7       1.5
[...]
17 O  dxy             0.0       0.3       0.0       0.0       0.0       0.0
18 O  s               0.0       3.5       0.0       0.0       0.0       0.0
18 O  pz              0.0      16.5       0.0       0.0       0.0       0.0
18 O  px              0.0       2.7       0.0       0.0       0.0       0.0
18 O  py              0.0       0.2       0.0       0.0       0.0       0.0
18 O  dz2             0.0      12.7       0.0       0.0       0.0       0.0
18 O  dxz             0.0       7.2       0.0       0.0       0.0       0.0
18 O  dyz             0.0       9.9       0.0       0.0       0.0       0.0
18 O  dx2y2           0.0       1.3       0.0       0.0       0.0       0.0
18 O  dxy             0.0       1.5       0.0       0.0       0.0       0.0
23 H  s               0.2       0.0       0.0       0.0       0.0       0.0
23 H  px              0.1       0.0       0.0       0.0       0.0       0.0
23 H  py              0.1       0.0       0.0       0.0       0.0       0.0
24 H  s               0.5       0.0       0.0       0.0       0.0       0.0
24 H  px              0.2       0.0       0.0       0.0       0.0       0.0
24 H  py              0.4       0.0       0.0       0.0       0.0       0.0
30 H  s               0.0      10.5       0.0       0.0       0.0       0.0
30 H  pz              0.0       9.8       0.0       0.0       0.0       0.0
30 H  px              0.0       1.7       0.0       0.0       0.0       0.0
30 H  py              0.0       0.6       0.0       0.0       0.0       0.0

                    408       409       410       411       412       413   
                  21.97935  22.00876  22.04566  22.15210  22.20268  22.21612
                   0.00000   0.00000   0.00000   0.00000   0.00000   0.00000
                  --------  --------  --------  --------  --------  --------
 0 C  s               6.4      67.6       0.5       0.0       0.0       1.5
 1 C  s               0.8      19.7       0.5       0.9       0.2       2.0
 3 C  s               1.9       0.1      19.2      18.2       0.7       4.5
 4 C  s               6.1       2.2       0.3       0.4       6.6       6.1
 5 C  s               0.5       1.2      20.6      13.1       1.3       0.3
 6 C  s               0.0       0.2      10.0      11.9       0.3      16.3
 7 C  s               5.8       5.3       0.0       1.1       4.4       0.2
 8 C  s               4.7       0.3       7.2       4.4      15.1       2.3
10 C  s               0.8       0.2       3.9       6.2       3.6      23.0
11 C  s              17.6       0.8       6.7       2.9      21.5       0.1
12 C  s              19.1       0.3       2.7       5.6       7.5      11.5
13 C  s               1.1       0.5      17.0      18.7       3.0       9.6
14 C  s              25.7       1.2       0.0       0.2      23.8       2.0
15 C  s               8.9       0.0       9.4       8.3      11.4       5.0
16 C  s               0.2       0.0       1.4       7.8       0.2      15.1

                    414       415       416       417       418       419   
                  22.23375  22.25574  22.32344  22.34621  22.38702  43.67771
                   0.00000   0.00000   0.00000   0.00000   0.00000   0.00000
                  --------  --------  --------  --------  --------  --------
 0 C  s               4.0       6.7       2.8       3.1       2.2       0.0
 1 C  s              24.9      19.8      12.3      12.8       5.5       0.0
 3 C  s               0.0       2.4       2.1       1.1      25.5       0.0
 4 C  s               5.0      10.0       6.8       0.8      13.9       0.0
 5 C  s               8.8       1.8      10.8       5.1       6.1       0.0
 6 C  s               1.6       8.2       8.7       1.7       4.4       0.0
 7 C  s               7.4      12.2       3.7       3.1       3.1       0.0
 8 C  s              11.0      13.5       2.4       0.7      12.8       0.0
10 C  s               1.0       3.3      10.0       6.8       0.8       0.0
11 C  s               7.0       4.9       5.7       9.3       1.3       0.0
12 C  s               5.2       0.4       5.8       8.7       1.5       0.0
13 C  s               0.1       0.0       6.6       7.8       1.1       0.0
14 C  s               1.8       1.9       6.5       8.7       1.6       0.0
15 C  s               8.1       2.2       8.0       7.9       1.1       0.0
16 C  s              13.6      12.2       7.5      21.9      18.8       0.1
18 O  s               0.0       0.0       0.0       0.0       0.0      99.8

                    420       421   
                  43.73284  57.19098
                   0.00000   0.00000
                  --------  --------
 9 F  s               0.0      99.9
17 O  s              99.8       0.0


                      *****************************
                      * MAYER POPULATION ANALYSIS *
                      *****************************

  NA   - Mulliken gross atomic population
  ZA   - Total nuclear charge
  QA   - Mulliken gross atomic charge
  VA   - Mayer's total valence
  BVA  - Mayer's bonded valence
  FA   - Mayer's free valence

  ATOM       NA         ZA         QA         VA         BVA        FA
  0 C      6.4936     6.0000    -0.4936     3.8288     3.8288     0.0000
  1 C      6.0361     6.0000    -0.0361     3.7354     3.7354     0.0000
  2 H      0.8465     1.0000     0.1535     0.9673     0.9673     0.0000
  3 C      5.8572     6.0000     0.1428     3.5240     3.5240    -0.0000
  4 C      6.2383     6.0000    -0.2383     3.8904     3.8904     0.0000
  5 C      6.1974     6.0000    -0.1974     3.8388     3.8388     0.0000
  6 C      5.9409     6.0000     0.0591     3.5515     3.5515     0.0000
  7 C      5.6910     6.0000     0.3090     3.8125     3.8125     0.0000
  8 C      6.3511     6.0000    -0.3511     3.9875     3.9875     0.0000
  9 F      9.2394     9.0000    -0.2394     0.9861     0.9861    -0.0000
 10 C      5.8957     6.0000     0.1043     3.5382     3.5382     0.0000
 11 C      6.2088     6.0000    -0.2088     3.8521     3.8521     0.0000
 12 C      6.1702     6.0000    -0.1702     3.8557     3.8557    -0.0000
 13 C      6.1359     6.0000    -0.1359     3.8225     3.8225     0.0000
 14 C      6.1726     6.0000    -0.1726     3.8499     3.8499     0.0000
 15 C      6.1803     6.0000    -0.1803     3.9031     3.9031     0.0000
 16 C      5.6619     6.0000     0.3381     3.9438     3.9438     0.0000
 17 O      8.4089     8.0000    -0.4089     1.9772     1.9772     0.0000
 18 O      8.3345     8.0000    -0.3345     1.9777     1.9777     0.0000
 19 H      0.8497     1.0000     0.1503     0.9620     0.9620     0.0000
 20 H      0.8188     1.0000     0.1812     0.9571     0.9571     0.0000
 21 H      0.8425     1.0000     0.1575     0.9609     0.9609     0.0000
 22 H      0.8527     1.0000     0.1473     0.9698     0.9698     0.0000
 23 H      0.8455     1.0000     0.1545     0.9672     0.9672     0.0000
 24 H      0.8066     1.0000     0.1934     0.9503     0.9503    -0.0000
 25 H      0.8475     1.0000     0.1525     0.9664     0.9664    -0.0000
 26 H      0.8544     1.0000     0.1456     0.9689     0.9689    -0.0000
 27 H      0.8531     1.0000     0.1469     0.9681     0.9681    -0.0000
 28 H      0.8541     1.0000     0.1459     0.9685     0.9685     0.0000
 29 H      0.8447     1.0000     0.1553     0.9644     0.9644     0.0000
 30 H      0.6701     1.0000     0.3299     0.8977     0.8977    -0.0000

  Mayer bond orders larger than 0.100000
B(  0-C ,  1-C ) :   0.9369 B(  0-C , 19-H ) :   0.9699 B(  0-C , 20-H ) :   0.9639 
B(  0-C , 21-H ) :   0.9730 B(  1-C ,  2-H ) :   0.9698 B(  1-C ,  3-C ) :   0.8244 
B(  1-C , 16-C ) :   0.9358 B(  3-C ,  4-C ) :   1.3728 B(  3-C ,  6-C ) :   0.1049 
B(  3-C ,  8-C ) :   1.3812 B(  4-C ,  5-C ) :   1.4366 B(  4-C , 22-H ) :   0.9378 
B(  5-C ,  6-C ) :   1.3709 B(  5-C , 23-H ) :   0.9375 B(  6-C ,  7-C ) :   1.4408 
B(  6-C , 10-C ) :   0.7797 B(  7-C ,  8-C ) :   1.4049 B(  7-C ,  9-F ) :   0.9011 
B(  8-C , 24-H ) :   0.9133 B( 10-C , 11-C ) :   1.3917 B( 10-C , 15-C ) :   1.4211 
B( 11-C , 12-C ) :   1.4379 B( 11-C , 25-H ) :   0.9408 B( 12-C , 13-C ) :   1.4176 
B( 12-C , 26-H ) :   0.9492 B( 13-C , 14-C ) :   1.4124 B( 13-C , 27-H ) :   0.9462 
B( 14-C , 15-C ) :   1.4367 B( 14-C , 28-H ) :   0.9507 B( 15-C , 29-H ) :   0.9373 
B( 16-C , 17-O ) :   1.9097 B( 16-C , 18-O ) :   1.0697 B( 18-O , 30-H ) :   0.8594 


-------
TIMINGS
-------

Total SCF time: 0 days 0 hours 0 min 56 sec 

Total time                  ....      56.972 sec
Sum of individual times     ....      56.943 sec  ( 99.9%)

SCF preparation             ....       0.898 sec  (  1.6%)
Fock matrix formation       ....      53.241 sec  ( 93.5%)
  Startup                   ....       0.017 sec  (  0.0% of F)
  Split-RI-J                ....      16.674 sec  ( 31.3% of F)
  XC integration            ....      36.368 sec  ( 68.3% of F)
    XC Preparation          ....       0.000 sec  (  0.0% of XC)
    Basis function eval.    ....       5.533 sec  ( 15.2% of XC)
    Density eval.           ....      15.641 sec  ( 43.0% of XC)
    XC-Functional eval.     ....       2.572 sec  (  7.1% of XC)
    XC-Potential eval.      ....      11.986 sec  ( 33.0% of XC)
Diagonalization             ....       0.000 sec  (  0.0%)
Density matrix formation    ....       0.090 sec  (  0.2%)
Total Energy calculation    ....       0.007 sec  (  0.0%)
Population analysis         ....       1.859 sec  (  3.3%)
Orbital Transformation      ....       0.109 sec  (  0.2%)
Orbital Orthonormalization  ....       0.000 sec  (  0.0%)
DIIS solution               ....       0.650 sec  (  1.1%)
  MO trafo                  ....       0.000 sec  (  0.0 % of DIIS)
  Orb grad                  ....       0.000 sec  (  0.0 % of DIIS)
  Energy W gradient         ....       0.000 sec  (  0.0 % of DIIS)
  DIIS error                ....       0.106 sec  ( 16.3 % of DIIS)
  DIIS work                 ....       0.486 sec  ( 74.7 % of DIIS)
  Form Q                    ....       0.000 sec  (  0.0 % of DIIS)
  Form QpQm                 ....       0.000 sec  (  0.0 % of DIIS)
  Exp/Cayley                ....       0.000 sec  (  0.0 % of DIIS)
  Orb update                ....       0.000 sec  (  0.0 % of DIIS)
  Wake-sleep                ....       0.004 sec  (  0.6 % of DIIS)
SOSCF solution              ....       0.087 sec  (  0.2%)
  MO trafo                  ....       0.067 sec  ( 76.6 % of SOSCF)
  Orb grad                  ....       0.000 sec  (  0.3 % of SOSCF)
  Rot update                ....       0.000 sec  (  0.1 % of SOSCF)
  Step                      ....       0.020 sec  ( 22.9 % of SOSCF)
Finished LeanSCF after  58.7 sec

Maximum memory used throughout the entire LEANSCF-calculation: 53.9 MB


-------------------------------------------------------------------------------
                          DFT DISPERSION CORRECTION                            
                                                                               
                                DFTD4 V3.4.0                                   
-------------------------------------------------------------------------------
The R2SCAN3C composite method is recognized
Using three-body term ABC
Active option DFTDOPT                   ...         5   

-------------------------   ----------------
Dispersion correction           -0.013416645
-------------------------   ----------------

------------------   -----------------
gCP correction             0.010620913
------------------   -----------------

-------------------------   --------------------
FINAL SINGLE POINT ENERGY      -829.578341250859
-------------------------   --------------------


------------------------------------------------------------------------------
                              ORCA PROPERTY CALCULATIONS
------------------------------------------------------------------------------

GBWName                                 ... sp_gas.gbw
Number of atoms                         ...     31
Number of basis functions               ...    422
Max core memory                         ...   1024 MB

Electric properties:
Dipole moment                           ... YES
Quadrupole moment                       ...  NO
Static polarizability (Dipole/Dipole)   ...  NO
Static polarizability (Dipole/Quad.)    ...  NO
Static polarizability (Quad./Quad.)     ...  NO
Static polarizability (Velocity)        ...  NO

Atomic electric properties:
Dipole moment                           ...  NO
Quadrupole moment                       ...  NO
Static polarizability                   ...  NO

Choice of electric origin               ... Center of mass
Position of electric origin             ...     0.000023    -0.000009    -0.000014

General magnetic properties:
Magnetizability                         ...  NO

EPR properties:
g-Tensor (aka g-matrix)                 ...  NO
Zero-Field splitting spin-orbit         ...  NO
Zero-field splitting spin-spin          ...  NO
Hyperfine couplings                     ...  NO (   0 nuclei)
Quadrupole couplings                    ...  NO (   0 nuclei)
Contact density                         ...  NO (   0 nuclei)

NMR properties:
Chemical shifts                         ...  NO (   0 nuclei)
Spin-rotation constants                 ...  NO (   0 nuclei)
Spin-spin couplings                     ...  NO (   0 nuclei,    0 pairs)

Choice of magnetic origin               ... GIAO
Position of magnetic origin             ...     0.000000     0.000000     0.000000

Properties with geometric perturbations:
SCF Hessian                             ...  NO
IR spectrum                             ...  NO
VCD spectrum                            ...  NO
X-ray spectroscopy properties:
SCF XES/XAS/RIXS spectra                ...  NO


-------------
DIPOLE MOMENT
-------------

Method             : SCF
Type of density    : Electron Density
Multiplicity       :   1
Irrep              :   0
Energy             :  -829.5755455188382257 Eh
Relativity type    : 
Basis              : AO
                                X                 Y                 Z
Electronic contribution:      0.795086072       4.249065965       5.981792703
Nuclear contribution   :     -0.889043554      -5.300411724      -6.259227477
                        -----------------------------------------
Total Dipole Moment    :     -0.093957482      -1.051345759      -0.277434774
                        -----------------------------------------
Magnitude (a.u.)       :      1.091387175
Magnitude (Debye)      :      2.774085740



--------------------
Rotational spectrum 
--------------------
 
Rotational constants in cm-1:             0.038426             0.006430             0.006150 
Rotational constants in MHz :          1151.973890           192.774075           184.366187 

Dipole components along the rotational axes: 
x,y,z [a.u.] :     0.093958    -1.051344    -0.277443 
x,y,z [Debye]:     0.238821    -2.672303    -0.705204 

 

Dipole moment calculation done in   0.1 sec 

Maximum memory used throughout the entire PROP-calculation: 37.0 MB

--------------------------------
SUGGESTED CITATIONS FOR THIS RUN
--------------------------------

Below you find a list of papers that are relevant to this ORCA run
We neither can nor want to force you to cite these papers, but we appreciate if you do
You receive ORCA, which is the product of decades of hard work by many enthusiastic individuals, for free
The only thing we kindly ask in return is that you cite our papers,
We deeply appreciate it, if you show your appreciation for ORCA by not just citing the generic ORCA reference.

Please note that relegating all ORCA citations to the supporting information does *not* help us.
SI sections are not indexed - citations you put there will not count into any citation statistics
But we need these citations in order to attract the funding resources that allow us to do what we are doing

Therefore, if you are a happy ORCA user, please consider citing a few of the papers listed below in the main body of your paper

In addition to the list printed below, the program has created the file sp_gas.bibtex that contains the list in bibtex format
You can import this file easily into all common literature databanks and citation aid programs


List of essential papers. We consider these as the minimum necessary citations

  1. Neese,F.
     Software update: the ORCA program system, version 5.0
     WIRES Comput. Molec. Sci., 2022 12(1)e1606
     doi.org/10.1002/wcms.1606
  2. Grimme,S.; Hansen,A.; Ehlert,S.; Mewes,J.
     r2SCAN-3c: A 'Swiss army knife' composite electronic-structure method
     J. Chem. Phys., 2021 154 064103
     doi.org/10.1063/5.0040021

List of papers to cite with high priority. The work reported in these papers was absolutely
necessary for this run to complete.
Our perspective: the developers of density functionals and basis sets usually get cited in chemistry papers
Good! But without the algorithms to do something with them, the functionals or basis sets would not do anything.
Hence, in our opinion, the algorithm design and method developments papers are equally worthy of getting cited

  1. Neese,F.
     An improvement of the resolution of the identity approximation for the formation of the Coulomb matrix
     J. Comp. Chem., 2003 24(14)1740-1747
     doi.org/10.1002/jcc.10318
  2. Neese,F.
     The SHARK Integral Generation and Digestion System
     J. Comp. Chem., 2022  1-16
     doi.org/10.1002/jcc.26942
  3. Lehtola,S.; Steigemann,C.; Oliveira,M.; Marques,M.
     Recent developments in Libxc - A comprehensive library of functionals for density functional theory
     Software X, 2018 7 
     doi.org/10.1016/j.softx.2017.11.002
  4. Caldeweyher,E.; Bannwarth,C.; Grimme,S.
     Extension of the D3 dispersion coefficient model
     J. Chem. Phys., 2017 147 034112
     doi.org/10.1063/1.4993215
  5. Caldeweyher,E.; Ehlert,S.; Hansen,A.; Neugebauer,H.; Spicher,S.; Bannwarth,C.; Grimme,S.
     A generally applicable atomic-charge dependent London dispersion correction
     J. Chem. Phys., 2019 150 154122
     doi.org/10.1063/1.5090222
  6. Caldeweyher,E.; Mewes,J.; Ehlert,S.; Grimme,S.
     Extension and evaluation of the D4 London-dispersion model for periodic systems
     Phys. Chem. Chem. Phys., 2020 22(16)8499-8512
     doi.org/10.1039/D0CP00502A
  7. Wittmann,L.; Gordiy,I.; Friede,M.; Helmich-Paris,B.; Grimme,S.; Hansen,A.; Bursch,M.
     Extension of the D3 and D4 London Dispersion Corrections to the full Actinides Series
     Phys. Chem. Chem. Phys., 2024 26(32)21379-21394
     doi.org/https://doi.org/10.1039/D4CP01514B 

List of suggested additional citations. These are papers that are important in the 'surrounding' of 
of this run, or papers that preceded the highly important papers. If you like your results we are grateful for a citation.

  1. Neese,F.
     The ORCA program system
     WIRES Comput. Molec. Sci., 2012 2(1)73-78
     doi.org/10.1002/wcms.81
  2. Neese,F.
     Software update: the ORCA program system, version 4.0
     WIRES Comput. Molec. Sci., 2018 8(1)1-6
     doi.org/10.1002/wcms.1327
  3. Neese,F.; Wennmohs,F.; Becker,U.; Riplinger,C.
     The ORCA quantum chemistry program package
     J. Chem. Phys., 2020 152 Art. No. L224108
     doi.org/10.1063/5.0004608

List of optional additional citations

  1. Neese,F.
     Approximate second-order SCF convergence for spin unrestricted wavefunctions
     Chem. Phys. Lett., 2000 325(1-3)93-98
     doi.org/10.1016/s0009-2614(00)00662-x

Timings for individual modules:

Sum of individual times          ...       61.222 sec (=   1.020 min)
Startup calculation              ...        2.082 sec (=   0.035 min)   3.4 %
SCF iterations                   ...       58.969 sec (=   0.983 min)  96.3 %
Property calculations            ...        0.171 sec (=   0.003 min)   0.3 %
                             ****ORCA TERMINATED NORMALLY****
TOTAL RUN TIME: 0 days 0 hours 1 minutes 1 seconds 993 msec
