20
 energy: -27.120956740099 gnorm: 0.035644160782 xtb: 6.7.1 (edcfbbe)
C           -3.39183462869971       -1.03850470324745        0.28279363850531
C           -2.01518613069651       -0.45825165980287        0.58698267600715
C           -1.33179077761269        0.05825011868674       -0.69290771110919
C            0.00396406092842        0.65858463191078       -0.37000099085329
O            0.21451502420939        1.85207826553576       -0.21154492512717
O            0.95607293060392       -0.28028374608214       -0.22312946908888
C            2.28116744599349        0.19362753093347        0.17574574589019
C            3.16178726615595       -1.01939427918519        0.33627572334119
H           -4.04691526152271       -0.28179350891523       -0.16200191565720
H           -3.31625267782349       -1.87490816772763       -0.42031216012088
H           -3.87074505954627       -1.40584882729074        1.19570283148331
H           -1.37995337193933       -1.22089047058073        1.05075479675225
H           -2.10477704290866        0.36767569393685        1.30227550146085
H           -1.94734909223030        0.83317311419430       -1.15699897963148
H           -1.20396049060321       -0.76799578473042       -1.39917274123513
H            2.65228478280085        0.86855488190383       -0.60142307989565
H            2.17984263181372        0.75169478120844        1.11125725693369
H            2.77183043806949       -1.69016828079305        1.10721492401229
H            3.25071049139731       -1.57064568997511       -0.60412989365039
H            4.16118713560421       -0.69339496100994        0.63887431070825
20
 energy: -27.122043631101 gnorm: 0.013387039167 xtb: 6.7.1 (edcfbbe)
C           -3.38585460841044       -1.03686852616824        0.27971671004617
C           -2.01258819486776       -0.45661743192521        0.58456328590539
C           -1.33216745397569        0.05718901412686       -0.69416164838958
C            0.00208737925552        0.65665125849125       -0.35641969647821
O            0.21346958380318        1.84331716049425       -0.20606603595308
O            0.95016290861175       -0.27055367715998       -0.21330119615948
C            2.27167552343942        0.18695225839691        0.17372333601507
C            3.16580796235514       -1.02107051432722        0.33724170289306
H           -4.03419854061623       -0.28089350831935       -0.16105748379728
H           -3.30566088278747       -1.86928010539284       -0.41784454894617
H           -3.85450153262701       -1.39855858990086        1.19314842216819
H           -1.37910019289535       -1.22018771627289        1.04227982850289
H           -2.10835744979063        0.36991211548356        1.29403087039750
H           -1.94921118949465        0.82914505760772       -1.15706084451901
H           -1.19205709206475       -0.77173981977323       -1.38979277569294
H            2.63508907007166        0.86396795637456       -0.60439406481870
H            2.17051297587200        0.75116744366648        1.10490431189375
H            2.76904806342890       -1.68617968442178        1.10088790730776
H            3.23957927759868       -1.56867122693729       -0.59956082871588
H            4.16086206708760       -0.69612252507308        0.63541828706579
20
 energy: -27.122226911436 gnorm: 0.004678161085 xtb: 6.7.1 (edcfbbe)
C           -3.38170131482500       -1.03739172881021        0.27969279397130
C           -2.00766435667643       -0.45657823995926        0.58325163768473
C           -1.32878843759153        0.05520436491656       -0.69601729254683
C            0.00619443396615        0.65756170334021       -0.35788827425914
O            0.21401821927967        1.84230745557388       -0.19790281216244
O            0.94754933756692       -0.26459531083451       -0.20810479702030
C            2.26265635255441        0.18614733704448        0.17469575067514
C            3.15959005714482       -1.02386685819786        0.33655225788918
H           -4.02607740739924       -0.28137639143269       -0.16020082238978
H           -3.29899752286807       -1.86771735592891       -0.41566037220480
H           -3.84617824192358       -1.39621971451077        1.19345321202971
H           -1.37481845938611       -1.21980511123306        1.03869316736721
H           -2.10515854388185        0.37059987641242        1.28947641694986
H           -1.94667331570442        0.82498750925113       -1.15801913103234
H           -1.18207250123164       -0.77455992164320       -1.38626554570288
H            2.62750531242932        0.86311393129500       -0.60365259563450
H            2.16820213593492        0.75432489454405        1.10511744418338
H            2.76030011041854       -1.68571024195242        1.09836813285166
H            3.22544702478761       -1.56811391846932       -0.60021827612064
H            4.15126479139940       -0.69675334043588        0.63088464419670
20
 energy: -27.122254947233 gnorm: 0.001716062132 xtb: 6.7.1 (edcfbbe)
C           -3.37984012657222       -1.03827422999289        0.27965988673116
C           -2.00543776062645       -0.45588960330398        0.58282468824379
C           -1.32727207872934        0.05406114051369       -0.69758338038929
C            0.00587285443442        0.65898453387465       -0.35270931266047
O            0.21174182412511        1.84562288509621       -0.19574631427631
O            0.94675106758353       -0.26148817177372       -0.20477817659181
C            2.25997858661646        0.18746928851699        0.17491392006046
C            3.15497681024498       -1.02546335389609        0.33525842099449
H           -4.02412396954407       -0.28257440542786       -0.16110087548213
H           -3.29608570174314       -1.86931556797372       -0.41484395251642
H           -3.84351702624332       -1.39610354986705        1.19427582466216
H           -1.37230777070223       -1.21811485737347        1.03939419730937
H           -2.10309683757485        0.37229519484085        1.28768573558609
H           -1.94500992767483        0.82151006363350       -1.16311102793233
H           -1.17562253149653       -0.77714059702795       -1.38489575014324
H            2.62752335954318        0.86469440839607       -0.60273734116947
H            2.17133305728332        0.75590917585719        1.10641282761854
H            2.75469442513129       -1.68594299315831        1.09794871114002
H            3.21682245564233       -1.56913803922124       -0.60224163791357
H            4.14721696429623       -0.69954238274324        0.62762909545416
20
 energy: -27.122265702726 gnorm: 0.001799215319 xtb: 6.7.1 (edcfbbe)
C           -3.37747145942624       -1.04017271253142        0.28069199887604
C           -2.00316311639774       -0.45484335979733        0.58211188166596
C           -1.32558916668269        0.05388825336486       -0.69933492600386
C            0.00592176713088        0.66336342029172       -0.35408894932773
O            0.20650606379719        1.85157086746746       -0.19342274686343
O            0.94690637002269       -0.25595693662797       -0.20355675895822
C            2.25880003731208        0.18981505071300        0.17681265438154
C            3.14944177232039       -1.02759366616872        0.33405476367228
H           -4.02326033678988       -0.28585967601472       -0.16171455038107
H           -3.29242952944760       -1.87262888464259       -0.41295402120431
H           -3.84101902106755       -1.39757179893342        1.19617753996592
H           -1.36881000807057       -1.21540906340805        1.04043365808573
H           -2.10121395877456        0.37456165317994        1.28582974611038
H           -1.94516142550692        0.81738342063970       -1.16877036858794
H           -1.16934719339185       -0.77872473470617       -1.38410090744600
H            2.63074085901761        0.86743843256258       -0.59910358406377
H            2.17558533468508        0.75719296479205        1.10996944306318
H            2.74759196785555       -1.68713429850542        1.09752940508904
H            3.20612966223752       -1.57087368174411       -0.60460465592463
H            4.14443905517052       -0.70688631096174        0.62429591657613
20
 energy: -27.122270090029 gnorm: 0.000770546350 xtb: 6.7.1 (edcfbbe)
C           -3.37623979413630       -1.04101476865487        0.28088659587648
C           -2.00312948155220       -0.45374716300109        0.58187183434779
C           -1.32525826780181        0.05411894006859       -0.69966957787813
C            0.00507051594226        0.66537229201819       -0.35378882741960
O            0.20443337920726        1.85339666975309       -0.19370810255224
O            0.94730661898877       -0.25349388633293       -0.20412001526817
C            2.25985454216427        0.19082502283775        0.17768682017102
C            3.14797809077114       -1.02832524003749        0.33345979765857
H           -4.02345116817701       -0.28841032955907       -0.16237078309271
H           -3.29035718933492       -1.87428690068536       -0.41172433317606
H           -3.83950983039583       -1.39813662965436        1.19662621688357
H           -1.36797693829328       -1.21309977852078        1.04129695488429
H           -2.10223638925111        0.37632505209962        1.28480209374806
H           -1.94572341125378        0.81593450609378       -1.17081237695124
H           -1.16772282566934       -0.77932541968543       -1.38333112692128
H            2.63270433553306        0.86910340048687       -0.59708380711028
H            2.17609440833082        0.75640993544448        1.11167573835672
H            2.74566868527876       -1.68760918199958        1.09693507713058
H            3.20269247309440       -1.57151891527487       -0.60534549622473
H            4.14439992054874       -0.71095866642691        0.62296885626260
20
 energy: -27.122272747089 gnorm: 0.000378497050 xtb: 6.7.1 (edcfbbe)
C           -3.37408616371047       -1.04248608067828        0.28114094353720
C           -2.00262595123553       -0.45205760133791        0.58162059888099
C           -1.32467019338366        0.05449222680419       -0.70034963550722
C            0.00452627155199        0.66791102434149       -0.35433547944351
O            0.20284833378455        1.85542027166472       -0.19258794711719
O            0.94732555590620       -0.25064688861343       -0.20546381407546
C            2.26023222689296        0.19167224552208        0.17892393868554
C            3.14560419626530       -1.02950542780919        0.33270294673234
H           -4.02279321507355       -0.29221657006106       -0.16348596533317
H           -3.28631400983454       -1.87673775062588       -0.40979320245209
H           -3.83665137555289       -1.39886216051927        1.19736678671235
H           -1.36634943881525       -1.20930905181334        1.04286792609149
H           -2.10372505326325        0.37923520335336        1.28275897465741
H           -1.94602634784309        0.81443074921377       -1.17329290333658
H           -1.16540100225013       -0.78004138781726       -1.38217315576467
H            2.63447535824084        0.87098960753265       -0.59404957930120
H            2.17545772533198        0.75500872557395        1.11402153292381
H            2.74253231540667       -1.68805251450053        1.09620930230661
H            3.19679981637014       -1.57210632580363       -0.60647761674125
H            4.14343862520562       -0.71557935545680        0.62065188726980
20
 energy: -27.122273874452 gnorm: 0.000326402689 xtb: 6.7.1 (edcfbbe)
C           -3.37273949243646       -1.04369659566996        0.28130850096152
C           -2.00239650086772       -0.45041105054011        0.58152971413498
C           -1.32444980410721        0.05502434108644       -0.70094382493967
C            0.00428356848977        0.66902803725503       -0.35423092013651
O            0.20248628135068        1.85639098967030       -0.19115587000006
O            0.94721136206967       -0.24966316438775       -0.20660799318113
C            2.26008752538496        0.19188239928257        0.17952793362222
C            3.14423022604262       -1.03032431966278        0.33218934389077
H           -4.02251964405393       -0.29515885072215       -0.16468605418111
H           -3.28315500563076       -1.87878598963702       -0.40839291264279
H           -3.83504843203641       -1.39957466316168        1.19787540118442
H           -1.36511180910602       -1.20586005327025        1.04435016067648
H           -2.10511578544649        0.38189026944565        1.28121953145287
H           -1.94607004817509        0.81404497195606       -1.17499412999929
H           -1.16417990535783       -0.78020875944194       -1.38161067264361
H            2.63518081549666        0.87207016162917       -0.59219618886635
H            2.17448748217256        0.75387246495821        1.11534270409653
H            2.74122653310137       -1.68850441616299        1.09604775888102
H            3.19339704030854       -1.57273277553686       -0.60720064735152
H            4.14279326679499       -0.71772405812032        0.61888370376646
20
 energy: -27.122274886738 gnorm: 0.000222155920 xtb: 6.7.1 (edcfbbe)
C           -3.37164716856552       -1.04487311747994        0.28138168963355
C           -2.00247569756582       -0.44860846270109        0.58148724645303
C           -1.32451498348105        0.05585733606889       -0.70141350536292
C            0.00426633745288        0.66948149496791       -0.35434089698025
O            0.20264770447660        1.85657763493766       -0.18908249290842
O            0.94702502180565       -0.24952391756660       -0.20803667937821
C            2.25962939494767        0.19149490792423        0.17976100560562
C            3.14356757407476       -1.03096086229685        0.33186077783935
H           -4.02248132178198       -0.29817205381099       -0.16614797173376
H           -3.27998729167450       -1.88083529920752       -0.40698415804240
H           -3.83377404571989       -1.40020920026054        1.19824690015503
H           -1.36420244722226       -1.20219274132047        1.04598588266512
H           -2.10706705270445        0.38471402044717        1.27964321510339
H           -1.94598301572226        0.81458059486252       -1.17603734308093
H           -1.16402649299982       -0.77987411545385       -1.38132746339401
H            2.63542664254448        0.87246753558679       -0.59090023810581
H            2.17312817662313        0.75254304727288        1.11606795800188
H            2.74115027608740       -1.68886399437717        1.09626671942950
H            3.19141035423101       -1.57347122807652       -0.60752940094721
H            4.14250570918785       -0.71857264054688        0.61735429377266
20
 energy: -27.122275823166 gnorm: 0.000156821961 xtb: 6.7.1 (edcfbbe)
C           -3.37070545324507       -1.04623000395720        0.28128295392950
C           -2.00305765832859       -0.44640812498857        0.58152033338451
C           -1.32466156821719        0.05681100069911       -0.70167649058364
C            0.00431959923523        0.66961797477227       -0.35398025364891
O            0.20288151993761        1.85644314086064       -0.18640511664059
O            0.94697664524155       -0.24972142738936       -0.20949402654197
C            2.25920966398676        0.19085262554077        0.17966012050609
C            3.14326080525037       -1.03159322326537        0.33148440104148
H           -4.02268112836075       -0.30181618749492       -0.16839441737565
H           -3.27650128186065       -1.88338999654437       -0.40529965489590
H           -3.83288591651030       -1.40070427325162        1.19846197493728
H           -1.36375204592761       -1.19777093606503        1.04820127713195
H           -2.10997974024338        0.38813739702292        1.27784338466880
H           -1.94552511777537        0.81563903096955       -1.17686030583461
H           -1.16441881746049       -0.77946068993984       -1.38098767505180
H            2.63570100282492        0.87246936269188       -0.59012087992356
H            2.17202099893896        0.75121578407167        1.11635809340642
H            2.74179669717656       -1.68921150613250        1.09666374642976
H            3.19016853161113       -1.57450854698468       -0.60774167599651
H            4.14243093772021       -0.71881246164575        0.61573974978257
20
 energy: -27.122276490970 gnorm: 0.000136203669 xtb: 6.7.1 (edcfbbe)
C           -3.37012463926816       -1.04740006823068        0.28099784270336
C           -2.00394812821696       -0.44448808867734        0.58174131551016
C           -1.32481359270206        0.05757304398339       -0.70153608518069
C            0.00436966894238        0.66967232637592       -0.35343277446604
O            0.20289969189968        1.85624568004668       -0.18390460411171
O            0.94709064487941       -0.24986230501986       -0.21052309279190
C            2.25916418066470        0.19030360629140        0.17930962285843
C            3.14333555378392       -1.03207496203175        0.33112312120533
H           -4.02296145163324       -0.30519674271825       -0.17110854788014
H           -3.27345857598325       -1.88586481885693       -0.40366801245970
H           -3.83279484031980       -1.40082190523878        1.19834419454458
H           -1.36388220451237       -1.19382047504176        1.05069380946748
H           -2.11320130277216        0.39121838516712        1.27630809371615
H           -1.94498020816835        0.81657346649430       -1.17737575436294
H           -1.16486240185723       -0.77918708177071       -1.38032887246282
H            2.63611595788236        0.87216228131982       -0.59005660512923
H            2.17172520605684        0.75041341137246        1.11615725637912
H            2.74257010228892       -1.68942462992551        1.09691110290301
H            3.18965350569914       -1.57543453177690       -0.60788797720171
H            4.14270050733013       -0.71902765279300        0.61449150548448
20
 energy: -27.122277055826 gnorm: 0.000118947514 xtb: 6.7.1 (edcfbbe)
C           -3.36985886790954       -1.04839075930987        0.28054238303526
C           -2.00506915281284       -0.44283782489923        0.58212526489612
C           -1.32481026180723        0.05798351332548       -0.70102359846900
C            0.00445237750095        0.66969463947287       -0.35250203821027
O            0.20280762979950        1.85609258791684       -0.18161818305258
O            0.94735936754788       -0.24986777339658       -0.21098790659965
C            2.25945601220121        0.19001001528975        0.17877402888134
C            3.14353809916596       -1.03243617138200        0.33068902241494
H           -4.02306981845326       -0.30813161192307       -0.17417755467045
H           -3.27091650496771       -1.88819255445061       -0.40216307086588
H           -3.83345585604038       -1.40051507914797        1.19792303571413
H           -1.36459799763246       -1.19045596637593        1.05325451644989
H           -2.11646928715758        0.39389173262181        1.27511306244073
H           -1.94429984711009        0.81702906424075       -1.17768525515780
H           -1.16494034213387       -0.77930030008343       -1.37922240442608
H            2.63658778746859        0.87170396281201       -0.59067482746367
H            2.17223339285082        0.75026119230336        1.11557039336237
H            2.74310191768131       -1.68950472470017        1.09689463986035
H            3.18952084318787       -1.57616991884782       -0.60813114225316
H            4.14302818261479       -0.71930508449656        0.61355517283863
20
 energy: -27.122277664238 gnorm: 0.000116855977 xtb: 6.7.1 (edcfbbe)
C           -3.36976211085366       -1.04929148201403        0.27987918461911
C           -2.00638275099707       -0.44128045325553        0.58276364572593
C           -1.32471953573271        0.05817487010400       -0.70015750348372
C            0.00449975402847        0.66979029770038       -0.35124372387034
O            0.20252048614010        1.85603694599691       -0.17906846915487
O            0.94772430090848       -0.24969029382411       -0.21118450298822
C            2.26005414725330        0.18989541505487        0.17803853052454
C            3.14383490067470       -1.03274912732075        0.33012473438203
H           -4.02307316653718       -0.31112616046627       -0.17811333790485
H           -3.26829679016620       -1.89073158789509       -0.40043725495514
H           -3.83480310894648       -1.39971539802300        1.19718290875019
H           -1.36570480123955       -1.18713631878273        1.05644863466401
H           -2.12014919440385        0.39659133476904        1.27397655888474
H           -1.94351842373991        0.81703401674754       -1.17806155630308
H           -1.16458631441856       -0.77978572916495       -1.37748185649898
H            2.63719646429180        0.87114162973405       -0.59181476356446
H            2.17339102020144        0.75054764562101        1.11463971167979
H            2.74331289320950       -1.68956156905166        1.09650565932358
H            3.18959453195487       -1.57671787066721       -0.60857013101413
H            4.14346537236643       -0.71986722629285        0.61282906990908
20
 energy: -27.122278316111 gnorm: 0.000106124499 xtb: 6.7.1 (edcfbbe)
C           -3.36977882441547       -1.05037827721807        0.27901550438883
C           -2.00816615595607       -0.43931659244071        0.58364595190374
C           -1.32441052453900        0.05812901523365       -0.69891423122640
C            0.00458993232927        0.66994738812401       -0.34944164715808
O            0.20209852919696        1.85602293217566       -0.17569045806608
O            0.94828598552960       -0.24932750050631       -0.21126020346521
C            2.26098473532343        0.18996112210813        0.17706668224935
C            3.14418197980811       -1.03309537465680        0.32927558866814
H           -4.02276592695863       -0.31467579101741       -0.18334727194396
H           -3.26519802378431       -1.89395964715895       -0.39818208284876
H           -3.83700597573853       -1.39836028577542        1.19614486538564
H           -1.36745910047129       -1.18312612801010        1.06048226183743
H           -2.12476022079754        0.39994144871817        1.27269696905067
H           -1.94248733372855        0.81643070412625       -1.17863523128097
H           -1.16356211543330       -0.78080658727983       -1.37487188003502
H            2.63798572387407        0.87053100004193       -0.59345604541464
H            2.17512632292067        0.75120784298859        1.11337125798279
H            2.74318881158530       -1.68968688791030        1.09559364891999
H            3.18982255535812       -1.57712142389767       -0.60938775214729
H            4.14392729989107       -0.72075801867518        0.61214961192505
20
 energy: -27.122278766499 gnorm: 0.000083272542 xtb: 6.7.1 (edcfbbe)
C           -3.36985756610410       -1.05116045836148        0.27813560234219
C           -2.00977947020437       -0.43757938527030        0.58457317732643
C           -1.32406579946331        0.05783294702023       -0.69772196593674
C            0.00459048159271        0.67005614175224       -0.34759746186723
O            0.20151150313389        1.85595595314329       -0.17207241042054
O            0.94884118264385       -0.24894992237674       -0.21145625275346
C            2.26188158350995        0.19009415473845        0.17618056613420
C            3.14453949354867       -1.03335741359118        0.32830931038148
H           -4.02244788483986       -0.31790444057197       -0.18868818300675
H           -3.26227345766038       -1.89697236688253       -0.39579371565678
H           -3.83928559956773       -1.39657025548400        1.19510259679849
H           -1.36915289597202       -1.17937641152247        1.06470498057789
H           -2.12909872159503        0.40318350003399        1.27130187664566
H           -1.94147191534786        0.81535604425456       -1.17955594646374
H           -1.16220881476010       -0.78222017384454       -1.37204112720101
H            2.63873454637842        0.87019455364044       -0.59481909054631
H            2.17668658794780        0.75170314479258        1.11230859683331
H            2.74292250152059       -1.68996554519999        1.09428378871372
H            3.19017830405026       -1.57711823598998       -0.61050286885709
H            4.14435361518254       -0.72164289131097        0.61160406568149
20
 energy: -27.122279030777 gnorm: 0.000050014773 xtb: 6.7.1 (edcfbbe)
C           -3.37003258404249       -1.05166906313274        0.27761161135701
C           -2.01107361938550       -0.43613765299609        0.58516467856336
C           -1.32369306451063        0.05735415054682       -0.69698153685376
C            0.00461337345849        0.67000671295448       -0.34629019422756
O            0.20094349906277        1.85574074107448       -0.16900095082030
O            0.94937676104059       -0.24872284857804       -0.21186320470650
C            2.26252909360680        0.19020883724152        0.17567433087827
C            3.14493412545548       -1.03347074286602        0.32743872602680
H           -4.02209391467329       -0.32012147691244       -0.19255907701392
H           -3.26040221167606       -1.89917617047022       -0.39383811418854
H           -3.84119252319182       -1.39495761307704        1.19448830666559
H           -1.37064907301774       -1.17649307783207        1.06775026756519
H           -2.13220346386260        0.40580202225130        1.27010967506111
H           -1.94063468709133        0.81411471799733       -1.18057760297939
H           -1.16094673528498       -0.78366431250423       -1.36986026553521
H            2.63928765152757        0.87030983115252       -0.59535682510075
H            2.17752434177885        0.75173009350604        1.11185544077413
H            2.74284058954629       -1.69041121328067        1.09287373085896
H            3.19075484724589       -1.57670438884506       -0.61166478080272
H            4.14471526800761       -0.72217960726025        0.61128132320341
20
 energy: -27.122279309211 gnorm: 0.000052418564 xtb: 6.7.1 (edcfbbe)
C           -3.37033892692457       -1.05185009651364        0.27715725521070
C           -2.01231098682716       -0.43472552823786        0.58567511147968
C           -1.32326753958630        0.05651899484805       -0.69645058784872
C            0.00458179319075        0.66971339116804       -0.34499403758880
O            0.20009557830730        1.85524513551491       -0.16549412655450
O            0.95002195800089       -0.24860435550244       -0.21258236442378
C            2.26307341333271        0.19031145967258        0.17538799779124
C            3.14548495078773       -1.03346679481977        0.32636252060998
H           -4.02187014795046       -0.32199768307075       -0.19635097701664
H           -3.25885532587191       -1.90116836760245       -0.39167877296399
H           -3.84309658684019       -1.39285999070793        1.19405272788143
H           -1.37218758012990       -1.17364028534346        1.07087027828226
H           -2.13508145886805        0.40859376341078        1.26861112255566
H           -1.93969774949534        0.81237182634907       -1.18209548945556
H           -1.15949804507828       -0.78565008997184       -1.36761301879651
H            2.63979658204753        0.87092045352886       -0.59520261996160
H            2.17789954995045        0.75122053811860        1.11191553416498
H            2.74298447237256       -1.69116661568753        1.09093177960691
H            3.19175715075493       -1.57575123198857       -0.61326682672697
H            4.14510657282121       -0.72245558419504        0.61102003247945
20
 energy: -27.122279817494 gnorm: 0.000093982479 xtb: 6.7.1 (edcfbbe)
C           -3.37123037855464       -1.05194502446663        0.27641932643286
C           -2.01498891368226       -0.43165054085231        0.58652839292813
C           -1.32231075890488        0.05436187999001       -0.69568411636060
C            0.00448977122874        0.66874586582751       -0.34243509331351
O            0.19798024352487        1.85380893713578       -0.15768815806845
O            0.95154916491179       -0.24856840596204       -0.21451979094052
C            2.26412102180334        0.19042670535443        0.17510838351240
C            3.14702494352814       -1.03326694767798        0.32388941744111
H           -4.02162181975073       -0.32552380125470       -0.20389440415702
H           -3.25626678554221       -1.90506176845411       -0.38699581020097
H           -3.84718541105502       -1.38807723290381        1.19347477965018
H           -1.37568616917258       -1.16758445968551        1.07736781277433
H           -2.14085767544229        0.41477913274708        1.26504902957778
H           -1.93754028177693        0.80821707320165       -1.18592788512542
H           -1.15641172235064       -0.79044032941082       -1.36296951747786
H            2.64083718424962        0.87285121147407       -0.59386495761488
H            2.17807098792814        0.74929336388227        1.11277155278039
H            2.74386017162452       -1.69317672284712        1.08621540110410
H            3.19458210399167       -1.57302415237246       -0.61713725349321
H            4.14618199743525       -0.72260584475572        0.61054842927638
20
 energy: -27.122280231494 gnorm: 0.000099239357 xtb: 6.7.1 (edcfbbe)
C           -3.37227152332893       -1.05160711943957        0.27592771028949
C           -2.01724497247409       -0.42916634943183        0.58705079643530
C           -1.32148337184977        0.05214419115758       -0.69529737773526
C            0.00444833292754        0.66742798518992       -0.34043328279802
O            0.19609268738458        1.85206926447000       -0.15112956457819
O            0.95294942294600       -0.24890068429428       -0.21626549471918
C            2.26484992300470        0.19043144386834        0.17519644850909