
                                 *****************
                                 * O   R   C   A *
                                 *****************

                                            #,                                       
                                            ###                                      
                                            ####                                     
                                            #####                                    
                                            ######                                   
                                           ########,                                 
                                     ,,################,,,,,                         
                               ,,#################################,,                 
                          ,,##########################################,,             
                       ,#########################################, ''#####,          
                    ,#############################################,,   '####,        
                  ,##################################################,,,,####,       
                ,###########''''           ''''###############################       
              ,#####''   ,,,,##########,,,,          '''####'''          '####       
            ,##' ,,,,###########################,,,                        '##       
           ' ,,###''''                  '''############,,,                           
         ,,##''                                '''############,,,,        ,,,,,,###''
      ,#''                                            '''#######################'''  
     '                                                          ''''####''''         
             ,#######,   #######,   ,#######,      ##                                
            ,#'     '#,  ##    ##  ,#'     '#,    #''#        ,####,   ,####,        
            ##       ##  ##   ,#'  ##            #'  '#       #'       #'  '#        
            ##       ##  #######   ##           ,######,      #####,   #    #        
            '#,     ,#'  ##    ##  '#,     ,#' ,#      #,     #,   #   #,  ,#        
             '#######'   ##     ##  '#######'  #'      '#     '####' # '####'        



                #########################################################
                #                        -***-                          #
                #          Department of theory and spectroscopy        #
                #                                                       #
                #                      Frank Neese                      #
                #                                                       #
                #     Directorship, Architecture, Infrastructure        #
                #                    SHARK, DRIVERS                     #
                #        Core code/Algorithms in most modules           #
                #                                                       #
                #        Max Planck Institute fuer Kohlenforschung      #
                #                Kaiser Wilhelm Platz 1                 #
                #                 D-45470 Muelheim/Ruhr                 #
                #                      Germany                          #
                #                                                       #
                #                  All rights reserved                  #
                #                        -***-                          #
                #########################################################


                         Program Version 6.0.0  -   RELEASE  -


 With contributions from (in alphabetic order):
   Daniel Aravena         : Magnetic Suceptibility
   Michael Atanasov       : Ab Initio Ligand Field Theory (pilot matlab implementation)
   Alexander A. Auer      : GIAO ZORA, VPT2 properties, NMR spectrum
   Ute Becker             : All parallelization in ORCA, NUMFREQ, NUMCALC
   Giovanni Bistoni       : ED, misc. LED, open-shell LED, HFLD
   Martin Brehm           : Molecular dynamics
   Dmytro Bykov           : pre 5.0 version of the SCF Hessian
   Marcos Casanova-Páez   : Triplet and SCS-CIS(D). UHF-(DLPNO)-IP/EA/STEOM-CCSD. UHF-CVS-IP/STEOM-CCSD
   Vijay G. Chilkuri      : MRCI spin determinant printing, contributions to CSF-ICE
   Pauline Colinet        : FMM embedding
   Dipayan Datta          : RHF DLPNO-CCSD density
   Achintya Kumar Dutta   : EOM-CC, STEOM-CC
   Nicolas Foglia         : Exact transition moments, OPA infrastructure, MCD improvements
   Dmitry Ganyushin       : Spin-Orbit,Spin-Spin,Magnetic field MRCI
   Miquel Garcia          : C-PCM and meta-GGA Hessian, CCSD/C-PCM, Gaussian charge scheme
   Tiago L. C. Gouveia    : GS-ROHF, GS-ROCIS
   Yang Guo               : DLPNO-NEVPT2, F12-NEVPT2, CIM, IAO-localization
   Andreas Hansen         : Spin unrestricted coupled pair/coupled cluster methods
   Ingolf Harden          : AUTO-CI MPn and infrastructure 
   Benjamin Helmich-Paris : MC-RPA, TRAH-(SCF,CASSCF), AVAS, COSX integrals, SCF dyn. polar.
   Lee Huntington         : MR-EOM, pCC
   Robert Izsak           : Overlap fitted RIJCOSX, COSX-SCS-MP3, EOM
   Riya Kayal             : Wick's Theorem for AUTO-CI, AUTO-CI UHF-CCSDT
   Emily Kempfer          : AUTO-CI, RHF CISDT and CCSDT
   Christian Kollmar      : KDIIS, OOCD, Brueckner-CCSD(T), CCSD density, CASPT2, CASPT2-K, improved NEVPT2
   Axel Koslowski         : Symmetry handling
   Simone Kossmann        : Meta GGA functionals, TD-DFT gradient, OOMP2, (MP2 Hessian; deprecated post 5.0)
   Lucas Lang             : DCDCAS
   Marvin Lechner         : AUTO-CI (C++ implementation), FIC-MRCC
   Spencer Leger          : CASSCF response
   Dagmar Lenk            : GEPOL surface, SMD, ORCA-2-JSON
   Dimitrios Liakos       : Extrapolation schemes; Compound Job, initial MDCI parallelization
   Dimitrios Manganas     : Further ROCIS development; embedding schemes. LFT, Crystal Embedding
   Dimitrios Pantazis     : SARC Basis sets
   Anastasios Papadopoulos: AUTO-CI, single reference methods and gradients
   Taras Petrenko         : pre 6.0 DFT Hessian and TD-DFT gradient, (ASA, deprecated), ECA, 1-Electron XAS/XES, NRVS
   Peter Pinski           : DLPNO-MP2, DLPNO-MP2 Gradient
   Christoph Reimann      : Effective Core Potentials
   Marius Retegan         : Local ZFS, SOC
   Christoph Riplinger    : Optimizer, TS searches, QM/MM, DLPNO-CCSD(T), (RO)-DLPNO pert. Triples
   Michael Roemelt        : Original ROCIS implementation
   Masaaki Saitow         : Open-shell DLPNO-CCSD energy and density
   Barbara Sandhoefer     : DKH picture change effects
   Kantharuban Sivalingam : CASSCF convergence/infrastructure, NEVPT2 and variants, FIC-MRCI
   Bernardo de Souza      : ESD, SOC TD-DFT
   Georgi Stoychev        : AutoAux, RI-MP2 NMR, DLPNO-MP2 response, X2C
   Van Anh Tran           : RI-MP2 g-tensors
   Willem Van den Heuvel  : Paramagnetic NMR
   Zikuan Wang            : NOTCH, Electric field optimization 
   Frank Wennmohs         : Technical directorship and infrastructure
   Hang Xu                : AUTO-CI-Response properties 


 We gratefully acknowledge several colleagues who have allowed us to
 interface, adapt or use parts of their codes:
   Stefan Grimme, W. Hujo, H. Kruse, P. Pracht,  : VdW corrections, initial TS optimization,
                  C. Bannwarth, S. Ehlert,         DFT functionals, gCP, sTDA/sTD-DF
                  L. Wittmann, M. Mueller
   Ed Valeev, F. Pavosevic, A. Kumar             : LibInt (2-el integral package), F12 methods
   Garnet Chan, S. Sharma, J. Yang, R. Olivares  : DMRG
   Ulf Ekstrom                                   : XCFun DFT Library
   Mihaly Kallay                                 : mrcc  (arbitrary order and MRCC methods)
   Frank Weinhold                                : gennbo (NPA and NBO analysis)
   Simon Mueller                                 : openCOSMO-RS
   Christopher J. Cramer and Donald G. Truhlar   : smd solvation model
   Lars Goerigk                                  : TD-DFT with DH, B97 family of functionals
   V. Asgeirsson, H. Jonsson                     : NEB implementation
   FAccTs GmbH                                   : IRC, NEB, NEB-TS, DLPNO-Multilevel, CI-OPT
                                                   MM, QMMM, 2- and 3-layer-ONIOM, Crystal-QMMM,
                                                   LR-CPCM, SF, NACMEs, symmetry and pop. for TD-DFT,
                                                   nearIR, NL-DFT gradient (VV10), updates on ESD,
                                                   ML-optimized integration grids, MBIS, APM,
                                                   GOAT, DOCKER, SOLVATOR, interface openCOSMO-RS
   S Lehtola, MJT Oliveira, MAL Marques          : LibXC Library
   Liviu Ungur et al                             : ANISO software


 Your calculation uses the libint2 library for the computation of 2-el integrals
 For citations please refer to: http://libint.valeyev.net

 Your ORCA version has been built with support for libXC version: 6.2.2
 For citations please refer to: https://libxc.gitlab.io

 This ORCA versions uses:
   CBLAS   interface :  Fast vector & matrix operations
   LAPACKE interface :  Fast linear algebra routines
   SCALAPACK package :  Parallel linear algebra routines
   Shared memory     :  Shared parallel matrices
   BLAS/LAPACK       :  OpenBLAS 0.3.27  USE64BITINT DYNAMIC_ARCH NO_AFFINITY SkylakeX SINGLE_THREADED
        Core in use  :  SkylakeX
   Copyright (c) 2011-2014, The OpenBLAS Project


Your calculation utilizes the geometrical counterpoise correction gCP
Please cite in your paper:
H.Kruse, S. Grimme J.Chem.Phys., 136, (2012), 154101 
   

Your calculation utilizes the atom-pairwise dispersion correction
based on EEQ partial charges (D4)


================================================================================

----- Orbital basis set information -----
Your calculation utilizes the basis: def2-SV(P)
   F. Weigend and R. Ahlrichs, Phys. Chem. Chem. Phys. 7, 3297 (2005).

----- AuxJ basis set information -----
Your calculation utilizes the auxiliary basis: def2/J
   F. Weigend, Phys. Chem. Chem. Phys. 8, 1057 (2006).

================================================================================
                                        WARNINGS
                       Please study these warnings very carefully!
================================================================================


================================================================================
                                       INPUT FILE
================================================================================
NAME = sp.inp
|  1> ! pbe def2-sv(p) def2/J RI DEFGRID1 loosescf d4 GCP(DFT/SV(P)) printgap
|  2> %output
|  3>     printlevel normal
|  4> end
|  5> * xyz 0 1
|  6> C -2.2910582265 -1.2469930264 0.5839651384
|  7> C -1.9737996672 -0.3137267452 -0.5794268554
|  8> C -1.5659912202 1.0922545211 -0.1360772839
|  9> C -0.2971332192 1.113888291 0.7270094255
| 10> C 0.8582445767 0.5075101072 -0.0234568448
| 11> O 1.347021141 0.9583717584 -1.0384398756
| 12> O 1.2909151945 -0.6084910351 0.5547572758
| 13> C 2.3822656099 -1.2951448208 -0.0622721302
| 14> H -2.6896435836 -2.1868256598 0.2101971369
| 15> H -1.397436804 -1.4662692827 1.1622618971
| 16> H -3.0319374708 -0.7958922316 1.2396612765
| 17> H -1.1744377374 -0.7456544202 -1.1874278274
| 18> H -2.8559248526 -0.2251248996 -1.2171393727
| 19> H -2.3787833234 1.5432315769 0.4344770962
| 20> H -1.3889693196 1.7028054103 -1.0238670912
| 21> H -0.4431150776 0.5629337434 1.6535704231
| 22> H -0.0440304331 2.1501320674 0.9540651039
| 23> H 2.629151095 -2.1148846774 0.6047651857
| 24> H 3.2281457099 -0.6176035871 -0.1840848847
| 25> H 2.081984621 -1.6661368974 -1.0430194355
| 26> *
| 27> 
| 28>                          ****END OF INPUT****
================================================================================

                       ****************************
                       * Single Point Calculation *
                       ****************************

---------------------------------
CARTESIAN COORDINATES (ANGSTROEM)
---------------------------------
  C     -2.291058   -1.246993    0.583965
  C     -1.973800   -0.313727   -0.579427
  C     -1.565991    1.092255   -0.136077
  C     -0.297133    1.113888    0.727009
  C      0.858245    0.507510   -0.023457
  O      1.347021    0.958372   -1.038440
  O      1.290915   -0.608491    0.554757
  C      2.382266   -1.295145   -0.062272
  H     -2.689644   -2.186826    0.210197
  H     -1.397437   -1.466269    1.162262
  H     -3.031937   -0.795892    1.239661
  H     -1.174438   -0.745654   -1.187428
  H     -2.855925   -0.225125   -1.217139
  H     -2.378783    1.543232    0.434477
  H     -1.388969    1.702805   -1.023867
  H     -0.443115    0.562934    1.653570
  H     -0.044030    2.150132    0.954065
  H      2.629151   -2.114885    0.604765
  H      3.228146   -0.617604   -0.184085
  H      2.081985   -1.666137   -1.043019

----------------------------
CARTESIAN COORDINATES (A.U.)
----------------------------
  NO LB      ZA    FRAG     MASS         X           Y           Z
   0 C     6.0000    0    12.011   -4.329473   -2.356475    1.103534
   1 C     6.0000    0    12.011   -3.729941   -0.592858   -1.094958
   2 C     6.0000    0    12.011   -2.959295    2.064062   -0.257149
   3 C     6.0000    0    12.011   -0.561500    2.104944    1.373849
   4 C     6.0000    0    12.011    1.621847    0.959055   -0.044327
   5 O     8.0000    0    15.999    2.545501    1.811060   -1.962367
   6 O     8.0000    0    15.999    2.439476   -1.149881    1.048339
   7 C     6.0000    0    12.011    4.501830   -2.447469   -0.117677
   8 H     1.0000    0     1.008   -5.082690   -4.132502    0.397215
   9 H     1.0000    0     1.008   -2.640773   -2.770847    2.196357
  10 H     1.0000    0     1.008   -5.729531   -1.504018    2.342620
  11 H     1.0000    0     1.008   -2.219366   -1.409083   -2.243913
  12 H     1.0000    0     1.008   -5.396916   -0.425424   -2.300060
  13 H     1.0000    0     1.008   -4.495249    2.916285    0.821043
  14 H     1.0000    0     1.008   -2.624772    3.217836   -1.934828
  15 H     1.0000    0     1.008   -0.837366    1.063791    3.124795
  16 H     1.0000    0     1.008   -0.083205    4.063161    1.802922
  17 H     1.0000    0     1.008    4.968376   -3.996553    1.142841
  18 H     1.0000    0     1.008    6.100311   -1.167102   -0.347870
  19 H     1.0000    0     1.008    3.934381   -3.148542   -1.971021

--------------------------------
INTERNAL COORDINATES (ANGSTROEM)
--------------------------------
 C      0   0   0     0.000000000000     0.00000000     0.00000000
 C      1   0   0     1.524834376682     0.00000000     0.00000000
 C      2   1   0     1.529591413803   113.38525341     0.00000000
 C      3   2   1     1.534727114064   113.35240424    61.21596162
 C      4   3   2     1.505254787704   110.39785865    58.60231563
 O      5   4   3     1.213412259351   125.20725312    64.21939017
 O      5   4   3     1.329283258897   111.78806416   244.65788635
 C      7   5   4     1.429428010947   117.64801879   179.54401499
 H      1   2   3     1.087133011477   110.06489579   173.08302911
 H      1   2   3     1.086769738468   111.00195043   292.66938331
 H      1   2   3     1.087350636742   110.36099673    53.44112371
 H      2   1   3     1.093254861959   109.55023057   122.30375565
 H      2   1   3     1.092095409972   109.09390475   239.52684061
 H      3   2   1     1.090662004717   109.45183371   300.04197874
 H      3   2   1     1.091915694338   108.75541888   181.83474014
 H      4   3   2     1.087831282312   111.15627834   297.66234301
 H      4   3   2     1.090603716092   108.80493634   176.91222199
 H      8   7   5     1.085294732345   105.73599737   175.23221034
 H      8   7   5     1.090602408808   109.99567135    55.09002489
 H      8   7   5     1.090719519422   109.95839233   295.12835296

---------------------------
INTERNAL COORDINATES (A.U.)
---------------------------
 C      0   0   0     0.000000000000     0.00000000     0.00000000
 C      1   0   0     2.881519371518     0.00000000     0.00000000
 C      2   1   0     2.890508868885   113.38525341     0.00000000
 C      3   2   1     2.900213935885   113.35240424    61.21596162
 C      4   3   2     2.844519310534   110.39785865    58.60231563
 O      5   4   3     2.293016857716   125.20725312    64.21939017
 O      5   4   3     2.511981313721   111.78806416   244.65788635
 C      7   5   4     2.701227468845   117.64801879   179.54401499
 H      1   2   3     2.054383662837   110.06489579   173.08302911
 H      1   2   3     2.053697176339   111.00195043   292.66938331
 H      1   2   3     2.054794914987   110.36099673    53.44112371
 H      2   1   3     2.065952283681   109.55023057   122.30375565
 H      2   1   3     2.063761236959   109.09390475   239.52684061
 H      3   2   1     2.061052493589   109.45183371   300.04197874
 H      3   2   1     2.063421623628   108.75541888   181.83474014
 H      4   3   2     2.055703203482   111.15627834   297.66234301
 H      4   3   2     2.060942344050   108.80493634   176.91222199
 H      8   7   5     2.050909818718   105.73599737   175.23221034
 H      8   7   5     2.060939873643   109.99567135    55.09002489
 H      8   7   5     2.061161180630   109.95839233   295.12835296

---------------------
BASIS SET INFORMATION
---------------------
There are 3 groups of distinct atoms

 Group   1 Type C   : 7s4p1d contracted to 3s2p1d pattern {511/31/1}
 Group   2 Type O   : 7s4p1d contracted to 3s2p1d pattern {511/31/1}
 Group   3 Type H   : 4s contracted to 2s pattern {31}

Atom   0C    basis set group =>   1
Atom   1C    basis set group =>   1
Atom   2C    basis set group =>   1
Atom   3C    basis set group =>   1
Atom   4C    basis set group =>   1
Atom   5O    basis set group =>   2
Atom   6O    basis set group =>   2
Atom   7C    basis set group =>   1
Atom   8H    basis set group =>   3
Atom   9H    basis set group =>   3
Atom  10H    basis set group =>   3
Atom  11H    basis set group =>   3
Atom  12H    basis set group =>   3
Atom  13H    basis set group =>   3
Atom  14H    basis set group =>   3
Atom  15H    basis set group =>   3
Atom  16H    basis set group =>   3
Atom  17H    basis set group =>   3
Atom  18H    basis set group =>   3
Atom  19H    basis set group =>   3
---------------------------------
AUXILIARY/J BASIS SET INFORMATION
---------------------------------
There are 3 groups of distinct atoms

 Group   1 Type C   : 12s5p4d2f1g contracted to 6s4p3d1f1g pattern {711111/2111/211/2/1}
 Group   2 Type O   : 12s5p4d2f1g contracted to 6s4p3d1f1g pattern {711111/2111/211/2/1}
 Group   3 Type H   : 5s2p1d contracted to 3s1p1d pattern {311/2/1}

Atom   0C    basis set group =>   1
Atom   1C    basis set group =>   1
Atom   2C    basis set group =>   1
Atom   3C    basis set group =>   1
Atom   4C    basis set group =>   1
Atom   5O    basis set group =>   2
Atom   6O    basis set group =>   2
Atom   7C    basis set group =>   1
Atom   8H    basis set group =>   3
Atom   9H    basis set group =>   3
Atom  10H    basis set group =>   3
Atom  11H    basis set group =>   3
Atom  12H    basis set group =>   3
Atom  13H    basis set group =>   3
Atom  14H    basis set group =>   3
Atom  15H    basis set group =>   3
Atom  16H    basis set group =>   3
Atom  17H    basis set group =>   3
Atom  18H    basis set group =>   3
Atom  19H    basis set group =>   3
------------------------------------------------------------------------------
                             ORCA STARTUP CALCULATIONS
                           -- RI-GTO INTEGRALS CHOSEN --
------------------------------------------------------------------------------
------------------------------------------------------------------------------
                   ___                                                        
                  /   \      - P O W E R E D   B Y -                         
                 /     \                                                     
                 |  |  |   _    _      __       _____    __    __             
                 |  |  |  | |  | |    /  \     |  _  \  |  |  /  |          
                  \  \/   | |  | |   /    \    | | | |  |  | /  /          
                 / \  \   | |__| |  /  /\  \   | |_| |  |  |/  /          
                |  |  |   |  __  | /  /__\  \  |    /   |      \           
                |  |  |   | |  | | |   __   |  |    \   |  |\   \          
                \     /   | |  | | |  |  |  |  | |\  \  |  | \   \       
                 \___/    |_|  |_| |__|  |__|  |_| \__\ |__|  \__/        
                                                                              
                      - O R C A' S   B I G   F R I E N D -                    
                                      &                                       
                       - I N T E G R A L  F E E D E R -                       
                                                                              
 v1 FN, 2020, v2 2021, v3 2022-2024                                           
------------------------------------------------------------------------------


----------------------
SHARK INTEGRAL PACKAGE
----------------------

Number of atoms                             ...     20
Number of basis functions                   ...    136
Number of shells                            ...     72
Maximum angular momentum                    ...      2
Integral batch strategy                     ... SHARK/LIBINT Hybrid
RI-J (if used) integral strategy            ... SPLIT-RIJ (Revised 2003 algorithm where possible)
Printlevel                                  ...      1
Contraction scheme used                     ... SEGMENTED contraction
Prescreening option                         ... SCHWARTZ
   Thresh                                   ... 1.000e-09
   Tcut                                     ... 1.000e-10
   Tpresel                                  ... 1.000e-10 
Coulomb Range Separation                    ... NOT USED
Exchange Range Separation                   ... NOT USED
Multipole approximations                    ... NOT USED
Finite Nucleus Model                        ... NOT USED
CABS basis                                  ... NOT available
Auxiliary Coulomb fitting basis             ... AVAILABLE
   # of basis functions in Aux-J            ...    524
   # of shells in Aux-J                     ...    180
   Maximum angular momentum in Aux-J        ...      4
Auxiliary J/K fitting basis                 ... NOT available
Auxiliary Correlation fitting basis         ... NOT available
Auxiliary 'external' fitting basis          ... NOT available

Checking pre-screening integrals            ... done (  0.0 sec) Dimension = 72
Check shell pair data                       ... done (  0.0 sec)
Shell pair information
Shell pair cut-off parameter TPreSel        ...   1.0e-10
Total number of shell pairs                 ...      2628
Shell pairs after pre-screening             ...      2485
Total number of primitive shell pairs       ...     10580
Primitive shell pairs kept                  ...      6949
          la=0 lb=0:   1093 shell pairs
          la=1 lb=0:    747 shell pairs
          la=1 lb=1:    135 shell pairs
          la=2 lb=0:    351 shell pairs
          la=2 lb=1:    126 shell pairs
          la=2 lb=2:     33 shell pairs

Calculating one electron integrals          ... done (  0.0 sec)
Calculating RI/J V-Matrix + Cholesky decomp.... done (  0.1 sec)
Calculating Nuclear repulsion               ... done (  0.0 sec) ENN=    400.434250795892 Eh

Diagonalization of the overlap matrix:
Smallest eigenvalue                        ... 1.884e-03
Time for diagonalization                   ...    0.002 sec
Threshold for overlap eigenvalues          ... 1.000e-07
Number of eigenvalues below threshold      ... 0
Time for construction of square roots      ...    0.021 sec
Total time needed                          ...    0.032 sec

-------------------
DFT GRID GENERATION
-------------------

General Integration Accuracy     IntAcc      ... 4.159
Radial Grid Type                 RadialGrid  ... OptM3 with GC (2021)
Angular Grid (max. ang.)         AngularGrid ... 3 (Lebedev-194)
Angular grid pruning method      GridPruning ... 4 (adaptive)
Weight generation scheme         WeightScheme... mBecke (2022)
Basis function cutoff            BFCut       ... 1.0000e-10
Integration weight cutoff        WCut        ... 1.0000e-14
Partially contracted basis set               ... off
Rotationally invariant grid construction     ... off
Angular grids for H and He will be reduced by one unit

Total number of grid points                  ...    42940
Total number of batches                      ...      680
Average number of points per batch           ...       63
Average number of grid points per atom       ...     2147
Initializing property integral containers    ... done (  0.0 sec)

SHARK setup successfully completed in   0.7 seconds

Maximum memory used throughout the entire STARTUP-calculation: 21.3 MB
-------------------------------------------------------------------------------
                                 ORCA GUESS
                   Start orbitals & Density for SCF / CASSCF
-------------------------------------------------------------------------------

------------
SCF SETTINGS
------------
Hamiltonian:
 Density Functional     Method          .... DFT(GTOs)
 Exchange Functional    Exchange        .... PBE
   PBE kappa parameter   XKappa         ....  0.804000
   PBE mue parameter    XMuePBE         ....  0.219520
 Correlation Functional Correlation     .... PBE
   PBE beta parameter  CBetaPBE         ....  0.066725
 LDA part of GGA corr.  LDAOpt          .... PW91-LDA
 Gradients option       PostSCFGGA      .... off
   NL short-range parameter             ....  6.400000
 RI-approximation to the Coulomb term is turned on
   Number of AuxJ basis functions       .... 524


General Settings:
 Integral files         IntName         .... sp
 Hartree-Fock type      HFTyp           .... RHF
 Total Charge           Charge          ....    0
 Multiplicity           Mult            ....    1
 Number of Electrons    NEL             ....   64
 Basis Dimension        Dim             ....  136
 Nuclear Repulsion      ENuc            ....    400.4342507959 Eh

Convergence Acceleration:
 AO-DIIS                CNVDIIS         .... on
   Start iteration      DIISMaxIt       ....    12
   Startup error        DIISStart       ....  0.200000
   # of expansion vecs  DIISMaxEq       ....     5
   Bias factor          DIISBfac        ....   1.050
   Max. coefficient     DIISMaxC        ....  10.000
 MO-DIIS                CNVKDIIS        .... off
 Trust-Rad. Augm. Hess. CNVTRAH         .... auto
   Auto Start mean grad. ratio tolernc. ....  1.125000
   Auto Start start iteration           ....    50
   Auto Start num. interpolation iter.  ....    10
   Max. Number of Micro iterations      ....    24
   Max. Number of Macro iterations      .... Maxiter - #DIIS iter
   Number of Davidson start vectors     ....     2
   Converg. threshold    (grad. norm)   ....   1.000e-04
   Grad. Scal. Fac. for Micro threshold ....   0.100
   Minimum threshold for Micro iter.    ....   1.000e-02
   NR start threshold (gradient norm)   ....   1.000e-04
   Initial trust radius                 ....   0.400
   Minimum AH scaling param. (alpha)    ....   1.000
   Maximum AH scaling param. (alpha)    .... 1000.000
   Quad. conv. algorithm                .... NR
   White noise on init. David. guess    .... on
   Maximum white noise                  ....   0.010
   Pseudo random numbers                .... off
   Inactive MOs                         .... canonical
   Orbital update algorithm             .... Taylor
   Preconditioner                       .... Diag
   Full preconditioner red. dimension   ....   250
 SOSCF                  CNVSOSCF        .... on
   Start iteration      SOSCFMaxIt      ....   150
   Startup grad/error   SOSCFStart      ....  0.003300
   Hessian update       SOSCFHessUp     .... L-BFGS
 Level Shifting         CNVShift        .... on
   Level shift para.    LevelShift      ....    0.2500
   Turn off err/grad.   ShiftErr        ....    0.0010
 Zerner damping         CNVZerner       .... off
 Static damping         CNVDamp         .... on
   Fraction old density DampFac         ....    0.7000
   Max. Damping (<1)    DampMax         ....    0.9800
   Min. Damping (>=0)   DampMin         ....    0.0000
   Turn off err/grad.   DampErr         ....    0.1000

SCF Procedure:
 Maximum # iterations   MaxIter         ....   125
 SCF integral mode      SCFMode         .... Direct
   Integral package                     .... SHARK and LIBINT hybrid scheme
 Reset frequency        DirectResetFreq ....    20
 Integral Threshold     Thresh          ....  1.000e-09 Eh
 Primitive CutOff       TCut            ....  1.000e-10 Eh

Convergence Tolerance:
 Convergence Check Mode ConvCheckMode   .... Total+1el-Energy
 Convergence forced     ConvForced      .... 0
 Energy Change          TolE            ....  1.000e-05 Eh
 1-El. energy change                    ....  1.000e-02 Eh
 Orbital Gradient       TolG            ....  1.000e-04
 Orbital Rotation angle TolX            ....  1.000e-04
 DIIS Error             TolErr          ....  5.000e-04

------------------------------
INITIAL GUESS: MODEL POTENTIAL
------------------------------
Loading Hartree-Fock densities                     ... done
Calculating cut-offs                               ... done
Initializing the effective Hamiltonian             ... done
Setting up the integral package (SHARK)            ... done
Starting the Coulomb interaction                   ... done (   0.1 sec)
Making the grid                                    ... done (   0.2 sec)
Mapping shells                                     ... done
Starting the XC term evaluation                    ... done (   0.2 sec)
  promolecular density results
     # of electrons  =     63.996587868
     EX              =    -50.544345090
     EC              =     -2.109792756
     EX+EC           =    -52.654137846
Transforming the Hamiltonian                       ... done (   0.0 sec)
Diagonalizing the Hamiltonian                      ... done (   0.0 sec)
Back transforming the eigenvectors                 ... done (   0.0 sec)
Now organizing SCF variables                       ... done
                      ------------------
                      INITIAL GUESS DONE (   0.5 sec)
                      ------------------
             **** ENERGY FILE WAS UPDATED (sp.en.tmp) ****
Finished Guess after   0.7 sec
Maximum memory used throughout the entire GUESS-calculation: 16.3 MB

-------------------------------------------------------------------------------------------
                                      ORCA LEAN-SCF
                              memory conserving SCF solver
-------------------------------------------------------------------------------------------

----------------------------------------D-I-I-S--------------------------------------------
Iteration    Energy (Eh)           Delta-E    RMSDP     MaxDP     DIISErr   Damp  Time(sec)
-------------------------------------------------------------------------------------------
               ***  Starting incremental Fock matrix formation  ***
    1    -385.2891217725946831     0.00e+00  4.77e-03  9.21e-02  2.45e-01  0.700   0.8
    2    -385.4096465614408658    -1.21e-01  3.04e-03  4.72e-02  7.49e-02  0.700   0.8
                               ***Turning on AO-DIIS***
    3    -385.4465467359067929    -3.69e-02  1.25e-03  1.39e-02  2.25e-02  0.700   0.8
    4    -385.4706615349784329    -2.41e-02  1.78e-03  2.13e-02  1.30e-02  0.000   0.8
    5    -385.5268729215374037    -5.62e-02  5.53e-04  7.44e-03  7.91e-03  0.000   0.9
                              *** Initializing SOSCF ***
---------------------------------------S-O-S-C-F--------------------------------------
Iteration    Energy (Eh)           Delta-E    RMSDP     MaxDP     MaxGrad    Time(sec)
--------------------------------------------------------------------------------------
    6    -385.5275631586508212    -6.90e-04  2.11e-04  2.37e-03  3.15e-03     0.8
               *** Restarting incremental Fock matrix formation ***
    7    -385.5276190273195311    -5.59e-05  1.53e-04  2.35e-03  6.31e-04     0.8
    8    -385.5276020515386222     1.70e-05  7.91e-05  1.74e-03  1.83e-03     0.8
    9    -385.5276250077793634    -2.30e-05  6.30e-05  9.72e-04  3.05e-04     0.7
   10    -385.5276217136920991     3.29e-06  3.65e-05  6.22e-04  3.76e-04     0.8
                 **** Energy Check signals convergence ****

               *****************************************************
               *                     SUCCESS                       *
               *           SCF CONVERGED AFTER  10 CYCLES          *
               *****************************************************

             **** ENERGY FILE WAS UPDATED (sp.en.tmp) ****

----------------
TOTAL SCF ENERGY
----------------

Total Energy       :       -385.52762171369210 Eh          -10490.73993 eV

Components:
Nuclear Repulsion  :        400.43425079589241 Eh           10896.36992 eV
Electronic Energy  :       -785.96187250958451 Eh          -21387.10985 eV
One Electron Energy:      -1317.30016434695767 Eh          -35845.55982 eV
Two Electron Energy:        531.33829183737316 Eh           14458.44997 eV

Virial components:
Potential Energy   :       -767.91285914015566 Eh          -20895.97123 eV
Kinetic Energy     :        382.38523742646356 Eh           10405.23130 eV
Virial Ratio       :          2.00821784938241

DFT components:
N(Alpha)           :       32.000022555399 electrons
N(Beta)            :       32.000022555399 electrons
N(Total)           :       64.000045110797 electrons
E(X)               :      -51.599699581080 Eh       
E(C)               :       -2.123962745652 Eh       
E(XC)              :      -53.723662326732 Eh       

---------------
SCF CONVERGENCE
---------------

  Last Energy change         ...   -3.2941e-06  Tolerance :   1.0000e-05
  Last MAX-Density change    ...    6.2239e-04  Tolerance :   1.0000e-03
  Last RMS-Density change    ...    3.6495e-05  Tolerance :   1.0000e-04
  Last DIIS Error            ...    3.1529e-03  Tolerance :   5.0000e-04
  Last Orbital Gradient      ...    3.7582e-04  Tolerance :   1.0000e-04
  Last Orbital Rotation      ...    3.7867e-04  Tolerance :   1.0000e-04


----------------
ORBITAL ENERGIES
----------------

  NO   OCC          E(Eh)            E(eV) 
   0   2.0000     -18.801596      -511.6174 
   1   2.0000     -18.731733      -509.7164 
   2   2.0000     -10.004509      -272.2365 
   3   2.0000      -9.942475      -270.5485 
   4   2.0000      -9.895850      -269.2798 
   5   2.0000      -9.891211      -269.1535 
   6   2.0000      -9.886023      -269.0124 
   7   2.0000      -9.874926      -268.7104 
   8   2.0000      -1.006330       -27.3836 
   9   2.0000      -0.908621       -24.7248 
  10   2.0000      -0.732646       -19.9363 
  11   2.0000      -0.682463       -18.5708 
  12   2.0000      -0.645990       -17.5783 
  13   2.0000      -0.585107       -15.9216 
  14   2.0000      -0.524352       -14.2683 
  15   2.0000      -0.497004       -13.5242 
  16   2.0000      -0.448730       -12.2106 
  17   2.0000      -0.437315       -11.9000 
  18   2.0000      -0.425392       -11.5755 
  19   2.0000      -0.410450       -11.1689 
  20   2.0000      -0.396963       -10.8019 
  21   2.0000      -0.372057       -10.1242 
  22   2.0000      -0.360977        -9.8227 
  23   2.0000      -0.347052        -9.4438 
  24   2.0000      -0.341518        -9.2932 
  25   2.0000      -0.326057        -8.8725 
  26   2.0000      -0.303134        -8.2487 
  27   2.0000      -0.291758        -7.9391 
  28   2.0000      -0.286491        -7.7958 
  29   2.0000      -0.285197        -7.7606 
  30   2.0000      -0.258702        -7.0396 
  31   2.0000      -0.217388        -5.9154 
  32   0.0000      -0.021287        -0.5793 
  33   0.0000       0.034983         0.9519 
  34   0.0000       0.055000         1.4966 
  35   0.0000       0.070259         1.9119 
  36   0.0000       0.078332         2.1315 
  37   0.0000       0.080522         2.1911 
  38   0.0000       0.100192         2.7263 
  39   0.0000       0.102003         2.7756 
  40   0.0000       0.108901         2.9634 
  41   0.0000       0.120495         3.2788 
  42   0.0000       0.124640         3.3916 
*Only the first 10 virtual orbitals were printed.

                    ********************************
                    * MULLIKEN POPULATION ANALYSIS *
                    ********************************

-----------------------
MULLIKEN ATOMIC CHARGES
-----------------------
   0 C :   -0.294676
   1 C :   -0.190884
   2 C :   -0.183485
   3 C :   -0.123232
   4 C :    0.083955
   5 O :   -0.211143
   6 O :   -0.239377
   7 C :   -0.111796
   8 H :    0.103131
   9 H :    0.111079
  10 H :    0.097315
  11 H :    0.103701
  12 H :    0.089948
  13 H :    0.089969
  14 H :    0.102813
  15 H :    0.100930
  16 H :    0.110409
  17 H :    0.121436
  18 H :    0.120823
  19 H :    0.119081
Sum of atomic charges:    0.0000000

--------------------------------
MULLIKEN REDUCED ORBITAL CHARGES
--------------------------------
  0 C s       :     3.100943  s :     3.100943
      pz      :     1.044121  p :     3.164505
      px      :     1.069575
      py      :     1.050809
      dz2     :     0.003431  d :     0.029227
      dxz     :     0.009768
      dyz     :     0.005958
      dx2y2   :     0.005177
      dxy     :     0.004893

  1 C s       :     3.057674  s :     3.057674
      pz      :     1.052888  p :     3.096333
      px      :     1.041000
      py      :     1.002446
      dz2     :     0.003960  d :     0.036877
      dxz     :     0.011114
      dyz     :     0.007897
      dx2y2   :     0.007750
      dxy     :     0.006157

  2 C s       :     3.072323  s :     3.072323
      pz      :     1.016859  p :     3.074568
      px      :     1.000462
      py      :     1.057247
      dz2     :     0.004528  d :     0.036594
      dxz     :     0.008233
      dyz     :     0.009711
      dx2y2   :     0.006686
      dxy     :     0.007436

  3 C s       :     3.004070  s :     3.004070
      pz      :     1.050719  p :     3.086011
      px      :     1.001907
      py      :     1.033385
      dz2     :     0.006710  d :     0.033150
      dxz     :     0.006514
      dyz     :     0.006643
      dx2y2   :     0.007666
      dxy     :     0.005616

  4 C s       :     3.064137  s :     3.064137
      pz      :     0.909441  p :     2.721621
      px      :     0.945694
      py      :     0.866485
      dz2     :     0.027004  d :     0.130287
      dxz     :     0.026486
      dyz     :     0.033030
      dx2y2   :     0.025272
      dxy     :     0.018495

  5 O s       :     3.744222  s :     3.744222
      pz      :     1.334804  p :     4.449369
      px      :     1.523673
      py      :     1.590891
      dz2     :     0.005892  d :     0.017552
      dxz     :     0.004412
      dyz     :     0.004224
      dx2y2   :     0.001229
      dxy     :     0.001796

  6 O s       :     3.732879  s :     3.732879
      pz      :     1.640369  p :     4.490099
      px      :     1.472970
      py      :     1.376761
      dz2     :     0.002343  d :     0.016399
      dxz     :     0.003390
      dyz     :     0.004220
      dx2y2   :     0.003676
      dxy     :     0.002770

  7 C s       :     3.126501  s :     3.126501
      pz      :     1.025279  p :     2.934029
      px      :     0.895749
      py      :     1.013001
      dz2     :     0.008939  d :     0.051266
      dxz     :     0.009053
      dyz     :     0.010761
      dx2y2   :     0.008817
      dxy     :     0.013695

  8 H s       :     0.896869  s :     0.896869

  9 H s       :     0.888921  s :     0.888921

 10 H s       :     0.902685  s :     0.902685

 11 H s       :     0.896299  s :     0.896299

 12 H s       :     0.910052  s :     0.910052

 13 H s       :     0.910031  s :     0.910031

 14 H s       :     0.897187  s :     0.897187

 15 H s       :     0.899070  s :     0.899070

 16 H s       :     0.889591  s :     0.889591

 17 H s       :     0.878564  s :     0.878564

 18 H s       :     0.879177  s :     0.879177

 19 H s       :     0.880919  s :     0.880919


------------------------
MULLIKEN OVERLAP CHARGES
------------------------
B(  0-C ,  1-C ) :   0.8866 B(  0-C ,  2-C ) :  -0.1317 B(  0-C ,  8-H ) :   0.7259 
B(  0-C ,  9-H ) :   0.7415 B(  0-C , 10-H ) :   0.7524 B(  0-C , 11-H ) :  -0.0521 
B(  1-C ,  2-C ) :   0.8492 B(  1-C ,  3-C ) :  -0.1197 B(  1-C , 10-H ) :  -0.0553 
B(  1-C , 11-H ) :   0.7111 B(  1-C , 12-H ) :   0.6972 B(  1-C , 13-H ) :  -0.0508 
B(  2-C ,  3-C ) :   0.7450 B(  2-C , 13-H ) :   0.7257 B(  2-C , 14-H ) :   0.6833 
B(  3-C ,  4-C ) :   0.5845 B(  3-C ,  5-O ) :  -0.1868 B(  3-C ,  6-O ) :  -0.2327 
B(  3-C , 11-H ) :  -0.0537 B(  3-C , 13-H ) :  -0.0586 B(  3-C , 15-H ) :   0.6083 
B(  3-C , 16-H ) :   0.6268 B(  4-C ,  5-O ) :   1.3547 B(  4-C ,  6-O ) :   0.7081 
B(  4-C ,  7-C ) :  -0.0649 B(  5-O ,  6-O ) :  -0.1755 B(  6-O ,  7-C ) :   0.5418 
B(  6-O , 17-H ) :  -0.0522 B(  6-O , 18-H ) :  -0.0585 B(  6-O , 19-H ) :  -0.0613 
B(  7-C , 17-H ) :   0.7594 B(  7-C , 18-H ) :   0.7634 B(  7-C , 19-H ) :   0.7694 
B(  9-H , 10-H ) :  -0.0534 B( 11-H , 12-H ) :  -0.0579 B( 13-H , 14-H ) :  -0.0562 
B( 17-H , 19-H ) :  -0.0506 B( 18-H , 19-H ) :  -0.0625 


                     *******************************
                     * LOEWDIN POPULATION ANALYSIS *
                     *******************************

----------------------
LOEWDIN ATOMIC CHARGES
----------------------
   0 C :   -0.346140
   1 C :   -0.237730
   2 C :   -0.217687
   3 C :   -0.247543
   4 C :    0.035359
   5 O :   -0.171372
   6 O :   -0.072002
   7 C :   -0.204507
   8 H :    0.120475
   9 H :    0.117370
  10 H :    0.116473
  11 H :    0.117345
  12 H :    0.118443
  13 H :    0.117681
  14 H :    0.124235
  15 H :    0.127871
  16 H :    0.141723
  17 H :    0.120497
  18 H :    0.120546
  19 H :    0.118961

-------------------------------
LOEWDIN REDUCED ORBITAL CHARGES
-------------------------------
  0 C s       :     2.944397  s :     2.944397
      pz      :     1.103228  p :     3.330952
      px      :     1.124034
      py      :     1.103689
      dz2     :     0.007773  d :     0.070791
      dxz     :     0.022603
      dyz     :     0.016380
      dx2y2   :     0.012458
      dxy     :     0.011577

  1 C s       :     2.906022  s :     2.906022
      pz      :     1.084884  p :     3.242707
      px      :     1.097533
      py      :     1.060290
      dz2     :     0.009046  d :     0.089001
      dxz     :     0.026199
      dyz     :     0.020964
      dx2y2   :     0.018984
      dxy     :     0.013807

  2 C s       :     2.909279  s :     2.909279
      pz      :     1.088717  p :     3.219798
      px      :     1.050228
      py      :     1.080853
      dz2     :     0.010328  d :     0.088609
      dxz     :     0.021130
      dyz     :     0.022649
      dx2y2   :     0.018331
      dxy     :     0.016171

  3 C s       :     2.914101  s :     2.914101
      pz      :     1.090073  p :     3.249519
      px      :     1.057750
      py      :     1.101696
      dz2     :     0.015142  d :     0.083923
      dxz     :     0.019902
      dyz     :     0.016270
      dx2y2   :     0.019430
      dxy     :     0.013180

  4 C s       :     2.850414  s :     2.850414
      pz      :     0.973764  p :     2.817668
      px      :     0.941147
      py      :     0.902757
      dz2     :     0.058579  d :     0.296559
      dxz     :     0.061533
      dyz     :     0.080686
      dx2y2   :     0.056968
      dxy     :     0.038793

  5 O s       :     3.551688  s :     3.551688
      pz      :     1.438452  p :     4.588764
      px      :     1.544691
      py      :     1.605621
      dz2     :     0.009730  d :     0.030920
      dxz     :     0.008495
      dyz     :     0.008044
      dx2y2   :     0.001911
      dxy     :     0.002741

  6 O s       :     3.451705  s :     3.451705
      pz      :     1.659949  p :     4.587046
      px      :     1.494607
      py      :     1.432490
      dz2     :     0.003870  d :     0.033251
      dxz     :     0.005845
      dyz     :     0.008621
      dx2y2   :     0.007786
      dxy     :     0.007129

  7 C s       :     2.966021  s :     2.966021
      pz      :     1.094636  p :     3.125441
      px      :     0.962845
      py      :     1.067960
      dz2     :     0.020294  d :     0.113044
      dxz     :     0.019299
      dyz     :     0.025106
      dx2y2   :     0.018187
      dxy     :     0.030158

  8 H s       :     0.879525  s :     0.879525

  9 H s       :     0.882630  s :     0.882630

 10 H s       :     0.883527  s :     0.883527

 11 H s       :     0.882655  s :     0.882655

 12 H s       :     0.881557  s :     0.881557

 13 H s       :     0.882319  s :     0.882319

 14 H s       :     0.875765  s :     0.875765

 15 H s       :     0.872129  s :     0.872129

 16 H s       :     0.858277  s :     0.858277

 17 H s       :     0.879503  s :     0.879503

 18 H s       :     0.879454  s :     0.879454

 19 H s       :     0.881039  s :     0.881039


---------------------------------
LOEWDIN BOND ORDERS (THRESH 0.050000)
---------------------------------
B(  0-C ,  1-C ) :   1.1311 B(  0-C ,  2-C ) :   0.0508 B(  0-C ,  8-H ) :   0.9389 
B(  0-C ,  9-H ) :   0.9365 B(  0-C , 10-H ) :   0.9401 B(  1-C ,  2-C ) :   1.0998 
B(  1-C , 11-H ) :   0.9027 B(  1-C , 12-H ) :   0.9056 B(  2-C ,  3-C ) :   1.0734 
B(  2-C ,  4-C ) :   0.0636 B(  2-C , 13-H ) :   0.9021 B(  2-C , 14-H ) :   0.9010 
B(  3-C ,  4-C ) :   1.0568 B(  3-C ,  5-O ) :   0.0948 B(  3-C ,  6-O ) :   0.0717 
B(  3-C , 15-H ) :   0.8944 B(  3-C , 16-H ) :   0.8849 B(  4-C ,  5-O ) :   2.2059 
B(  4-C ,  6-O ) :   1.3972 B(  4-C ,  7-C ) :   0.0785 B(  5-O ,  6-O ) :   0.2092 
B(  6-O ,  7-C ) :   1.1082 B(  7-C , 17-H ) :   0.9527 B(  7-C , 18-H ) :   0.9447 
B(  7-C , 19-H ) :   0.9467 

------------------------------------------
LOEWDIN REDUCED ORBITAL POPULATIONS PER MO
-------------------------------------------
THRESHOLD FOR PRINTING IS 0.1%%
                      0         1         2         3         4         5   
                 -18.80160 -18.73173 -10.00451  -9.94248  -9.89585  -9.89121
                   2.00000   2.00000   2.00000   2.00000   2.00000   2.00000
                  --------  --------  --------  --------  --------  --------
 2 C  s               0.0       0.0       0.0       0.0       0.0      99.6
 3 C  s               0.0       0.0       0.0       0.0      99.6       0.0
 4 C  s               0.0       0.0      99.3       0.0       0.0       0.0
 5 O  s               0.0      99.9       0.0       0.0       0.0       0.0
 5 O  pz              0.0       0.0       0.2       0.0       0.0       0.0
 6 O  s              99.9       0.0       0.0       0.0       0.0       0.0
 6 O  py              0.0       0.0       0.1       0.0       0.0       0.0
 7 C  s               0.0       0.0       0.0      99.7       0.0       0.0

                      6         7         8         9        10        11   
                  -9.88602  -9.87493  -1.00633  -0.90862  -0.73265  -0.68246
                   2.00000   2.00000   2.00000   2.00000   2.00000   2.00000
                  --------  --------  --------  --------  --------  --------
 0 C  s               0.0      99.7       0.0       0.0       5.6       9.9
 0 C  pz              0.1       0.0       0.0       0.0       0.7       0.7
 0 C  px              0.0       0.0       0.0       0.0       0.1       0.0
 0 C  py              0.0       0.0       0.0       0.0       0.8       0.4
 1 C  s              99.6       0.0       0.0       0.0      14.0      11.3
 1 C  pz              0.0       0.1       0.0       0.0       0.9       0.5
 1 C  px              0.0       0.0       0.0       0.0       0.2       0.2
 1 C  py              0.0       0.0       0.0       0.0       0.8       0.2
 2 C  s               0.0       0.0       0.1       0.0      19.5       1.0
 2 C  pz              0.0       0.0       0.0       0.0       0.2       0.6
 2 C  px              0.0       0.0       0.1       0.1       0.6       1.7
 2 C  py              0.1       0.0       0.0       0.0       1.1       1.4
 3 C  s               0.0       0.0       1.0       0.3      16.6       5.4
 3 C  pz              0.0       0.0       0.3       0.4       0.8       0.0
 3 C  px              0.0       0.0       1.0       0.2       0.8       2.0
 3 C  py              0.0       0.0       0.5       0.0       0.2       0.2
 4 C  s               0.0       0.0      18.2       5.5       1.9       4.6
 4 C  pz              0.0       0.0       0.0      14.5       2.5       4.7
 4 C  px              0.0       0.0       2.3       0.6       4.5       1.7
 4 C  py              0.0       0.0       3.1       8.9       0.3       0.5
 4 C  dz2             0.0       0.0       0.0       0.7       0.0       0.0
 4 C  dxz             0.0       0.0       0.0       0.8       0.0       0.0
 4 C  dyz             0.0       0.0       0.7       0.1       0.0       0.0
 4 C  dx2y2           0.0       0.0       0.2       0.1       0.0       0.0
 4 C  dxy             0.0       0.0       0.1       0.4       0.0       0.1
 5 O  s               0.0       0.0      10.6      42.3       1.1       1.1
 5 O  pz              0.0       0.0       1.8       3.2       0.1       0.2
 5 O  px              0.0       0.0       0.2       0.9       0.1       0.1
 5 O  py              0.0       0.0       0.6       0.5       0.0       0.0
 6 O  s               0.0       0.0      42.3      14.9       0.1       0.1
 6 O  pz              0.0       0.0       2.0       0.1       0.1       0.2
 6 O  px              0.0       0.0       0.1       0.2       1.4       7.2
 6 O  py              0.0       0.0       1.1       0.3       1.1       8.3
 7 C  s               0.0       0.0       4.9       2.2       1.5      13.4
 7 C  pz              0.0       0.0       0.7       0.5       0.0       0.1
 7 C  px              0.0       0.0       3.3       1.0       0.1       0.1
 7 C  py              0.0       0.0       1.8       0.2       0.0       0.0
 7 C  dxz             0.0       0.0       0.1       0.1       0.0       0.0
 7 C  dxy             0.0       0.0       0.2       0.1       0.0       0.0
 8 H  s               0.0       0.1       0.0       0.0       0.9       2.0
 9 H  s               0.0       0.1       0.0       0.0       1.2       1.8
10 H  s               0.0       0.1       0.0       0.0       1.1       2.0
11 H  s               0.1       0.0       0.0       0.0       2.7       2.0
12 H  s               0.1       0.0       0.0       0.0       2.3       2.4
13 H  s               0.0       0.0       0.0       0.0       3.5       0.3
14 H  s               0.0       0.0       0.0       0.0       3.3       0.2
15 H  s               0.0       0.0       0.2       0.0       3.3       1.3
16 H  s               0.0       0.0       0.1       0.1       2.8       1.1
17 H  s               0.0       0.0       0.5       0.3       0.3       3.3
18 H  s               0.0       0.0       0.7       0.1       0.3       2.7
19 H  s               0.0       0.0       0.6       0.2       0.3       2.8

                     12        13        14        15        16        17   
                  -0.64599  -0.58511  -0.52435  -0.49700  -0.44873  -0.43732
                   2.00000   2.00000   2.00000   2.00000   2.00000   2.00000
                  --------  --------  --------  --------  --------  --------
 0 C  s              12.0      13.6       3.9       1.1       0.2       0.3
 0 C  pz              0.2       0.9       3.9       2.5       0.9       0.1
 0 C  px              0.0       0.0       0.2       0.2       0.6       2.2
 0 C  py              0.0       1.0       0.7       0.2       0.8       0.9
 1 C  s               3.6       3.0       8.2       3.7       0.8       0.1
 1 C  pz              0.3       2.1       4.5       2.5       0.1       0.6
 1 C  px              0.5       0.2       0.1       0.0       4.4       1.7
 1 C  py              3.6       7.3       0.3       1.5       0.1       0.5
 1 C  dyz             0.1       0.2       0.0       0.0       0.0       0.0
 2 C  s               5.1      10.2       3.7       3.9       0.2       0.4
 2 C  pz              0.6       2.3       1.9       0.1       2.8       6.8
 2 C  px              1.6       2.6       0.0       1.1       3.0       0.4
 2 C  py              1.5       0.0       5.0       2.0       0.1       2.6
 3 C  s               9.2       6.9       0.0       1.8       1.2       1.2
 3 C  pz              0.1       1.2       0.0       0.5      13.0       7.2
 3 C  px              0.9       3.6       5.5       1.5       0.2       7.7
 3 C  py              0.6       0.0       1.8       0.3       4.0       1.4
 3 C  dxz             0.0       0.1       0.1       0.0       0.0       0.0
 4 C  s               0.4       0.9       2.8       0.8       0.8       1.8
 4 C  pz              0.1       1.3       1.4       0.3       1.8       3.1
 4 C  px              1.6       2.0       0.8       1.6      13.0       0.1
 4 C  py              3.1       1.9       0.1       5.1       0.6       7.1
 4 C  dyz             0.2       0.1       0.0       0.0       0.0       0.0
 5 O  s               0.0       0.2       0.9       0.5       0.3       1.3
 5 O  pz              0.0       0.1       0.4       0.1       0.2       4.1
 5 O  px              0.1       0.1       0.1       0.4       6.0       0.6
 5 O  py              0.1       0.1       0.1       1.7       0.0       2.0
 6 O  s               0.7       0.8       2.6       2.8       0.2       0.2
 6 O  pz              0.1       0.1       0.4       3.8       0.2       8.3
 6 O  px              4.3       0.0       1.9       3.1       7.0       2.3
 6 O  py              5.7       0.1       4.5      14.5       7.1       1.6
 7 C  s              14.8       3.9       4.6       2.5       0.0       0.0
 7 C  pz              0.0       0.1       2.8       8.5       0.0       8.2
 7 C  px              0.2       0.6       4.8       6.5       3.0       4.4
 7 C  py              0.3       0.4       1.0       0.1       7.7       0.0
 7 C  dxz             0.0       0.0       0.2       0.3       0.0       0.0
 7 C  dxy             0.0       0.0       0.2       0.2       0.0       0.0
 8 H  s               3.0       4.5       1.5       0.4       0.1       1.0
 9 H  s               2.6       4.7       2.1       0.6       1.2       0.1
10 H  s               2.6       3.9       2.7       1.3       0.0       0.6
11 H  s               0.8       0.8       5.4       3.0       0.2       0.6
12 H  s               0.9       1.2       4.0       2.0       2.3       0.4
13 H  s               1.1       3.1       3.4       3.4       1.0       0.1
14 H  s               1.4       3.6       1.3       1.7       1.2       4.2
15 H  s               1.4       2.8       0.0       0.8       3.3       6.7
16 H  s               2.7       2.5       0.2       1.6       4.7       0.0
17 H  s               4.4       1.6       2.0       0.2       1.0       1.9
18 H  s               3.4       1.3       3.5       4.5       3.1       0.9
19 H  s               3.5       1.3       3.6       4.2       1.1       3.4

                     18        19        20        21        22        23   
                  -0.42539  -0.41045  -0.39696  -0.37206  -0.36098  -0.34705
                   2.00000   2.00000   2.00000   2.00000   2.00000   2.00000
                  --------  --------  --------  --------  --------  --------
 0 C  s               0.1       0.0       0.1       0.0       0.0       0.1
 0 C  pz              0.8       0.6       1.0       2.4       5.8       7.9
 0 C  px              0.2       9.1       1.1       4.9      12.6       0.4
 0 C  py              2.6       0.0      11.6       1.1       1.2       8.0
 0 C  dyz             0.0       0.0       0.0       0.0       0.0       0.1
 0 C  dx2y2           0.0       0.0       0.0       0.0       0.1       0.0
 1 C  s               0.0       0.0       0.1       0.0       0.1       0.3
 1 C  pz              2.6       0.9       6.3       0.0       0.4      11.7
 1 C  px              0.0      16.6       2.4       1.3       3.6       0.0
 1 C  py              1.9       0.1       3.3       3.6       1.6       5.9
 2 C  pz              1.4       0.0       2.6       3.9       3.4       8.5
 2 C  px              3.3       5.4       2.1       0.5       2.8       0.6
 2 C  py              2.5       3.2       6.4       1.4       0.2       0.1
 2 C  dz2             0.0       0.0       0.1       0.0       0.0       0.2
 2 C  dx2y2           0.0       0.0       0.0       0.0       0.1       0.0
 3 C  s               0.3       0.0       0.0       0.1       0.4       0.1
 3 C  pz              2.5       1.2       0.3       1.0       0.9      12.4
 3 C  px              0.1       1.7       0.5       2.1       5.7       0.1
 3 C  py              9.2       2.9       2.8       2.3       2.4       7.3
 3 C  dz2             0.0       0.0       0.0       0.0       0.0       0.3
 3 C  dxz             0.0       0.0       0.1       0.0       0.0       0.0
 3 C  dyz             0.0       0.0       0.0       0.0       0.0       0.2
 4 C  s               0.3       0.0       2.3       0.8       0.0       0.1
 4 C  pz              1.5       0.0       1.3       2.3       3.8       1.0
 4 C  px              0.1       0.1       0.3       4.6       3.9       0.3
 4 C  py              0.0       0.0       1.8       0.3       4.3       0.4
 4 C  dz2             0.2       0.0       0.0       0.0       0.0       0.1
 4 C  dxz             0.0       0.0       0.0       0.0       0.0       0.1
 4 C  dyz             0.3       0.0       0.1       0.0       0.0       0.0
 4 C  dx2y2           0.0       0.2       0.1       0.0       0.0       0.1
 4 C  dxy             0.2       0.0       0.0       0.0       0.0       0.0
 5 O  s               5.4       0.2       6.9       4.5       0.0       0.8
 5 O  pz              3.8       0.2      13.2      14.5       2.3       2.1
 5 O  px              0.9       0.1       4.2       0.7       3.2       0.3
 5 O  py              2.3       0.1       1.4       4.4       4.1       3.3
 5 O  dxz             0.0       0.0       0.1       0.0       0.0       0.0
 5 O  dyz             0.0       0.0       0.0       0.1       0.0       0.0
 6 O  s               1.0       0.2       0.6       0.1       0.0       0.5
 6 O  pz             16.1       0.3       2.4       0.0       0.3       0.4
 6 O  px              3.6       7.5       3.1       0.3       0.1       0.7
 6 O  py              0.1       1.8       0.7       0.5       0.0       0.2
 7 C  s               0.2       0.0       0.1       0.0       0.0       0.0
 7 C  pz              5.7       2.7       0.1       6.0       5.4       0.7
 7 C  px              3.9       4.7       1.5       0.1       4.4       0.2
 7 C  py              6.4      12.0       0.6      12.2       1.4       0.0
 7 C  dz2             0.0       0.1       0.0       0.0       0.1       0.0
 7 C  dyz             0.1       0.0       0.0       0.2       0.1       0.0
 8 H  s               1.6       0.5       3.9       0.1       4.5       1.6
 9 H  s               0.1       2.9       0.7       0.5       7.8       1.8
10 H  s               0.1       1.1       2.5       4.0       0.1       0.4
11 H  s               1.1       2.0       3.7       1.2       0.2       0.1
12 H  s               0.2       6.0       0.0       0.4       1.2       2.0
13 H  s               0.9       2.1       0.2       2.2       0.0       0.6
14 H  s               1.1       0.1       4.4       0.5       0.6       2.5
15 H  s               2.8       0.0       0.0       0.0       0.2      13.1
16 H  s               3.7       2.0       1.4       0.6       1.9       1.5
17 H  s               7.5       0.7       0.4       9.9       0.6       0.1
18 H  s               0.1       5.1       0.3       2.8       2.2       0.1
19 H  s               0.7       4.9       0.1       0.7       5.2       0.3

                     24        25        26        27        28        29   
                  -0.34152  -0.32606  -0.30313  -0.29176  -0.28649  -0.28520
                   2.00000   2.00000   2.00000   2.00000   2.00000   2.00000
                  --------  --------  --------  --------  --------  --------
 0 C  s               0.0       0.0       0.1       0.3       0.2       0.0
 0 C  pz              9.3       1.7       1.5       7.4       3.9       2.8
 0 C  px              2.1       9.3       4.3       3.7       2.6       2.1
 0 C  py             10.0       0.7       0.8       2.5       7.0       4.6
 0 C  dz2             0.0       0.0       0.0       0.0       0.0       0.2
 0 C  dxz             0.1       0.1       0.2       0.1       0.4       0.0
 0 C  dyz             0.0       0.1       0.1       0.2       0.0       0.0
 0 C  dx2y2           0.1       0.1       0.0       0.0       0.0       0.2
 0 C  dxy             0.1       0.1       0.0       0.0       0.0       0.2
 1 C  s               0.1       0.0       0.0       0.0       0.0       0.2
 1 C  pz              0.2       0.3       2.7       8.3       3.0       6.4
 1 C  px              0.4       1.4       2.0       9.1       6.2       4.5
 1 C  py              0.9       0.2       1.1       0.3       8.6      10.9
 1 C  dz2             0.0       0.0       0.0       0.0       0.0       0.2
 1 C  dxz             0.0       0.0       0.1       0.2       0.8       0.1
 1 C  dyz             0.0       0.0       0.1       0.5       0.1       0.0
 1 C  dx2y2           0.1       0.0       0.1       0.0       0.1       0.4
 1 C  dxy             0.0       0.2       0.0       0.2       0.0       0.1
 2 C  s               0.3       0.6       0.0       0.0       0.1       0.3
 2 C  pz              2.6       0.0       0.9       8.9       4.7       2.1
 2 C  px              6.0       7.3       1.3       5.9       2.8       2.9
 2 C  py              0.6       3.1       0.5       0.4       7.0      14.5
 2 C  dxz             0.1       0.1       0.0       0.1       0.4       0.0
 2 C  dyz             0.0       0.0       0.0       0.6       0.3       0.1
 2 C  dx2y2           0.1       0.0       0.0       0.0       0.1       0.2
 2 C  dxy             0.2       0.0       0.0       0.2       0.1       0.1
 3 C  s               0.1       0.2       0.2       0.0       0.2       0.1
 3 C  pz              0.0       0.7       0.1       0.6       5.8       2.5
 3 C  px              0.6       2.8       4.1       1.1       4.8       2.1
 3 C  py              9.2       2.5       0.2       0.2       1.6       5.0
 3 C  dz2             0.0       0.0       0.0       0.2       0.1       0.0
 3 C  dxz             0.1       0.1       0.0       0.1       0.1       0.0
 3 C  dyz             0.0       0.0       0.0       0.1       0.1       0.1
 3 C  dx2y2           0.2       0.1       0.0       0.1       0.0       0.2
 3 C  dxy             0.1       0.0       0.0       0.0       0.0       0.2
 4 C  s               0.3       0.0       0.4       0.4       0.1       0.1
 4 C  pz              1.2       2.8       2.4       1.1       0.0       0.8
 4 C  px              0.8       5.6       1.0       0.8       0.3       0.0
 4 C  py              3.8       1.1       1.5       0.1       0.0       0.2
 4 C  dz2             0.0       0.2       0.2       0.1       0.1       0.1
 4 C  dyz             0.0       0.0       0.5       0.1       0.1       0.0
 4 C  dx2y2           0.0       0.2       0.0       0.0       0.0       0.1
 4 C  dxy             0.1       0.0       0.3       0.0       0.0       0.0
 5 O  s               0.0       0.1       1.2       0.3       0.0       0.1
 5 O  pz              1.2       2.0       8.8       1.5       0.5       0.0
 5 O  px              0.1      10.2       1.6       0.0       0.5       0.8
 5 O  py              2.6       1.9       0.1       1.5       0.2       1.3
 6 O  s               0.1       0.3       3.8       0.4       0.4       0.4
 6 O  pz              1.4       0.0      24.4       2.8       0.8       0.6
 6 O  px              0.3       4.6       4.1       0.5       0.6       2.8
 6 O  py              1.0       3.2       1.2       0.1       0.0       1.2
 6 O  dxy             0.0       0.0       0.1       0.0       0.0       0.0
 7 C  s               0.0       0.0       0.2       0.0       0.0       0.0
 7 C  pz              3.8       0.2       7.1       0.6       0.3       0.1
 7 C  px              0.8       4.3       1.4       0.2       0.2       0.9
 7 C  py              2.2       5.0       0.3       0.0       0.1       0.1
 7 C  dz2             0.0       0.1       0.1       0.0       0.0       0.0
 7 C  dyz             0.2       0.0       0.1       0.0       0.0       0.0
 7 C  dx2y2           0.0       0.1       0.0       0.0       0.0       0.0
 7 C  dxy             0.0       0.1       0.3       0.0       0.0       0.0
 8 H  s               5.9       3.6       0.2       0.5       0.5       7.5
 9 H  s               0.0       6.3       1.0       0.2       5.8       2.5
10 H  s               9.9       0.5       4.4       4.1       1.9       0.8
11 H  s               0.3       0.1       4.1      11.7       3.6       0.6
12 H  s               0.0       1.2       0.1       0.5      10.2       6.6
13 H  s               6.8       3.4       0.0       9.5       1.5       0.5
14 H  s               0.4       0.0       0.0       8.5       7.5       0.8
15 H  s               0.6       0.1       0.3       2.0       3.2       0.2
16 H  s               6.1       2.4       0.1       0.1       0.3       6.5
17 H  s               4.4       0.7       3.5       0.2       0.0       0.1
18 H  s               0.2       5.9       1.7       0.1       0.0       0.8
19 H  s               1.6       1.8       2.9       0.2       0.1       0.0

                     30        31        32        33        34        35   
                  -0.25870  -0.21739  -0.02129   0.03498   0.05500   0.07026
                   2.00000   2.00000   0.00000   0.00000   0.00000   0.00000
                  --------  --------  --------  --------  --------  --------
 0 C  s               0.0       0.0       0.0       7.1       2.5       2.4
 0 C  pz              0.0       0.0       0.1       0.8       0.4       2.1
 0 C  px              0.2       0.0       0.0       0.0       1.1       1.0
 0 C  py              0.1       0.0       0.0       0.6       0.1       0.3
 0 C  dz2             0.0       0.0       0.0       0.1       0.0       0.2
 1 C  s               0.0       0.0       0.2       5.0       0.1       5.3
 1 C  pz              0.0       0.0       0.2       2.1       0.0       1.9
 1 C  px              0.0       0.0       0.1       0.0       2.8       0.6
 1 C  py              0.1       0.1       0.1       0.2       0.4       0.2
 1 C  dz2             0.0       0.0       0.0       0.0       0.0       0.3
 1 C  dxz             0.0       0.0       0.0       0.0       0.2       0.1
 1 C  dx2y2           0.0       0.0       0.0       0.1       0.0       0.1
 2 C  s               0.0       0.0       2.1       1.6       2.2       1.5
 2 C  pz              0.1       0.0       1.3       0.2       0.1       2.6
 2 C  px              0.1       0.1       1.1       0.9       1.7       0.4
 2 C  py              0.1       0.2       0.0       1.2       1.1       0.4
 2 C  dz2             0.0       0.0       0.0       0.0       0.0       0.2
 2 C  dxz             0.0       0.0       0.0       0.2       0.1       0.1
 2 C  dyz             0.0       0.0       0.0       0.2       0.0       0.4
 2 C  dxy             0.0       0.0       0.1       0.0       0.1       0.0
 3 C  s               0.0       0.6       0.1       3.0       1.5       1.5
 3 C  pz              0.0       2.6       0.1       0.7       0.9       3.5
 3 C  px              0.0       3.7       0.5       0.2       0.1       0.5
 3 C  py              0.2       0.4       0.1       0.0       0.4       1.4
 3 C  dz2             0.0       0.0       0.1       0.0       0.0       0.3
 3 C  dxz             0.0       0.0       0.3       0.0       0.0       0.0
 3 C  dyz             0.0       0.0       0.3       0.0       0.0       0.2
 3 C  dx2y2           0.0       0.0       1.5       0.0       0.1       0.0
 3 C  dxy             0.0       0.0       0.0       0.1       0.1       0.0
 4 C  s               0.0       0.4       0.0       1.3       0.3       0.2
 4 C  pz              0.2       0.4      13.7       0.6       0.2       0.3
 4 C  px              0.3       0.5      18.3       1.6       0.2       0.1
 4 C  py              0.2       0.7      13.2       0.2       0.1       0.0
 4 C  dz2             1.2       0.1       0.6       0.0       0.0       0.1
 4 C  dxz             0.6       1.3       0.0       0.3       0.0       0.0
 4 C  dyz             0.0       1.8       0.2       0.1       0.0       0.0
 4 C  dx2y2           0.2       1.4       0.2       0.0       0.0       0.0
 4 C  dxy             0.6       0.0       0.2       0.0       0.0       0.3
 5 O  s               0.0       0.0       0.0       0.7       0.1       0.0
 5 O  pz             11.4       0.2       7.5       0.3       0.1       0.1
 5 O  px             16.7      29.4      10.8       0.3       0.0       0.0
 5 O  py              8.8      43.0       7.0       0.0       0.9       0.0
 5 O  dz2             0.0       0.0       0.3       0.0       0.0       0.0
 5 O  dxy             0.0       0.0       0.1       0.0       0.0       0.0
 6 O  s               0.0       0.3       0.0       1.4       0.3       0.0
 6 O  pz             13.2       5.2       3.1       0.1       0.0       0.2
 6 O  px             18.8       0.0       4.3       0.3       0.1       0.0
 6 O  py             13.6       3.5       2.9       0.0       0.1       0.4
 6 O  dx2y2           0.0       0.0       0.3       0.0       0.0       0.0
 7 C  s               0.0       0.2       0.0       4.3      11.7       0.3
 7 C  pz              1.1       0.0       0.1       1.2       1.5       1.3
 7 C  px              1.3       0.5       0.0       2.5       1.0       0.5
 7 C  py              0.9       0.4       0.1       1.1       1.2       0.8
 7 C  dz2             0.4       0.0       0.2       0.0       0.0       0.0
 7 C  dxz             0.0       0.0       0.0       0.1       0.1       0.0
 7 C  dyz             0.3       0.0       0.1       0.0       0.0       0.1
 7 C  dx2y2           0.3       0.0       0.1       0.0       0.0       0.1
 7 C  dxy             0.1       0.0       0.0       0.2       0.1       0.0
 8 H  s               0.0       0.0       0.0       5.9       2.0       0.4
 9 H  s               0.1       0.0       0.0       5.5       0.1       9.2
10 H  s               0.1       0.0       0.0       4.6       6.7       3.0
11 H  s               0.0       0.0       0.1       8.1       5.0       4.9
12 H  s               0.0       0.0       0.2       5.6       3.9      13.1
13 H  s               0.0       0.4       1.3       3.5       9.9       0.6
14 H  s               0.2       0.2       0.1       3.2       1.3      11.7
15 H  s               0.0       1.3       0.1       4.0       1.8      16.4
16 H  s               0.1       0.1       4.2       3.1       3.1       0.3
17 H  s               0.0       0.0       0.0       4.1       8.1       6.6
18 H  s               3.7       0.2       0.7       3.8       7.2       0.0
19 H  s               4.4       0.1       1.0       6.9      16.5       0.9

                     36        37        38        39        40        41   
                   0.07833   0.08052   0.10019   0.10200   0.10890   0.12050
                   0.00000   0.00000   0.00000   0.00000   0.00000   0.00000
                  --------  --------  --------  --------  --------  --------
 0 C  s               1.2       5.9       0.1       0.1       3.5       1.2
 0 C  pz              0.3       0.0       0.8       2.7       1.1       0.0
 0 C  px              3.0       0.0       0.0       1.7       1.1       0.6
 0 C  py              0.0       2.4       0.7       3.1       1.7       1.3
 0 C  dxz             0.1       0.0       0.0       0.3       0.1       0.2
 0 C  dx2y2           0.0       0.0       0.0       0.2       0.0       0.1
 0 C  dxy             0.0       0.0       0.2       0.3       0.1       0.0
 1 C  s               0.9       1.0       0.0       0.1       0.9       0.4
 1 C  pz              0.2       1.1       0.1       0.1       0.1       0.4
 1 C  px              0.8       1.3       2.4       0.9       1.2       0.3
 1 C  py              0.1       0.2       0.2       0.1       1.1       1.6
 1 C  dz2             0.0       0.0       0.1       0.3       0.0       0.2
 1 C  dxz             0.0       0.1       0.1       0.1       0.3       0.4
 1 C  dyz             0.0       0.3       0.0       0.4       0.1       0.1
 1 C  dxy             0.0       0.1       0.0       0.0       0.0       0.0
 2 C  s               0.1       3.4       0.0       0.0       2.6       3.5
 2 C  pz              1.2       0.1       0.9       2.5       0.1       0.4
 2 C  px              0.3       1.5       0.8       1.3       0.5       0.1
 2 C  py              0.3       1.2       0.1       0.0       1.4       0.2
 2 C  dyz             0.0       0.1       0.1       0.2       0.0       0.1
 2 C  dx2y2           0.3       0.0       0.1       0.0       0.2       0.1
 2 C  dxy             0.0       0.3       0.0       0.0       0.1       0.3
 3 C  s               5.9       0.9       0.6       2.7       0.1       0.3
 3 C  pz              0.1       0.1       0.4       3.1       0.5       0.5
 3 C  px              1.0       0.1       0.1       0.5       0.0       0.3
 3 C  py              2.1       3.2       0.4       1.4       0.9       7.5
 3 C  dz2             0.3       0.0       0.1       0.0       0.1       0.2
 3 C  dxz             0.0       0.0       0.0       0.0       0.1       0.5
 3 C  dyz             0.0       0.1       0.0       0.2       0.1       0.1
 3 C  dxy             0.1       0.0       0.0       0.2       0.0       0.0
 4 C  s               1.1       0.0       0.7       0.3       0.1       0.3
 4 C  pz              0.6       0.0       0.1       0.4       0.9       1.0
 4 C  px              0.8       0.3       0.1       0.1       0.6       0.5
 4 C  py              0.8       0.5       0.1       0.6       1.1       0.1
 4 C  dz2             0.2       0.0       0.0       0.3       0.1       0.1
 4 C  dxz             0.0       0.0       0.3       0.0       0.0       0.3
 4 C  dxy             1.1       0.0       0.0       0.3       0.1       0.2
 5 O  s               0.1       0.1       0.1       0.1       0.1       0.3
 5 O  pz              0.0       0.1       0.1       0.1       0.0       0.0
 5 O  px              0.3       0.1       0.2       0.5       0.4       0.5
 5 O  py              0.0       0.2       0.1       0.5       0.1       0.0
 6 O  s               7.1       0.7       0.1       3.7       0.1       0.1
 6 O  pz              1.6       0.2       0.5       1.6       0.1       0.4
 6 O  px              2.6       0.3       0.4       2.7       0.6       0.0
 6 O  py              0.3       0.6       0.3       0.7       0.1       0.9
 6 O  dxz             0.1       0.0       0.2       0.0       0.0       0.0
 6 O  dxy             0.4       0.0       0.0       0.2       0.1       0.0
 7 C  s               5.9       6.8       0.0       0.8       0.7       0.4
 7 C  pz              3.7       1.2       9.1       3.3       0.0       2.1
 7 C  px             11.5       2.2       1.9      11.7       5.5       6.0
 7 C  py              3.5       0.8      10.2       3.1       6.5       3.9
 7 C  dz2             0.2       0.1       0.0       0.1       0.2       0.2
 7 C  dxz             0.8       0.2       0.1       0.7       0.1       0.0
 7 C  dyz             0.3       0.0       0.9       0.3       0.0       0.1
 7 C  dx2y2           0.2       0.0       0.3       0.2       0.0       0.0
 7 C  dxy             1.6       0.1       0.0       1.7       0.3       0.3
 8 H  s               2.0      10.8       2.7       5.7      13.8       0.5
 9 H  s               0.7       4.9       0.1       0.7       0.2       0.1
10 H  s               6.9       0.4       1.1      10.9       0.8       5.1
11 H  s               0.0       7.4       2.4       0.8       5.0       2.0
12 H  s               2.6       0.3       4.5       1.9       0.7       0.4
13 H  s               1.5      10.9       2.6       5.3       5.2       0.8
14 H  s               0.5       2.8       1.6       3.6       3.8       5.8
15 H  s               0.6       0.1       1.9       5.6       1.5       5.3
16 H  s              17.9       8.3       0.3       7.4       2.2      14.1
17 H  s               2.1       5.6      36.8       0.0       2.2       0.4
18 H  s               0.5      10.5       3.7       1.0      26.4      11.0
19 H  s               1.3       0.0       7.8       0.2       2.1      15.4

                     42        43        44        45        46        47   
                   0.12464   0.13295   0.14786   0.14871   0.18345   0.19521
                   0.00000   0.00000   0.00000   0.00000   0.00000   0.00000
                  --------  --------  --------  --------  --------  --------
 0 C  s               4.1       0.4       0.4       0.9       1.0       0.0
 0 C  pz              0.6       4.7       1.0       0.2       4.4       0.7
 0 C  px              1.3       4.5       3.0       8.6       1.3       0.8
 0 C  py              0.9       5.1       0.9       4.1       6.3       0.1
 0 C  dz2             0.1       0.0       0.0       0.1       0.0       0.8
 0 C  dxz             0.1       0.0       0.1       0.5       0.2       0.2
 0 C  dyz             0.1       0.2       0.4       0.5       2.4       0.0
 0 C  dx2y2           0.1       0.7       0.1       0.1       0.4       0.0
 0 C  dxy             0.1       0.4       0.4       0.0       0.0       0.0
 1 C  s               4.6       2.8       4.1       1.3       4.0       1.1
 1 C  pz              0.9       1.2       0.7       0.6      11.0       2.6
 1 C  px              5.4       0.2       8.6       0.0       0.5       1.3
 1 C  py              0.0       0.5       0.7       0.9       0.1      13.6
 1 C  dz2             0.0       0.7       0.0       0.0       0.2       0.0
 1 C  dxz             0.0       0.0       0.3       0.2       0.1       0.1
 1 C  dyz             0.2       0.2       0.0       0.1       0.3       1.7
 1 C  dx2y2           0.1       0.0       0.3       1.0       1.9       0.7
 1 C  dxy             0.2       0.0       0.0       0.0       0.1       2.3
 2 C  s               3.2       1.3       1.3       3.3       0.2       5.9
 2 C  pz              2.5       0.9       3.7       2.3       3.1       0.7
 2 C  px              1.5       2.2       0.9       2.5       9.0       4.0
 2 C  py              1.4       0.3       1.0       1.4       1.5      18.1
 2 C  dz2             0.2       0.0       0.1       0.2       0.2       0.7
 2 C  dxz             0.2       0.1       0.0       0.1       1.3       3.2
 2 C  dyz             0.2       0.3       0.0       0.2       0.1       0.6
 2 C  dx2y2           0.0       0.2       0.5       0.1       1.8       0.4
 2 C  dxy             0.3       0.1       0.0       0.1       0.3       0.5
[...]
 2 C  dyz             1.1       0.5       0.0       0.0       0.0       0.1
 2 C  dx2y2          14.4       5.9       0.3       0.1       0.1       0.0
 2 C  dxy             2.1       0.8       0.0       0.0       0.1       0.0
 3 C  s               0.2       0.0       0.0       0.0       0.0       0.3
 3 C  pz              0.2       0.2       0.0       0.0       0.0       0.0
 3 C  px              1.0       1.1       0.1       0.1       0.0       0.1
 3 C  py              0.2       0.1       0.0       0.0       0.0       0.1
 3 C  dz2             0.1       0.0       0.1       0.6       1.2       0.5
 3 C  dxz             3.7       5.9       0.3       2.7       0.3       0.1
 3 C  dyz             0.0       0.0       0.1       0.1       0.2       0.2
 3 C  dx2y2           3.3       0.5       0.6       0.3       0.3       0.0
 3 C  dxy             0.3       1.5       0.0       0.4       0.0       0.9
 4 C  s               0.4       0.4       0.0       0.2       0.1       1.0
 4 C  pz              0.0       0.2       0.0       0.3       0.2       1.0
 4 C  px              0.1       0.5       0.1       0.2       0.4       0.2
 4 C  py              0.0       0.1       0.0       0.2       0.4       2.0
 4 C  dz2             0.0       0.0       0.0       3.5       0.8       0.1
 4 C  dxz             0.0       1.8       0.1       0.3       2.2       5.0
 4 C  dyz             0.0       0.4       0.2       0.7       2.0       0.0
 4 C  dx2y2           0.1       0.0       0.8       2.3       7.0       0.5
 4 C  dxy             0.1       1.5       0.1       5.9       1.5       0.3
 5 O  s               0.0       0.0       0.0       1.2       0.1       0.4
 5 O  pz              0.0       0.0       0.0       0.3       0.2       0.3
 5 O  px              0.0       0.0       0.0       0.5       0.1       0.4
 5 O  py              0.0       0.0       0.0       0.0       0.1       0.1
 5 O  dz2             0.9       4.7       4.0       0.7       6.6       0.4
 5 O  dxz             4.6       6.0       0.0      14.6       1.2      11.2
 5 O  dyz             0.6       3.6       1.8       1.1       0.3       5.1
 5 O  dx2y2           6.7       0.7       2.4       0.4       7.9       7.6
 5 O  dxy            14.5      42.4       0.6       0.8       5.7       0.3
 6 O  s               0.0       0.1       0.0       0.5       0.1       7.9
 6 O  pz              0.1       0.2       0.3       1.2       0.0       0.7
 6 O  px              0.0       0.0       0.3       0.9       0.9       0.1
 6 O  py              0.0       0.3       0.3       0.3       0.1       0.4
 6 O  dz2             2.2       0.4      30.7      16.1       6.9       2.6
 6 O  dxz             0.0       3.9       0.0      19.4      27.4       3.7
 6 O  dyz             0.0       4.7      14.0       8.8       0.1       7.2
 6 O  dx2y2           0.2       0.1      25.0       6.1      16.7       1.2
 6 O  dxy             0.2       0.0       5.3       1.7       6.3      33.4
 7 C  s               0.1       0.1       0.0       0.6       0.1       0.6
 7 C  pz              0.0       0.1       0.1       0.0       0.0       0.2
 7 C  px              0.0       0.1       0.2       0.4       0.1       0.5
 7 C  py              0.1       0.1       0.1       0.3       0.1       0.2
 7 C  dz2             0.0       0.0       1.5       0.9       1.1       0.0
 7 C  dxz             0.2       0.0       0.3       0.0       0.1       1.7
 7 C  dyz             0.4       0.1       2.7       0.0       0.1       0.3
 7 C  dx2y2           0.0       0.5       6.3       0.2       0.0       0.4
 7 C  dxy             0.1       0.6       0.0       4.1       0.1       0.6
 8 H  s               0.2       0.0       0.0       0.0       0.0       0.0
16 H  s               0.3       0.0       0.0       0.0       0.0       0.0
18 H  s               0.0       0.1       0.0       0.1       0.0       0.0

                    132       133       134       135   
                   3.11378   3.31330   3.48362   3.55207
                   0.00000   0.00000   0.00000   0.00000
                  --------  --------  --------  --------
 2 C  dxz             0.1       0.0       0.0       0.0
 3 C  s               0.0       0.2       0.1       0.0
 3 C  pz              0.0       0.1       0.0       0.1
 3 C  px              0.0       0.1       0.2       0.0
 3 C  py              0.0       0.0       0.2       0.0
 3 C  dz2             0.0       0.1       0.5       0.1
 3 C  dxz             0.2       0.5       0.0       0.2
 3 C  dyz             0.1       0.1       0.2       0.1
 3 C  dx2y2           0.7       0.1       0.1       0.1
 3 C  dxy             0.1       0.0       1.0       0.0
 4 C  s               0.0       3.7       0.1       6.2
 4 C  pz              0.1       0.2       1.8       3.0
 4 C  px              0.2       0.9       0.0       1.0
 4 C  py              0.2       0.7       1.9       0.4
 4 C  dz2            12.6       1.5       0.6       2.7
 4 C  dxz             2.3       0.2       6.6       0.3
 4 C  dyz             0.6       1.6       6.5       7.4
 4 C  dx2y2           0.3       0.2       6.5       1.1
 4 C  dxy             4.7       3.7       0.5       1.1
 5 O  s               0.0       1.6       0.9       4.3
 5 O  pz              0.3       0.4       0.4       2.3
 5 O  px              0.4       0.0       0.1       1.0
 5 O  py              0.3       0.4       0.8       0.2
 5 O  dz2            40.0       1.9       2.4      15.1
 5 O  dxz             4.2       0.2       0.8      27.9
 5 O  dyz             4.9      13.2      18.9       6.1
 5 O  dx2y2           0.4       2.5       5.8       1.7
 5 O  dxy            11.7       0.4       1.3       3.5
 6 O  s               0.1       0.0       0.8       0.4
 6 O  pz              0.0       0.1       0.1       0.1
 6 O  px              0.0       0.8       1.1       0.1
 6 O  py              0.0       1.8       2.2       0.1
 6 O  dz2             0.1       4.1       2.8       3.7
 6 O  dxz             2.4       7.0       7.3       0.1
 6 O  dyz             2.0      24.9      10.0       0.4
 6 O  dx2y2           9.7       9.2      10.1       0.1
 6 O  dxy             0.2       9.4       5.4       8.2
 7 C  s               0.0       1.0       0.3       0.0
 7 C  pz              0.0       0.4       0.0       0.0
 7 C  px              0.0       1.0       0.2       0.1
 7 C  py              0.0       0.4       0.2       0.0
 7 C  dz2             0.3       0.1       0.3       0.0
 7 C  dxz             0.0       2.1       0.0       0.5
 7 C  dyz             0.1       0.9       0.1       0.0
 7 C  dx2y2           0.3       0.7       0.0       0.1
 7 C  dxy             0.0       1.6       0.6       0.0


                      *****************************
                      * MAYER POPULATION ANALYSIS *
                      *****************************

  NA   - Mulliken gross atomic population
  ZA   - Total nuclear charge
  QA   - Mulliken gross atomic charge
  VA   - Mayer's total valence
  BVA  - Mayer's bonded valence
  FA   - Mayer's free valence

  ATOM       NA         ZA         QA         VA         BVA        FA
  0 C      6.2947     6.0000    -0.2947     4.0151     4.0151     0.0000
  1 C      6.1909     6.0000    -0.1909     4.1463     4.1463     0.0000
  2 C      6.1835     6.0000    -0.1835     4.1474     4.1474    -0.0000
  3 C      6.1232     6.0000    -0.1232     3.9381     3.9381    -0.0000
  4 C      5.9160     6.0000     0.0840     4.4201     4.4201     0.0000
  5 O      8.2111     8.0000    -0.2111     2.2769     2.2769    -0.0000
  6 O      8.2394     8.0000    -0.2394     2.2690     2.2690     0.0000
  7 C      6.1118     6.0000    -0.1118     3.8833     3.8833     0.0000
  8 H      0.8969     1.0000     0.1031     0.9501     0.9501    -0.0000
  9 H      0.8889     1.0000     0.1111     0.9696     0.9696    -0.0000
 10 H      0.9027     1.0000     0.0973     0.9564     0.9564    -0.0000
 11 H      0.8963     1.0000     0.1037     0.9499     0.9499    -0.0000
 12 H      0.9101     1.0000     0.0899     0.9430     0.9430     0.0000
 13 H      0.9100     1.0000     0.0900     0.9481     0.9481    -0.0000
 14 H      0.8972     1.0000     0.1028     0.9562     0.9562    -0.0000
 15 H      0.8991     1.0000     0.1009     0.9715     0.9715     0.0000
 16 H      0.8896     1.0000     0.1104     0.9554     0.9554     0.0000
 17 H      0.8786     1.0000     0.1214     0.9557     0.9557    -0.0000
 18 H      0.8792     1.0000     0.1208     0.9677     0.9677    -0.0000
 19 H      0.8809     1.0000     0.1191     0.9620     0.9620    -0.0000

  Mayer bond orders larger than 0.100000
B(  0-C ,  1-C ) :   1.1523 B(  0-C ,  8-H ) :   0.9513 B(  0-C ,  9-H ) :   0.9455 
B(  0-C , 10-H ) :   0.9551 B(  1-C ,  2-C ) :   1.1356 B(  1-C , 11-H ) :   0.9141 
B(  1-C , 12-H ) :   0.9250 B(  2-C ,  3-C ) :   1.1109 B(  2-C , 13-H ) :   0.9236 
B(  2-C , 14-H ) :   0.9178 B(  3-C ,  4-C ) :   1.0231 B(  3-C , 15-H ) :   0.9032 
B(  3-C , 16-H ) :   0.8942 B(  4-C ,  5-O ) :   2.0539 B(  4-C ,  6-O ) :   1.2015 
B(  6-O ,  7-C ) :   0.9399 B(  7-C , 17-H ) :   0.9592 B(  7-C , 18-H ) :   0.9497 
B(  7-C , 19-H ) :   0.9533 

-------
TIMINGS
-------

Total SCF time: 0 days 0 hours 0 min 8 sec 

Total time                  ....       8.439 sec
Sum of individual times     ....       7.873 sec  ( 93.3%)

SCF preparation             ....       0.170 sec  (  2.0%)
Fock matrix formation       ....       6.850 sec  ( 81.2%)
  Startup                   ....       0.068 sec  (  1.0% of F)
  Split-RI-J                ....       2.389 sec  ( 34.9% of F)
  XC integration            ....       3.869 sec  ( 56.5% of F)
    Basis function eval.    ....       1.400 sec  ( 36.2% of XC)
    Density eval.           ....       0.502 sec  ( 13.0% of XC)
    XC-Functional eval.     ....       0.357 sec  (  9.2% of XC)
    XC-Potential eval.      ....       0.778 sec  ( 20.1% of XC)
Diagonalization             ....       0.000 sec  (  0.0%)
Density matrix formation    ....       0.209 sec  (  2.5%)
Total Energy calculation    ....       0.036 sec  (  0.4%)
Population analysis         ....       0.081 sec  (  1.0%)
Orbital Transformation      ....       0.045 sec  (  0.5%)
Orbital Orthonormalization  ....       0.000 sec  (  0.0%)
DIIS solution               ....       0.324 sec  (  3.8%)
  MO trafo                  ....       0.000 sec  (  0.0 % of DIIS)
  Orb grad                  ....       0.000 sec  (  0.0 % of DIIS)
  Energy W gradient         ....       0.000 sec  (  0.0 % of DIIS)
  DIIS error                ....       0.003 sec  (  0.8 % of DIIS)
  DIIS work                 ....       0.285 sec  ( 87.8 % of DIIS)
  Form Q                    ....       0.000 sec  (  0.0 % of DIIS)
  Form QpQm                 ....       0.000 sec  (  0.0 % of DIIS)
  Exp/Cayley                ....       0.000 sec  (  0.0 % of DIIS)
  Orb update                ....       0.000 sec  (  0.0 % of DIIS)
  Wake-sleep                ....       0.013 sec  (  3.9 % of DIIS)
SOSCF solution              ....       0.158 sec  (  1.9%)
  MO trafo                  ....       0.056 sec  ( 35.3 % of SOSCF)
  Orb grad                  ....       0.004 sec  (  2.4 % of SOSCF)
  Rot update                ....       0.063 sec  ( 39.7 % of SOSCF)
  Step                      ....       0.036 sec  ( 22.5 % of SOSCF)
Finished LeanSCF after   8.6 sec

Maximum memory used throughout the entire LEANSCF-calculation: 12.9 MB


-------------------------------------------------------------------------------
                          DFT DISPERSION CORRECTION                            
                                                                               
                                DFTD4 V3.4.0                                   
-------------------------------------------------------------------------------
The PBE functional is recognized
Active option DFTDOPT                   ...         5   

-------------------------   ----------------
Dispersion correction           -0.016000791
-------------------------   ----------------

------------------   -----------------
gCP correction             0.090793275
------------------   -----------------

-------------------------   --------------------
FINAL SINGLE POINT ENERGY      -385.452829229922
-------------------------   --------------------


------------------------------------------------------------------------------
                              ORCA PROPERTY CALCULATIONS
------------------------------------------------------------------------------

GBWName                                 ... sp.gbw
Number of atoms                         ...     20
Number of basis functions               ...    136
Max core memory                         ...   1024 MB

Electric properties:
Dipole moment                           ... YES
Quadrupole moment                       ...  NO
Static polarizability (Dipole/Dipole)   ...  NO
Static polarizability (Dipole/Quad.)    ...  NO
Static polarizability (Quad./Quad.)     ...  NO
Static polarizability (Velocity)        ...  NO

Atomic electric properties:
Dipole moment                           ...  NO
Quadrupole moment                       ...  NO
Static polarizability                   ...  NO

Choice of electric origin               ... Center of mass
Position of electric origin             ...    -0.000029    -0.000009     0.000006

General magnetic properties:
Magnetizability                         ...  NO

EPR properties:
g-Tensor (aka g-matrix)                 ...  NO
Zero-Field splitting spin-orbit         ...  NO
Zero-field splitting spin-spin          ...  NO
Hyperfine couplings                     ...  NO (   0 nuclei)
Quadrupole couplings                    ...  NO (   0 nuclei)
Contact density                         ...  NO (   0 nuclei)

NMR properties:
Chemical shifts                         ...  NO (   0 nuclei)
Spin-rotation constants                 ...  NO (   0 nuclei)
Spin-spin couplings                     ...  NO (   0 nuclei,    0 pairs)

Choice of magnetic origin               ... GIAO
Position of magnetic origin             ...     0.000000     0.000000     0.000000

Properties with geometric perturbations:
SCF Hessian                             ...  NO
IR spectrum                             ...  NO
VCD spectrum                            ...  NO
X-ray spectroscopy properties:
SCF XES/XAS/RIXS spectra                ...  NO


-------------
DIPOLE MOMENT
-------------

Method             : SCF
Type of density    : Electron Density
Multiplicity       :   1
Irrep              :   0
Energy             :  -385.5276217136920991 Eh
Relativity type    : 
Basis              : AO
                                X                 Y                 Z
Electronic contribution:      6.870809674       3.124568823      -1.045736537
Nuclear contribution   :     -6.964295997      -3.615468198       1.497140187
                        -----------------------------------------
Total Dipole Moment    :     -0.093486323      -0.490899375       0.451403650
                        -----------------------------------------
Magnitude (a.u.)       :      0.673414541
Magnitude (Debye)      :      1.711683734



--------------------
Rotational spectrum 
--------------------
 
Rotational constants in cm-1:             0.101126             0.044869             0.036955 
Rotational constants in MHz :          3031.675194          1345.126647          1107.895511 

Dipole components along the rotational axes: 
x,y,z [a.u.] :    -0.095052    -0.591330     0.307866 
x,y,z [Debye]:    -0.241602    -1.503041     0.782533 

 

Dipole moment calculation done in   0.0 sec 

Maximum memory used throughout the entire PROP-calculation: 8.1 MB

--------------------------------
SUGGESTED CITATIONS FOR THIS RUN
--------------------------------

Below you find a list of papers that are relevant to this ORCA run
We neither can nor want to force you to cite these papers, but we appreciate if you do
You receive ORCA, which is the product of decades of hard work by many enthusiastic individuals, for free
The only thing we kindly ask in return is that you cite our papers,
We deeply appreciate it, if you show your appreciation for ORCA by not just citing the generic ORCA reference.

Please note that relegating all ORCA citations to the supporting information does *not* help us.
SI sections are not indexed - citations you put there will not count into any citation statistics
But we need these citations in order to attract the funding resources that allow us to do what we are doing

Therefore, if you are a happy ORCA user, please consider citing a few of the papers listed below in the main body of your paper

In addition to the list printed below, the program has created the file sp.bibtex that contains the list in bibtex format
You can import this file easily into all common literature databanks and citation aid programs


List of essential papers. We consider these as the minimum necessary citations

  1. Neese,F.
     Software update: the ORCA program system, version 5.0
     WIRES Comput. Molec. Sci., 2022 12(1)e1606
     doi.org/10.1002/wcms.1606

List of papers to cite with high priority. The work reported in these papers was absolutely
necessary for this run to complete.
Our perspective: the developers of density functionals and basis sets usually get cited in chemistry papers
Good! But without the algorithms to do something with them, the functionals or basis sets would not do anything.
Hence, in our opinion, the algorithm design and method developments papers are equally worthy of getting cited

  1. Neese,F.
     An improvement of the resolution of the identity approximation for the formation of the Coulomb matrix
     J. Comp. Chem., 2003 24(14)1740-1747
     doi.org/10.1002/jcc.10318
  2. Neese,F.
     The SHARK Integral Generation and Digestion System
     J. Comp. Chem., 2022  1-16
     doi.org/10.1002/jcc.26942
  3. Caldeweyher,E.; Bannwarth,C.; Grimme,S.
     Extension of the D3 dispersion coefficient model
     J. Chem. Phys., 2017 147 034112-XXXX
     doi.org/10.1063/1.4993215
  4. Caldeweyher,E.; Ehlert,S.; Hansen,A.; Neugebauer,H.; Spicher,S.; Bannwarth,C.; Grimme,S.
     A generally applicable atomic-charge dependent London dispersion correction
     J. Chem. Phys., 2019 150 154122-XXXX
     doi.org/10.1063/1.5090222
  5. Caldeweyher,E.; Mewes,J.; Ehlert,S.; Grimme,S.
     Extension and evaluation of the D4 London-dispersion model for periodic systems
     Phys. Chem. Chem. Phys., 2020 22(16)8499-8512
     doi.org/10.1039/D0CP00502A

List of suggested additional citations. These are papers that are important in the 'surrounding' of 
of this run, or papers that preceded the highly important papers. If you like your results we are grateful for a citation.

  1. Neese,F.
     The ORCA program system
     WIRES Comput. Molec. Sci., 2012 2(1)73-78
     doi.org/10.1002/wcms.81
  2. Neese,F.
     Software update: the ORCA program system, version 4.0
     WIRES Comput. Molec. Sci., 2018 8(1)1-6
     doi.org/10.1002/wcms.1327
  3. Neese,F.; Wennmohs,F.; Becker,U.; Riplinger,C.
     The ORCA quantum chemistry program package
     J. Chem. Phys., 2020 152 Art. No. L224108
     doi.org/10.1063/5.0004608

List of optional additional citations

  1. Neese,F.
     Approximate second-order SCF convergence for spin unrestricted wavefunctions
     Chem. Phys. Lett., 2000 325(1-3)93-98
     doi.org/10.1016/s0009-2614(00)00662-x

Timings for individual modules:

Sum of individual times          ...       10.146 sec (=   0.169 min)
Startup calculation              ...        0.713 sec (=   0.012 min)   7.0 %
SCF iterations                   ...        9.336 sec (=   0.156 min)  92.0 %
Property calculations            ...        0.098 sec (=   0.002 min)   1.0 %
                             ****ORCA TERMINATED NORMALLY****
TOTAL RUN TIME: 0 days 0 hours 0 minutes 10 seconds 940 msec
