16
 energy: -213.724847934182 gnorm: 0.022607889303 xtb: 6.7.1 (edcfbbe)
C            2.40341620876502       -0.33872901215010       -0.37402982186574
C            1.32484051018707        0.52514413153271        0.27096837832007
C            0.00673272970298       -0.23966960000620        0.47620579451102
C           -1.17266559791964        0.41980446538603       -0.25362506361239
N           -2.44447508458321       -0.27295447712095       -0.11099594814919
H            2.62839217806471       -1.19975423813164        0.25156986431148
H            2.07318915121869       -0.69540347830815       -1.34705937519692
H            3.31789024357025        0.23355819240350       -0.51098806112643
H            1.69249335744999        0.89636550279720        1.22882592284453
H            1.14190017490601        1.39442884721791       -0.36397751086129
H            0.11548157385117       -1.26233234975937        0.10590637944693
H           -0.23201988420281       -0.30335912053443        1.54078038478276
H           -0.95003241262098        0.48004809211272       -1.32273991338614
H           -1.30970736808037        1.43832598153736        0.12065616715347
H           -2.68868236089143       -0.33404622944802        0.87208606518644
H           -2.35309019324272       -1.22272989244182       -0.45685297380244
16
 energy: -213.725636767551 gnorm: 0.008168762140 xtb: 6.7.1 (edcfbbe)
C            2.41287374608682       -0.33425026123620       -0.37515980705060
C            1.32729043189890        0.52401160044181        0.27193554518210
C            0.00018599036403       -0.23525312569563        0.47670565125893
C           -1.18089224063949        0.41509239998439       -0.25008973229066
N           -2.46643358824889       -0.27456093738874       -0.11425159634193
H            2.64037740517496       -1.20318833339210        0.24888792204697
H            2.08255652384591       -0.69937514408360       -1.35205219038490
H            3.33790594778130        0.23088690989266       -0.51956561610124
H            1.69471039716110        0.90750337577795        1.22876433349723
H            1.14706044234563        1.40093058850567       -0.36099238208908
H            0.10218220795155       -1.26338922048214        0.10772530379824
H           -0.24664150874121       -0.30664604032189        1.54217257631425
H           -0.93922768106855        0.48863471647425       -1.31717524368666
H           -1.29975160184089        1.44154067129585        0.11600727543657
H           -2.69607378782708       -0.34566357935500        0.87196858611489
H           -2.36245914410173       -1.22757687075529       -0.44815068830709
16
 energy: -213.725763924583 gnorm: 0.003249495389 xtb: 6.7.1 (edcfbbe)
C            2.41114285141425       -0.33400597447816       -0.37441059693383
C            1.32305265852318        0.52312412326764        0.27160403167898
C           -0.00440554173431       -0.23885595181362        0.47718281738123
C           -1.17859930293720        0.41847894284240       -0.25114987784123
N           -2.47047794567259       -0.27124065520437       -0.11651607158203
H            2.64512794104803       -1.20563605896515        0.24804986066823
H            2.08491231801371       -0.70407716193004       -1.35376551717989
H            3.33821341645526        0.23171129595736       -0.52127036648894
H            1.68857070445148        0.91303656628418        1.22841096949897
H            1.14185016017627        1.40325535518112       -0.36055481238316
H            0.09783337219937       -1.26965525207203        0.10973714319102
H           -0.25061450688547       -0.31356791927571        1.54421664507036
H           -0.93503007381669        0.49679566915231       -1.31882251984897
H           -1.29555487538960        1.44780066480315        0.11153444552536
H           -2.68662786373974       -0.35089335663451        0.87343304106728
H           -2.35572990410846       -1.22757340743795       -0.44094920163215
16
 energy: -213.725784987526 gnorm: 0.001509419171 xtb: 6.7.1 (edcfbbe)
C            2.41068158010399       -0.33447798962672       -0.37346334424848
C            1.32259450051171        0.52190103142504        0.27153757466430
C           -0.00580503233442       -0.23876373512675        0.47561180922914
C           -1.17797401650785        0.42000932959000       -0.25172700584584
N           -2.47237995670695       -0.26920580261279       -0.11746618101161
H            2.64638755967353       -1.20533955842296        0.24932760926783
H            2.08528366268941       -0.70558862393117       -1.35266504544925
H            3.33667343088696        0.23267090229749       -0.52075446676197
H            1.68671554900406        0.91277188708255        1.22850949723088
H            1.14071044388253        1.40137223790075       -0.36133741856802
H            0.09632705532525       -1.26931937799362        0.10745640192659
H           -0.25131024989243       -0.31463180963265        1.54278686960614
H           -0.93614856781655        0.49827719241729       -1.31970806549381
H           -1.29568440621324        1.44890081343313        0.11177686506004
H           -2.68066938004022       -0.35297984150903        0.87448679799334
H           -2.35173874065605       -1.22689971195667       -0.43764192292149
16
 energy: -213.725790692144 gnorm: 0.000842363981 xtb: 6.7.1 (edcfbbe)
C            2.41029420159949       -0.33527907966356       -0.37168322737654
C            1.32190521581646        0.52116358624935        0.27038035623313
C           -0.00698034298896       -0.23880409085666        0.47263980501100
C           -1.17719908104450        0.42258222182358       -0.25250323684310
N           -2.47275030936840       -0.26791422869392       -0.11662480120140
H            2.64663346361778       -1.20394171666457        0.25279412632820
H            2.08561517546405       -0.70760013805800       -1.34991496406796
H            3.33459177420002        0.23343385645352       -0.51909034946969
H            1.68391990075060        0.91156666737287        1.22785534029027
H            1.14122415414209        1.39926523202537       -0.36380568228429
H            0.09441448971014       -1.26807625386790        0.10197139235600
H           -0.25208004231007       -0.31637800867835        1.53947267327196
H           -0.93883189091327        0.50015389934599       -1.32086691886539
H           -1.29624405117866        1.45002795209307        0.11343325069487
H           -2.67358539222000       -0.35527688333098        0.87691765915250
H           -2.34726371703174       -1.22622599619748       -0.43424553851657
16
 energy: -213.725792953588 gnorm: 0.000310444901 xtb: 6.7.1 (edcfbbe)
C            2.41106790914085       -0.33552931366451       -0.37113790177563
C            1.32222352606719        0.52169186464234        0.26988539926676
C           -0.00656828062610       -0.23854807570455        0.47161821865114
C           -1.17817811550344        0.42261149538527       -0.25220027676832
N           -2.47292246141735       -0.26851721080462       -0.11546959619728
H            2.64676044530215       -1.20370338650927        0.25430743312105
H            2.08665962476706       -0.70872307283611       -1.34917300052056
H            3.33564984199560        0.23277929039925       -0.51865689292306
H            1.68358876554422        0.91241504386163        1.22749456880632
H            1.14204194599096        1.39954070849476       -0.36475121455058
H            0.09471450821438       -1.26739457607489        0.09972006314362
H           -0.25146950876128       -0.31728174027318        1.53839458703490
H           -0.94025336058685        0.50107734914292       -1.32061188570215
H           -1.29680618455386        1.44990090200232        0.11429226284271
H           -2.67439377776205       -0.35541475585061        0.87774788434897
H           -2.34845121567799       -1.22620750554972       -0.43472987207311
16
 energy: -213.725792953588 gnorm: 0.000310444901 xtb: 6.7.1 (edcfbbe)
C            2.41106790914085       -0.33552931366451       -0.37113790177563
C            1.32222352606719        0.52169186464234        0.26988539926676
C           -0.00656828062610       -0.23854807570455        0.47161821865114
C           -1.17817811550344        0.42261149538527       -0.25220027676832
N           -2.47292246141735       -0.26851721080462       -0.11546959619728
H            2.64676044530215       -1.20370338650927        0.25430743312105
H            2.08665962476706       -0.70872307283611       -1.34917300052056
H            3.33564984199560        0.23277929039925       -0.51865689292306
H            1.68358876554422        0.91241504386163        1.22749456880632
H            1.14204194599096        1.39954070849476       -0.36475121455058
H            0.09471450821438       -1.26739457607489        0.09972006314362
H           -0.25146950876128       -0.31728174027318        1.53839458703490
H           -0.94025336058685        0.50107734914292       -1.32061188570215
H           -1.29680618455386        1.44990090200232        0.11429226284271
H           -2.67439377776205       -0.35541475585061        0.87774788434897
H           -2.34845121567799       -1.22620750554972       -0.43472987207311
