      -----------------------------------------------------------      
     |                   =====================                   |     
     |                           x T B                           |     
     |                   =====================                   |     
     |                         S. Grimme                         |     
     |          Mulliken Center for Theoretical Chemistry        |     
     |                    University of Bonn                     |     
      -----------------------------------------------------------      

   * xtb version 6.7.1 (edcfbbe) compiled by 'albert@albert-system' on 2024-07-22

   xtb is free software: you can redistribute it and/or modify it under
   the terms of the GNU Lesser General Public License as published by
   the Free Software Foundation, either version 3 of the License, or
   (at your option) any later version.
   
   xtb is distributed in the hope that it will be useful,
   but WITHOUT ANY WARRANTY; without even the implied warranty of
   MERCHANTABILITY or FITNESS FOR A PARTICULAR PURPOSE.  See the
   GNU Lesser General Public License for more details.
   
   Cite this work as:
   * C. Bannwarth, E. Caldeweyher, S. Ehlert, A. Hansen, P. Pracht,
     J. Seibert, S. Spicher, S. Grimme, WIREs Comput. Mol. Sci., 2020, 11,
     e01493. DOI: 10.1002/wcms.1493
   
   for GFN2-xTB:
   * C. Bannwarth, S. Ehlert and S. Grimme., J. Chem. Theory Comput., 2019,
     15, 1652-1671. DOI: 10.1021/acs.jctc.8b01176
   for GFN1-xTB:
   * S. Grimme, C. Bannwarth, P. Shushkov, J. Chem. Theory Comput., 2017,
     13, 1989-2009. DOI: 10.1021/acs.jctc.7b00118
   for GFN0-xTB:
   * P. Pracht, E. Caldeweyher, S. Ehlert, S. Grimme, ChemRxiv, 2019, preprint.
     DOI: 10.26434/chemrxiv.8326202.v1
   for GFN-FF:
   * S. Spicher and S. Grimme, Angew. Chem. Int. Ed., 2020, 59, 15665-15673.
     DOI: 10.1002/anie.202004239
   
   for ALPB and GBSA implicit solvation:
   * S. Ehlert, M. Stahn, S. Spicher, S. Grimme, J. Chem. Theory Comput.,
     2021, 17, 4250-4261. DOI: 10.1021/acs.jctc.1c00471
   
   for ddCOSMO and CPCM-X implicit solvation:
   * M. Stahn, S. Ehlert, S. Grimme, J. Phys. Chem. A,
     2023, XX, XXXX-XXXX. DOI: 10.1021/acs.jpca.3c04382
   
   for DFT-D4:
   * E. Caldeweyher, C. Bannwarth and S. Grimme, J. Chem. Phys., 2017,
     147, 034112. DOI: 10.1063/1.4993215
   * E. Caldeweyher, S. Ehlert, A. Hansen, H. Neugebauer, S. Spicher,
     C. Bannwarth and S. Grimme, J. Chem. Phys., 2019, 150, 154122.
     DOI: 10.1063/1.5090222
   * E. Caldeweyher, J.-M. Mewes, S. Ehlert and S. Grimme, Phys. Chem. Chem. Phys.
     2020, 22, 8499-8512. DOI: 10.1039/D0CP00502A
   
   for sTDA-xTB:
   * S. Grimme and C. Bannwarth, J. Chem. Phys., 2016, 145, 054103.
     DOI: 10.1063/1.4959605
   
   in the mass-spec context:
   * V. Asgeirsson, C. Bauer and S. Grimme, Chem. Sci., 2017, 8, 4879.
     DOI: 10.1039/c7sc00601b
   * J. Koopman and S. Grimme, ACS Omega 2019, 4, 12, 15120-15133.
     DOI: 10.1021/acsomega.9b02011
   
   for metadynamics refer to:
   * S. Grimme, J. Chem. Theory Comput., 2019, 155, 2847-2862
     DOI: 10.1021/acs.jctc.9b00143
   
   for SPH calculations refer to:
   * S. Spicher and S. Grimme, J. Chem. Theory Comput., 2021, 17, 1701-1714
     DOI: 10.1021/acs.jctc.0c01306
   
   for ONIOM refer to:
   * C. Plett, A. Katbashev, S. Ehlert, S. Grimme, M. Bursch,
     Phys. Chem. Chem. Phys., 2023, 25, 17860-17868. DOI: 10.1039/D3CP02178E
   
   for DIPRO refer to:
   * J. Kohn, N. Gildemeister, S. Grimme, D. Fazzi, A. Hansen,
     J. Chem. Phys., 2023, just accepted.
   
   for PTB refer to:
   * S. Grimme, M. Mueller, A. Hansen, J. Chem. Phys., 2023, 158, 124111.
     DOI: 10.1063/5.0137838
   
   with help from (in alphabetical order)
   P. Atkinson, C. Bannwarth, F. Bohle, G. Brandenburg, E. Caldeweyher
   M. Checinski, S. Dohm, S. Ehlert, S. Ehrlich, I. Gerasimov, C. Hölzer
   A. Katbashev, J. Kohn, J. Koopman, C. Lavigne, S. Lehtola, F. März, M. Müller,
   F. Musil, H. Neugebauer, J. Pisarek, C. Plett, P. Pracht, F. Pultar,
   J. Seibert, P. Shushkov, S. Spicher, M. Stahn, M. Steiner, T. Strunk,
   J. Stückrath, T. Rose, and J. Unsleber
   
 * started run on 2025/04/11 at 13:03:02.769     
   ID    Z sym.   atoms
    1    6 C      1-3, 5-7
    2    7 N      4
    3    1 H      8-22

           -------------------------------------------------
          |                Calculation Setup                |
           -------------------------------------------------

          program call               : /srv/scratch/z5358697/.xtb/bin/xtb xtb_rrho.coord --gfn2 --ohess vtight --chrg 0 --enso --norestart -I rrho-xcontrol-inp --parallel 1 --alpb water
          hostname                   : k062
          coordinate file            : xtb_rrho.coord
          omp threads                :                     1


           -------------------------------------------------
          |                 G F N 2 - x T B                 |
           -------------------------------------------------

        Reference                      10.1021/acs.jctc.8b01176
      * Hamiltonian:
        H0-scaling (s, p, d)           1.850000    2.230000    2.230000
        zeta-weighting                 0.500000
      * Dispersion:
        s8                             2.700000
        a1                             0.520000
        a2                             5.000000
        s9                             5.000000
      * Repulsion:
        kExp                           1.500000    1.000000
        rExp                           1.000000
      * Coulomb:
        alpha                          2.000000
        third order                    shell-resolved
        anisotropic                    true
        a3                             3.000000
        a5                             4.000000
        cn-shift                       1.200000
        cn-exp                         4.000000
        max-rad                        5.000000

      * Solvation model:               ALPB
        Solvent                        water
        Parameter file                 internal GFN2-xTB/ALPB
        Dielectric constant                8.0200E+01
        Reference state                gsolv [1 M gas/solution]
        Free energy shift                  1.0808E-03 Eh       6.7819E-01 kcal/mol
        Temperature                        2.9815E+02 K
        Density                            1.0000E+00 kg/L
        Solvent mass                       1.8000E+01 g/mol
        Interaction kernel             P16
        Born radius scaling (c1)           1.4744E+00
        Born radii integrator          GBOBC
        Born offset                        0.0000E+00 a0       0.0000E+00 AA
        H-bond correction              true
        Ion screening                  false
        Surface tension                    1.0000E-05 Eh       1.5569E+01 dyn/cm
        Grid points                               974 per atom

          ...................................................
          :                      SETUP                      :
          :.................................................:
          :  # basis functions                  43          :
          :  # atomic orbitals                  43          :
          :  # shells                           29          :
          :  # electrons                        44          :
          :  max. iterations                   250          :
          :  Hamiltonian                  GFN2-xTB          :
          :  restarted?                      false          :
          :  GBSA solvation                   true          :
          :  PC potential                    false          :
          :  electronic temp.          300.0000000     K    :
          :  accuracy                    1.0000000          :
          :  -> integral cutoff          0.2500000E+02      :
          :  -> integral neglect         0.1000000E-07      :
          :  -> SCF convergence          0.1000000E-05 Eh   :
          :  -> wf. convergence          0.1000000E-03 e    :
          :  Broyden damping             0.4000000          :
          :  net charge                          0          :
          :  unpaired electrons                  0          :
          ...................................................

 iter      E             dE          RMSdq      gap      omega  full diag
   1    -23.7103395 -0.237103E+02  0.235E+00   10.11       0.0  T
   2    -23.7343917 -0.240523E-01  0.129E+00    9.98       1.0  T
   3    -23.7355910 -0.119930E-02  0.521E-01    9.99       1.0  T
   4    -23.7357212 -0.130184E-03  0.105E-01    9.93       1.0  T
   5    -23.7357565 -0.353282E-04  0.494E-02    9.93       1.0  T
   6    -23.7357595 -0.298072E-05  0.180E-02    9.92       1.2  T
   7    -23.7357599 -0.394939E-06  0.266E-03    9.93       8.0  T
   8    -23.7357599 -0.104554E-07  0.104E-03    9.93      20.5  T
   9    -23.7357599 -0.205774E-08  0.257E-04    9.93      83.0  T
  10    -23.7357599 -0.395808E-10  0.548E-05    9.93     389.3  T

   *** convergence criteria satisfied after 10 iterations ***

         #    Occupation            Energy/Eh            Energy/eV
      -------------------------------------------------------------
         1        2.0000           -0.6308752             -17.1670
       ...           ...                  ...                  ...
        16        2.0000           -0.4525243             -12.3138
        17        2.0000           -0.4437739             -12.0757
        18        2.0000           -0.4383164             -11.9272
        19        2.0000           -0.4363166             -11.8728
        20        2.0000           -0.4301150             -11.7040
        21        2.0000           -0.4203860             -11.4393
        22        2.0000           -0.3519671              -9.5775 (HOMO)
        23                          0.0128529               0.3497 (LUMO)
        24                          0.0779410               2.1209
        25                          0.0921789               2.5083
        26                          0.1042315               2.8363
        27                          0.1124672               3.0604
       ...                                ...                  ...
        43                          0.3065465               8.3416
      -------------------------------------------------------------
                  HL-Gap            0.3648200 Eh            9.9273 eV
             Fermi-level           -0.1695571 Eh           -4.6139 eV

 SCC (total)                   0 d,  0 h,  0 min,  0.030 sec
 SCC setup                      ...        0 min,  0.002 sec (  7.191%)
 Dispersion                     ...        0 min,  0.000 sec (  0.574%)
 classical contributions        ...        0 min,  0.000 sec (  0.131%)
 integral evaluation            ...        0 min,  0.002 sec (  8.106%)
 iterations                     ...        0 min,  0.020 sec ( 64.940%)
 molecular gradient             ...        0 min,  0.006 sec ( 18.618%)
 printout                       ...        0 min,  0.000 sec (  0.383%)

         :::::::::::::::::::::::::::::::::::::::::::::::::::::
         ::                     SUMMARY                     ::
         :::::::::::::::::::::::::::::::::::::::::::::::::::::
         :: total energy             -23.419476255341 Eh    ::
         :: total w/o Gsasa/hb       -23.418212173880 Eh    ::
         :: gradient norm              0.030683078954 Eh/a0 ::
         :: HOMO-LUMO gap              9.927258692854 eV    ::
         ::.................................................::
         :: SCC energy               -23.735677968077 Eh    ::
         :: -> isotropic ES            0.015034424287 Eh    ::
         :: -> anisotropic ES          0.008803223734 Eh    ::
         :: -> anisotropic XC          0.017935944883 Eh    ::
         :: -> dispersion             -0.013585473235 Eh    ::
         :: -> Gsolv                  -0.002225545590 Eh    ::
         ::    -> Gelec               -0.000961464129 Eh    ::
         ::    -> Gsasa               -0.001330498507 Eh    ::
         ::    -> Ghb                 -0.001014342652 Eh    ::
         ::    -> Gshift               0.001080759698 Eh    ::
         :: repulsion energy           0.316201712736 Eh    ::
         :: add. restraining           0.000000000000 Eh    ::
         :: total charge              -0.000000000000 e     ::
         :::::::::::::::::::::::::::::::::::::::::::::::::::::

      ----------------------------------------------------------- 
     |                   =====================                   |
     |                        A N C O P T                        |
     |                   =====================                   |
     |               Approximate Normal Coordinate               |
     |                Rational Function Optimizer                |
      ----------------------------------------------------------- 
      ----------------------------------------------------------- 
     |                   =====================                   |
     |                        A N C O P T                        |
     |                   =====================                   |
     |               Approximate Normal Coordinate               |
     |                Rational Function Optimizer                |
      ----------------------------------------------------------- 

          ...................................................
          :                      SETUP                      :
          :.................................................:
          :   optimization level         verytight          :
          :   max. optcycles                   440          :
          :   ANC micro-cycles                  20          :
          :   degrees of freedom                60          :
          :.................................................:
          :   RF solver                   davidson          :
          :   write xtbopt.log                true          :
          :   linear?                        false          :
          :   energy convergence         0.1000000E-06 Eh   :
          :   grad. convergence          0.2000000E-03 Eh/α :
          :   maxmium RF displ.          1.0000000          :
          :   Hlow (freq-cutoff)         0.1000000E-01      :
          :   Hmax (freq-cutoff)         5.0000000          :
          :   S6 in model hess.         20.0000000          :
          ...................................................

generating ANC from exact Hessian ...
Using Lindh-Hessian (1995)
 Shifting diagonal of input Hessian by   8.748020472511827E-003
 Lowest  eigenvalues of input Hessian
    0.000000    0.000000    0.000000    0.000000    0.000000    0.000000
    0.010000    0.011240    0.012965    0.016279    0.017668    0.017713
    0.017828    0.018240    0.021997    0.026549    0.028363    0.033127
 Highest eigenvalues
    1.179850    1.198386    1.245663    1.253100    1.330374    1.413069
 

........................................................................
.............................. CYCLE    1 ..............................
........................................................................

 iter      E             dE          RMSdq      gap      omega  full diag
   1    -23.7357599 -0.237358E+02  0.172E-05    9.93       0.0  T
   2    -23.7357599 -0.397904E-12  0.111E-05    9.93    1915.4  T
   3    -23.7357599 -0.675016E-13  0.375E-06    9.93    5691.2  T
     SCC iter.                  ...        0 min,  0.001 sec
     gradient                   ...        0 min,  0.005 sec
 * total energy  :   -23.4194763 Eh     change       -0.2084377E-10 Eh
   gradient norm :     0.0306830 Eh/α   predicted     0.0000000E+00 (-100.00%)
   displ. norm   :     0.1530365 α      lambda       -0.1916695E-02
   maximum displ.:     0.0721580 α      in ANC's #2, #11, #3, ...

........................................................................
.............................. CYCLE    2 ..............................
........................................................................

 iter      E             dE          RMSdq      gap      omega  full diag
   1    -23.7477582 -0.237478E+02  0.909E-02   10.05       0.0  T
   2    -23.7477663 -0.809305E-05  0.517E-02   10.05       1.0  T
   3    -23.7477663 -0.532892E-07  0.130E-02   10.06       1.6  T
   4    -23.7477669 -0.623325E-06  0.238E-03   10.06       8.9  T
   5    -23.7477669 -0.138502E-07  0.130E-03   10.06      16.4  T
   6    -23.7477669 -0.745594E-09  0.205E-04   10.06     104.2  T
   7    -23.7477669 -0.752287E-10  0.652E-05   10.06     327.0  T
     SCC iter.                  ...        0 min,  0.004 sec
     gradient                   ...        0 min,  0.005 sec
 * total energy  :   -23.4208112 Eh     change       -0.1334922E-02 Eh
   gradient norm :     0.0137644 Eh/α   predicted    -0.9808120E-03 ( -26.53%)
   displ. norm   :     0.1844753 α      lambda       -0.8181011E-03
   maximum displ.:     0.0958467 α      in ANC's #2, #3, #11, ...

........................................................................
.............................. CYCLE    3 ..............................
........................................................................

 iter      E             dE          RMSdq      gap      omega  full diag
   1    -23.7542808 -0.237543E+02  0.751E-02   10.18       0.0  T
   2    -23.7542864 -0.561619E-05  0.436E-02   10.18       1.0  T
   3    -23.7542866 -0.109673E-06  0.106E-02   10.19       2.0  T
   4    -23.7542870 -0.460715E-06  0.227E-03   10.19       9.4  T
   5    -23.7542870 -0.930008E-08  0.116E-03   10.19      18.4  T
   6    -23.7542870 -0.908667E-09  0.152E-04   10.19     139.8  T
   7    -23.7542870 -0.310614E-10  0.843E-05   10.19     252.9  T
     SCC iter.                  ...        0 min,  0.003 sec
     gradient                   ...        0 min,  0.005 sec
 * total energy  :   -23.4213046 Eh     change       -0.4934110E-03 Eh
   gradient norm :     0.0055687 Eh/α   predicted    -0.4230763E-03 ( -14.25%)
   displ. norm   :     0.1149670 α      lambda       -0.1616739E-03
   maximum displ.:     0.0650785 α      in ANC's #2, #3, #13, ...

........................................................................
.............................. CYCLE    4 ..............................
........................................................................

 iter      E             dE          RMSdq      gap      omega  full diag
   1    -23.7539861 -0.237540E+02  0.371E-02   10.22       0.0  T
   2    -23.7539869 -0.812327E-06  0.218E-02   10.22       1.0  T
   3    -23.7539869 -0.169108E-07  0.421E-03   10.22       5.1  T
   4    -23.7539870 -0.127300E-06  0.121E-03   10.22      17.7  T
   5    -23.7539870 -0.101661E-08  0.322E-04   10.22      66.2  T
   6    -23.7539870 -0.779039E-10  0.722E-05   10.22     295.4  T
     SCC iter.                  ...        0 min,  0.002 sec
     gradient                   ...        0 min,  0.005 sec
 * total energy  :   -23.4214199 Eh     change       -0.1153172E-03 Eh
   gradient norm :     0.0040135 Eh/α   predicted    -0.8191302E-04 ( -28.97%)
   displ. norm   :     0.1189678 α      lambda       -0.9414110E-04
   maximum displ.:     0.0649607 α      in ANC's #2, #3, #5, ...

........................................................................
.............................. CYCLE    5 ..............................
........................................................................

 iter      E             dE          RMSdq      gap      omega  full diag
   1    -23.7529562 -0.237530E+02  0.333E-02   10.21       0.0  T
   2    -23.7529569 -0.648332E-06  0.194E-02   10.21       1.1  T
   3    -23.7529569 -0.278248E-07  0.346E-03   10.22       6.2  T
   4    -23.7529570 -0.690183E-07  0.108E-03   10.22      19.8  T
   5    -23.7529570 -0.131726E-08  0.460E-04   10.22      46.3  T
   6    -23.7529570 -0.120089E-09  0.653E-05   10.22     326.5  T
     SCC iter.                  ...        0 min,  0.002 sec
     gradient                   ...        0 min,  0.005 sec
 * total energy  :   -23.4214790 Eh     change       -0.5905454E-04 Eh
   gradient norm :     0.0023428 Eh/α   predicted    -0.4777607E-04 ( -19.10%)
   displ. norm   :     0.0639503 α      lambda       -0.2597485E-04
   maximum displ.:     0.0292330 α      in ANC's #5, #1, #2, ...

........................................................................
.............................. CYCLE    6 ..............................
........................................................................

 iter      E             dE          RMSdq      gap      omega  full diag
   1    -23.7527560 -0.237528E+02  0.151E-02   10.20       0.0  T
   2    -23.7527562 -0.155737E-06  0.884E-03   10.20       2.4  T
   3    -23.7527562 -0.548425E-08  0.149E-03   10.20      14.3  T
   4    -23.7527562 -0.750885E-08  0.417E-04   10.20      51.1  T
   5    -23.7527562 -0.589800E-09  0.196E-04   10.20     108.7  T
     SCC iter.                  ...        0 min,  0.002 sec
     gradient                   ...        0 min,  0.005 sec
 * total energy  :   -23.4214987 Eh     change       -0.1969126E-04 Eh
   gradient norm :     0.0018675 Eh/α   predicted    -0.1304361E-04 ( -33.76%)
   displ. norm   :     0.1308630 α      lambda       -0.2980001E-04
   maximum displ.:     0.0679663 α      in ANC's #5, #1, #2, ...

........................................................................
.............................. CYCLE    7 ..............................
........................................................................

 iter      E             dE          RMSdq      gap      omega  full diag
   1    -23.7528155 -0.237528E+02  0.282E-02   10.16       0.0  T
   2    -23.7528158 -0.350616E-06  0.169E-02   10.16       1.3  T
   3    -23.7528159 -0.170701E-07  0.167E-03   10.16      12.8  T
   4    -23.7528159 -0.623218E-08  0.474E-04   10.16      45.0  T
   5    -23.7528159 -0.617547E-09  0.231E-04   10.16      92.3  T
     SCC iter.                  ...        0 min,  0.002 sec
     gradient                   ...        0 min,  0.004 sec
 * total energy  :   -23.4215243 Eh     change       -0.2561179E-04 Eh
   gradient norm :     0.0026991 Eh/α   predicted    -0.1501952E-04 ( -41.36%)
   displ. norm   :     0.0369916 α      lambda       -0.1379756E-04
   maximum displ.:     0.0225591 α      in ANC's #1, #5, #6, ...

........................................................................
.............................. CYCLE    8 ..............................
........................................................................

 iter      E             dE          RMSdq      gap      omega  full diag
   1    -23.7531870 -0.237532E+02  0.867E-03   10.16       0.0  T
   2    -23.7531871 -0.373855E-07  0.510E-03   10.16       4.2  T
   3    -23.7531871 -0.139024E-08  0.723E-04   10.16      29.5  T
   4    -23.7531871 -0.259903E-08  0.219E-04   10.16      97.5  T
     SCC iter.                  ...        0 min,  0.001 sec
     gradient                   ...        0 min,  0.005 sec
 * total energy  :   -23.4215358 Eh     change       -0.1149118E-04 Eh
   gradient norm :     0.0019386 Eh/α   predicted    -0.6909236E-05 ( -39.87%)
   displ. norm   :     0.1185193 α      lambda       -0.2043869E-04
   maximum displ.:     0.0742041 α      in ANC's #1, #5, #6, ...

........................................................................
.............................. CYCLE    9 ..............................
........................................................................

 iter      E             dE          RMSdq      gap      omega  full diag
   1    -23.7535036 -0.237535E+02  0.272E-02   10.18       0.0  T
   2    -23.7535040 -0.374974E-06  0.160E-02   10.18       1.3  T
   3    -23.7535040 -0.892411E-08  0.246E-03   10.18       8.7  T
   4    -23.7535040 -0.329689E-07  0.709E-04   10.18      30.1  T
   5    -23.7535041 -0.120129E-08  0.352E-04   10.18      60.6  T
     SCC iter.                  ...        0 min,  0.002 sec
     gradient                   ...        0 min,  0.005 sec
 * total energy  :   -23.4215477 Eh     change       -0.1198085E-04 Eh
   gradient norm :     0.0008037 Eh/α   predicted    -0.1028524E-04 ( -14.15%)
   displ. norm   :     0.0149356 α      lambda       -0.2130424E-05
   maximum displ.:     0.0094594 α      in ANC's #5, #8, #2, ...

........................................................................
.............................. CYCLE   10 ..............................
........................................................................

 iter      E             dE          RMSdq      gap      omega  full diag
   1    -23.7534293 -0.237534E+02  0.485E-03   10.18       0.0  T
   2    -23.7534293 -0.143347E-07  0.283E-03   10.18       7.5  T
   3    -23.7534293 -0.153079E-09  0.572E-04   10.18      37.2  T
   4    -23.7534293 -0.208659E-08  0.154E-04   10.18     138.3  T
     SCC iter.                  ...        0 min,  0.001 sec
     gradient                   ...        0 min,  0.005 sec
 * total energy  :   -23.4215499 Eh     change       -0.2202967E-05 Eh
   gradient norm :     0.0002860 Eh/α   predicted    -0.1065768E-05 ( -51.62%)
   displ. norm   :     0.0195002 α      lambda       -0.1496457E-05
   maximum displ.:     0.0117070 α      in ANC's #5, #1, #2, ...

........................................................................
.............................. CYCLE   11 ..............................
........................................................................

 iter      E             dE          RMSdq      gap      omega  full diag
   1    -23.7533087 -0.237533E+02  0.467E-03   10.18       0.0  T
   2    -23.7533087 -0.622070E-08  0.276E-03   10.18       7.7  T
   3    -23.7533087 -0.261032E-09  0.295E-04   10.18      72.3  T
   4    -23.7533087 -0.767102E-09  0.107E-04   10.18     199.1  T
     SCC iter.                  ...        0 min,  0.001 sec
     gradient                   ...        0 min,  0.005 sec
 * total energy  :   -23.4215516 Eh     change       -0.1672099E-05 Eh
   gradient norm :     0.0002838 Eh/α   predicted    -0.7500911E-06 ( -55.14%)
   displ. norm   :     0.0280601 α      lambda       -0.1425070E-05
   maximum displ.:     0.0170841 α      in ANC's #1, #5, #2, ...

........................................................................
.............................. CYCLE   12 ..............................
........................................................................

 iter      E             dE          RMSdq      gap      omega  full diag
   1    -23.7533048 -0.237533E+02  0.570E-03   10.18       0.0  T
   2    -23.7533048 -0.333748E-08  0.337E-03   10.18       6.3  T
   3    -23.7533048 -0.124450E-08  0.203E-04   10.18     105.1  T
   4    -23.7533048 -0.941043E-10  0.110E-04   10.18     194.3  T
     SCC iter.                  ...        0 min,  0.001 sec
     gradient                   ...        0 min,  0.004 sec
 * total energy  :   -23.4215532 Eh     change       -0.1586657E-05 Eh
   gradient norm :     0.0003414 Eh/α   predicted    -0.7134211E-06 ( -55.04%)
   displ. norm   :     0.0251414 α      lambda       -0.1051341E-05
   maximum displ.:     0.0193310 α      in ANC's #1, #2, #5, ...

........................................................................
.............................. CYCLE   13 ..............................
........................................................................

 iter      E             dE          RMSdq      gap      omega  full diag
   1    -23.7532562 -0.237533E+02  0.525E-03   10.18       0.0  T
   2    -23.7532562 -0.348168E-08  0.310E-03   10.18       6.9  T
   3    -23.7532562 -0.868518E-09  0.212E-04   10.18     100.7  T
   4    -23.7532562 -0.272948E-09  0.110E-04   10.18     193.5  T
     SCC iter.                  ...        0 min,  0.001 sec
     gradient                   ...        0 min,  0.005 sec
 * total energy  :   -23.4215545 Eh     change       -0.1254131E-05 Eh
   gradient norm :     0.0002472 Eh/α   predicted    -0.5262682E-06 ( -58.04%)
   displ. norm   :     0.0196914 α      lambda       -0.7351982E-06
   maximum displ.:     0.0169165 α      in ANC's #1, #2, #7, ...

........................................................................
.............................. CYCLE   14 ..............................
........................................................................

 iter      E             dE          RMSdq      gap      omega  full diag
   1    -23.7533112 -0.237533E+02  0.396E-03   10.18       0.0  T
   2    -23.7533112 -0.309323E-08  0.234E-03   10.18       9.1  T
   3    -23.7533112 -0.339877E-09  0.209E-04   10.18     101.9  T
   4    -23.7533112 -0.404683E-09  0.888E-05   10.18     240.0  T
     SCC iter.                  ...        0 min,  0.001 sec
     gradient                   ...        0 min,  0.005 sec
 * total energy  :   -23.4215554 Eh     change       -0.9301778E-06 Eh
   gradient norm :     0.0000929 Eh/α   predicted    -0.3682699E-06 ( -60.41%)
   displ. norm   :     0.0151563 α      lambda       -0.4905450E-06
   maximum displ.:     0.0133747 α      in ANC's #1, #2, #7, ...

........................................................................
.............................. CYCLE   15 ..............................
........................................................................

 iter      E             dE          RMSdq      gap      omega  full diag
   1    -23.7533496 -0.237533E+02  0.304E-03   10.18       0.0  T
   2    -23.7533496 -0.953030E-09  0.180E-03   10.18      11.8  T
   3    -23.7533496 -0.153960E-09  0.100E-04   10.18     213.0  T
   4    -23.7533496 -0.653024E-10  0.491E-05   10.18     434.3  T
     SCC iter.                  ...        0 min,  0.001 sec
     gradient                   ...        0 min,  0.004 sec
 * total energy  :   -23.4215560 Eh     change       -0.6681016E-06 Eh
   gradient norm :     0.0001341 Eh/α   predicted    -0.2499814E-06 ( -62.58%)
   displ. norm   :     0.0130432 α      lambda       -0.4304569E-06
   maximum displ.:     0.0114589 α      in ANC's #1, #6, #5, ...

........................................................................
.............................. CYCLE   16 ..............................
........................................................................

 iter      E             dE          RMSdq      gap      omega  full diag
   1    -23.7533549 -0.237534E+02  0.263E-03   10.18       0.0  T
   2    -23.7533549 -0.332285E-09  0.156E-03   10.18      13.6  T
   3    -23.7533549 -0.124093E-09  0.598E-05   10.18     356.6  T
   4    -23.7533549 -0.340350E-11  0.295E-05   10.18     722.0  T
     SCC iter.                  ...        0 min,  0.001 sec
     gradient                   ...        0 min,  0.005 sec
 * total energy  :   -23.4215566 Eh     change       -0.5915994E-06 Eh
   gradient norm :     0.0001426 Eh/α   predicted    -0.2160528E-06 ( -63.48%)
   displ. norm   :     0.0134752 α      lambda       -0.4400776E-06
   maximum displ.:     0.0117619 α      in ANC's #1, #6, #5, ...

........................................................................
.............................. CYCLE   17 ..............................
........................................................................

 iter      E             dE          RMSdq      gap      omega  full diag
   1    -23.7533673 -0.237534E+02  0.273E-03   10.18       0.0  T
   2    -23.7533673 -0.535032E-09  0.163E-03   10.18      13.1  T
   3    -23.7533673 -0.958451E-10  0.807E-05   10.18     264.1  T
   4    -23.7533673 -0.424194E-10  0.391E-05   10.18     545.8  T
     SCC iter.                  ...        0 min,  0.001 sec
     gradient                   ...        0 min,  0.004 sec
 * total energy  :   -23.4215573 Eh     change       -0.6154608E-06 Eh
   gradient norm :     0.0001251 Eh/α   predicted    -0.2207062E-06 ( -64.14%)
   displ. norm   :     0.0147150 α      lambda       -0.4412144E-06
   maximum displ.:     0.0125200 α      in ANC's #1, #6, #5, ...

........................................................................
.............................. CYCLE   18 ..............................
........................................................................

 iter      E             dE          RMSdq      gap      omega  full diag
   1    -23.7533669 -0.237534E+02  0.299E-03   10.18       0.0  T
   2    -23.7533669 -0.610321E-09  0.179E-03   10.18      11.9  T
   3    -23.7533669 -0.732321E-10  0.978E-05   10.18     218.1  T
   4    -23.7533669 -0.958948E-10  0.424E-05   10.18     503.1  T
     SCC iter.                  ...        0 min,  0.001 sec
     gradient                   ...        0 min,  0.004 sec
 * total energy  :   -23.4215579 Eh     change       -0.6226092E-06 Eh
   gradient norm :     0.0000845 Eh/α   predicted    -0.2223490E-06 ( -64.29%)
   displ. norm   :     0.0156677 α      lambda       -0.4194630E-06
   maximum displ.:     0.0128508 α      in ANC's #1, #6, #2, ...

........................................................................
.............................. CYCLE   19 ..............................
........................................................................

 iter      E             dE          RMSdq      gap      omega  full diag
   1    -23.7533461 -0.237533E+02  0.322E-03   10.18       0.0  T
   2    -23.7533461 -0.653440E-09  0.192E-03   10.18      11.1  T
   3    -23.7533461 -0.134047E-09  0.884E-05   10.18     241.1  T
   4    -23.7533461 -0.501821E-10  0.442E-05   10.18     482.6  T
     SCC iter.                  ...        0 min,  0.001 sec
     gradient                   ...        0 min,  0.005 sec
 * total energy  :   -23.4215585 Eh     change       -0.5896600E-06 Eh
   gradient norm :     0.0000674 Eh/α   predicted    -0.2118855E-06 ( -64.07%)
   displ. norm   :     0.0144998 α      lambda       -0.3721437E-06
   maximum displ.:     0.0119315 α      in ANC's #1, #6, #2, ...

........................................................................
.............................. CYCLE   20 ..............................
........................................................................

 iter      E             dE          RMSdq      gap      omega  full diag
   1    -23.7533463 -0.237533E+02  0.296E-03   10.18       0.0  T
   2    -23.7533463 -0.480583E-09  0.177E-03   10.18      12.1  T
   3    -23.7533463 -0.114028E-09  0.819E-05   10.18     260.2  T
   4    -23.7533463 -0.448388E-10  0.417E-05   10.18     511.9  T
     SCC iter.                  ...        0 min,  0.001 sec
     gradient                   ...        0 min,  0.005 sec
 * total energy  :   -23.4215590 Eh     change       -0.5053171E-06 Eh
   gradient norm :     0.0000796 Eh/α   predicted    -0.1885858E-06 ( -62.68%)
   displ. norm   :     0.0126192 α      lambda       -0.3112013E-06
   maximum displ.:     0.0105841 α      in ANC's #1, #6, #7, ...
 * RMSD in coord.:     0.1754433 α      energy gain  -0.2082718E-02 Eh

generating ANC from exact Hessian ...
Using Lindh-Hessian (1995)
 Shifting diagonal of input Hessian by   8.594777525904505E-003
 Lowest  eigenvalues of input Hessian
    0.000000    0.000000    0.000000    0.000000    0.000000    0.000000
    0.010000    0.011241    0.013346    0.016342    0.017925    0.018077
    0.018158    0.018632    0.022147    0.027016    0.029711    0.034970
 Highest eigenvalues
    1.197893    1.215354    1.246392    1.257887    1.397000    1.515283
 

........................................................................
.............................. CYCLE   21 ..............................
........................................................................

 iter      E             dE          RMSdq      gap      omega  full diag
   1    -23.7533347 -0.237533E+02  0.253E-03   10.18       0.0  T
   2    -23.7533347 -0.458613E-09  0.151E-03   10.18      14.2  T
   3    -23.7533347 -0.992380E-10  0.722E-05   10.18     295.2  T
   4    -23.7533347 -0.297717E-10  0.366E-05   10.18     581.9  T
     SCC iter.                  ...        0 min,  0.001 sec
     gradient                   ...        0 min,  0.005 sec
 * total energy  :   -23.4215594 Eh     change       -0.4449021E-06 Eh
   gradient norm :     0.0000706 Eh/α   predicted     0.0000000E+00 (-100.00%)
   displ. norm   :     0.0001060 α      lambda        0.0000000E+00
   maximum displ.:     0.0000617 α      in ANC's #1, #41, #46, ...

........................................................................
.............................. CYCLE   22 ..............................
........................................................................

 iter      E             dE          RMSdq      gap      omega  full diag
   1    -23.7533352 -0.237533E+02  0.114E-04   10.18       0.0  T
   2    -23.7533352 -0.285389E-10  0.697E-05   10.18     306.0  T
   3    -23.7533352 -0.650147E-12  0.237E-05   10.18     899.3  T
     SCC iter.                  ...        0 min,  0.001 sec
     gradient                   ...        0 min,  0.004 sec
 * total energy  :   -23.4215594 Eh     change       -0.6064546E-08 Eh
   gradient norm :     0.0000529 Eh/α   predicted    -0.3912184E-08 ( -35.49%)
   displ. norm   :     0.0001060 α      lambda        0.0000000E+00
   maximum displ.:     0.0000617 α      in ANC's #1, #41, #46, ...

   *** GEOMETRY OPTIMIZATION CONVERGED AFTER 22 ITERATIONS ***

------------------------------------------------------------------------
 total energy gain   :        -0.0020832 Eh       -1.3072 kcal/mol
 total RMSD          :         0.1754494 a0        0.0928 Å
 total power (kW/mol):        -0.2486073 (step)  -24.4089 (real)
------------------------------------------------------------------------

 ANCopt (total)                0 d,  0 h,  0 min,  0.224 sec
 optimizer setup                ...        0 min,  0.000 sec (  0.160%)
 model hessian                  ...        0 min,  0.016 sec (  7.202%)
 ANC generation                 ...        0 min,  0.001 sec (  0.329%)
 coordinate transformation      ...        0 min,  0.000 sec (  0.046%)
 single point calculation       ...        0 min,  0.198 sec ( 88.443%)
 optimization log               ...        0 min,  0.007 sec (  3.041%)
 hessian update                 ...        0 min,  0.000 sec (  0.053%)
 rational function              ...        0 min,  0.001 sec (  0.363%)

================
 final structure:
================
$coord
        4.12152616713650        2.12990924729021       -1.00465565138119      C
        2.26604697611436        0.53238978628353        0.52007386284636      C
        3.51203080504846       -1.95622297702751        1.30697723785507      C
        0.04825776958494       -0.00916666643076       -1.02371413029107      N
       -2.28027079498823       -0.58645945078108        0.32077302621265      C
       -4.06018946366999       -1.96377140952846       -1.49013504461373      C
       -3.58981403865808        1.75557074849377        1.42373962023889      C
        3.29238728905116        3.95025519957392       -1.48262696880282      H
        5.83374589620730        2.46011807872068        0.07959399213794      H
        4.61390683142383        1.15076045948177       -2.74170093235515      H
        1.75761594355065        1.58805382668622        2.25224619516432      H
        4.05203100401402       -3.01285223070434       -0.36769285526800      H
        2.21613234195921       -3.10522687758890        2.40976982207733      H
        5.18311720636897       -1.58541841282631        2.44119099477874      H
       -0.27734936672594        1.43787463443280       -2.23933106436058      H
       -1.79215089711990       -1.86834289897847        1.87162224982225      H
       -5.76509103143596       -2.55168080878418       -0.50889926252988      H
       -4.58438501158559       -0.72572524450097       -3.04414998425755      H
       -3.12434689967974       -3.61834780343970       -2.26220493628605      H
       -2.32945494986382        2.77137728176475        2.69223556341885      H
       -5.26260871326582        1.20631770165638        2.48039268117887      H
       -4.15729920603681        3.02682551082049       -0.09113642622849      H
$end
 
 Bond Distances (Angstroems)
 ---------------------------
C1-C2=1.5264         C1-H8=1.0883         C1-H9=1.0866         C1-H10=1.0869        C2-C1=1.5264         C2-C3=1.5305         
C2-N4=1.4584         C2-H11=1.1066        C3-C2=1.5305         C3-H12=1.0861        C3-H13=1.0865        C3-H14=1.0866        
N4-C2=1.4584         N4-C5=1.4553         N4-H15=1.0148        C5-N4=1.4553         C5-C6=1.5286         C5-C7=1.5352         
C5-H16=1.0956        C6-C5=1.5286         C6-H17=1.0864        C6-H18=1.0874        C6-H19=1.0857        C7-C5=1.5352         
C7-H20=1.0883        C7-H21=1.0866        C7-H22=1.0887        H8-C1=1.0883         H9-C1=1.0866         H10-C1=1.0869        
H11-C2=1.1066        H12-C3=1.0861        H13-C3=1.0865        H14-C3=1.0866        H15-N4=1.0148        H16-C5=1.0956        
H17-C6=1.0864        H18-C6=1.0874        H19-C6=1.0857        H20-C7=1.0883        H21-C7=1.0866        H22-C7=1.0887        
 C  H  Rav=1.0890 sigma=0.0054  Rmin=1.0857  Rmax=1.1066    14
 C  C  Rav=1.5302 sigma=0.0033  Rmin=1.5264  Rmax=1.5352     4
 N  H  Rav=1.0148 sigma=0.0000  Rmin=1.0148  Rmax=1.0148     1
 N  C  Rav=1.4568 sigma=0.0015  Rmin=1.4553  Rmax=1.4584     2
 
 selected bond angles (degree)
 --------------------
H8-C1-C2=110.72                H9-C1-C2=110.26                H9-C1-H8=108.45                H10-C1-C2=109.71               
H10-C1-H8=108.79               H10-C1-H9=108.86               C3-C2-C1=110.08                N4-C2-C1=109.29                
N4-C2-C3=109.27                H11-C2-C1=108.34               H11-C2-C3=108.28               H11-C2-N4=111.56               
H12-C3-C2=109.53               H13-C3-C2=110.84               H13-C3-H12=108.43              H14-C3-C2=110.21               
H14-C3-H12=109.24              H14-C3-H13=108.54              C5-N4-C2=116.66                H15-N4-C2=110.09               
H15-N4-C5=108.94               C6-C5-N4=108.38                C7-C5-N4=113.49                C7-C5-C6=110.19                
H16-C5-N4=107.25               H16-C5-C6=108.64               H16-C5-C7=108.75               H17-C6-C5=110.40               
H18-C6-C5=110.12               H18-C6-H17=108.79              H19-C6-C5=109.84               H19-C6-H17=109.13              
H19-C6-H18=108.52              H20-C7-C5=110.89               H21-C7-C5=110.33               H21-C7-H20=108.30              
H22-C7-C5=110.08               H22-C7-H20=108.54              H22-C7-H21=108.63              
 
 selected dihedral angles (degree)
 ---------------------------------
C3-C2-C1-H8=183.25            C3-C2-C1-H9=303.27            C3-C2-C1-H10= 63.17           N4-C2-C1-H8= 63.23            
N4-C2-C1-H9=183.26            N4-C2-C1-H10=303.15           H11-C2-C1-H8=301.48           H11-C2-C1-H9= 61.51           
H11-C2-C1-H10=181.40          H12-C3-C2-C1=299.08           H12-C3-C2-N4= 59.10           H12-C3-C2-H11=180.81          
H13-C3-C2-C1=179.47           H13-C3-C2-N4=299.50           H13-C3-C2-H11= 61.20          H14-C3-C2-C1= 59.29           
H14-C3-C2-N4=179.32           H14-C3-C2-H11=301.02          C5-N4-C2-C1=203.91            C5-N4-C2-C3= 83.40            
C5-N4-C2-H11=323.70           H15-N4-C2-C1=328.68           H15-N4-C2-C3=208.17           H15-N4-C2-H11= 88.47          
C6-C5-N4-C2=199.54            C6-C5-N4-H15= 74.19           C7-C5-N4-C2= 76.79            C7-C5-N4-H15=311.44           
H16-C5-N4-C2=316.66           H16-C5-N4-H15=191.31          H17-C6-C5-N4=175.71           H17-C6-C5-C7=300.44           
H17-C6-C5-H16= 59.49          H18-C6-C5-N4=295.86           H18-C6-C5-C7= 60.59           H18-C6-C5-H16=179.64          
H19-C6-C5-N4= 55.32           H19-C6-C5-C7=180.05           H19-C6-C5-H16=299.10          H20-C7-C5-N4=302.72           
H20-C7-C5-C6=180.98           H20-C7-C5-H16= 62.00          H21-C7-C5-N4=182.74           H21-C7-C5-C6= 60.99           
H21-C7-C5-H16=302.01          H22-C7-C5-N4= 62.85           H22-C7-C5-C6=301.11           H22-C7-C5-H16=182.13          
           -------------------------------------------------
          |                Final Singlepoint                |
           -------------------------------------------------

          ...................................................
          :                      SETUP                      :
          :.................................................:
          :  # basis functions                  43          :
          :  # atomic orbitals                  43          :
          :  # shells                           29          :
          :  # electrons                        44          :
          :  max. iterations                   250          :
          :  Hamiltonian                  GFN2-xTB          :
          :  restarted?                      false          :
          :  GBSA solvation                   true          :
          :  PC potential                    false          :
          :  electronic temp.          300.0000000     K    :
          :  accuracy                    1.0000000          :
          :  -> integral cutoff          0.2500000E+02      :
          :  -> integral neglect         0.1000000E-07      :
          :  -> SCF convergence          0.1000000E-05 Eh   :
          :  -> wf. convergence          0.1000000E-03 e    :
          :  Broyden damping             0.4000000          :
          :  net charge                          0          :
          :  unpaired electrons                  0          :
          ...................................................

 iter      E             dE          RMSdq      gap      omega  full diag
   1    -23.7533352 -0.237533E+02  0.393E-06   10.18       0.0  T
   2    -23.7533352 -0.710543E-13  0.201E-06   10.18   10590.7  T
   3    -23.7533352 -0.142109E-13  0.112E-06   10.18   19084.4  T

   *** convergence criteria satisfied after 3 iterations ***

         #    Occupation            Energy/Eh            Energy/eV
      -------------------------------------------------------------
         1        2.0000           -0.6313521             -17.1800
       ...           ...                  ...                  ...
        16        2.0000           -0.4530549             -12.3283
        17        2.0000           -0.4432767             -12.0622
        18        2.0000           -0.4378741             -11.9152
        19        2.0000           -0.4364547             -11.8765
        20        2.0000           -0.4290065             -11.6739
        21        2.0000           -0.4207957             -11.4504
        22        2.0000           -0.3455000              -9.4015 (HOMO)
        23                          0.0285687               0.7774 (LUMO)
        24                          0.0864627               2.3528
        25                          0.0998002               2.7157
        26                          0.1138299               3.0975
        27                          0.1196259               3.2552
       ...                                ...                  ...
        43                          0.3164925               8.6122
      -------------------------------------------------------------
                  HL-Gap            0.3740687 Eh           10.1789 eV
             Fermi-level           -0.1584657 Eh           -4.3121 eV

 SCC (total)                   0 d,  0 h,  0 min,  0.009 sec
 SCC setup                      ...        0 min,  0.001 sec ( 14.261%)
 Dispersion                     ...        0 min,  0.000 sec (  0.736%)
 classical contributions        ...        0 min,  0.000 sec (  0.248%)
 integral evaluation            ...        0 min,  0.002 sec ( 17.249%)
 iterations                     ...        0 min,  0.001 sec ( 12.824%)
 molecular gradient             ...        0 min,  0.005 sec ( 53.403%)
 printout                       ...        0 min,  0.000 sec (  1.130%)

         :::::::::::::::::::::::::::::::::::::::::::::::::::::
         ::                     SUMMARY                     ::
         :::::::::::::::::::::::::::::::::::::::::::::::::::::
         :: total energy             -23.421559424488 Eh    ::
         :: total w/o Gsasa/hb       -23.420406253656 Eh    ::
         :: gradient norm              0.000052898621 Eh/a0 ::
         :: HOMO-LUMO gap             10.178926426323 eV    ::
         ::.................................................::
         :: SCC energy               -23.753252219844 Eh    ::
         :: -> isotropic ES            0.015088281552 Eh    ::
         :: -> anisotropic ES          0.008106682937 Eh    ::
         :: -> anisotropic XC          0.017488832683 Eh    ::
         :: -> dispersion             -0.013609885491 Eh    ::
         :: -> Gsolv                  -0.002012253314 Eh    ::
         ::    -> Gelec               -0.000859082483 Eh    ::
         ::    -> Gsasa               -0.001189207798 Eh    ::
         ::    -> Ghb                 -0.001044722732 Eh    ::
         ::    -> Gshift               0.001080759698 Eh    ::
         :: repulsion energy           0.331692795356 Eh    ::
         :: add. restraining           0.000000000000 Eh    ::
         :: total charge               0.000000000000 e     ::
         :::::::::::::::::::::::::::::::::::::::::::::::::::::

           ------------------------------------------------- 
          |                Numerical Hessian                |
           ------------------------------------------------- 
step length          :   0.00500
SCC accuracy         :   0.30000
Hessian scale factor :   1.00000
frozen atoms in %    :   0.00000    0
RMS gradient         :   0.00005
estimated CPU  time      0.02 min
estimated wall time      0.02 min

writing file <hessian>.

 projected vibrational frequencies (cm⁻¹)
eigval :       -0.00    -0.00    -0.00    -0.00     0.00     0.00
eigval :       39.57    86.14   176.83   182.76   185.90   224.70
eigval :      235.49   294.66   384.90   390.79   403.38   478.77
eigval :      495.08   762.76   869.61   899.03   934.17   937.27
eigval :      953.61   968.04   977.03  1030.88  1113.07  1126.00
eigval :     1155.45  1179.10  1187.66  1200.45  1284.61  1301.87
eigval :     1326.00  1327.07  1393.66  1395.54  1403.72  1406.89
eigval :     1415.38  1482.41  1483.63  1488.19  1490.59  1494.37
eigval :     1498.03  1501.68  1502.28  2765.67  2925.42  3014.16
eigval :     3017.11  3021.65  3030.49  3033.83  3037.31  3038.67
eigval :     3041.11  3041.71  3043.42  3050.68  3054.49  3371.86
           -------------------------------------------------
          |                Property Printout                |
           -------------------------------------------------

    * Orbital Energies and Occupations

         #    Occupation            Energy/Eh            Energy/eV
      -------------------------------------------------------------
         1        2.0000           -0.6313521             -17.1800
       ...           ...                  ...                  ...
        10        2.0000           -0.5023224             -13.6689
        11        2.0000           -0.4865021             -13.2384
        12        2.0000           -0.4804970             -13.0750
        13        2.0000           -0.4696498             -12.7798
        14        2.0000           -0.4598324             -12.5127
        15        2.0000           -0.4597928             -12.5116
        16        2.0000           -0.4530549             -12.3283
        17        2.0000           -0.4432767             -12.0622
        18        2.0000           -0.4378741             -11.9152
        19        2.0000           -0.4364547             -11.8765
        20        2.0000           -0.4290065             -11.6739
        21        2.0000           -0.4207957             -11.4504
        22        2.0000           -0.3455000              -9.4015 (HOMO)
        23                          0.0285687               0.7774 (LUMO)
        24                          0.0864627               2.3528
        25                          0.0998002               2.7157
        26                          0.1138299               3.0975
        27                          0.1196259               3.2552
        28                          0.1288274               3.5056
        29                          0.1405872               3.8256
        30                          0.1684447               4.5836
        31                          0.1695603               4.6140
        32                          0.1767660               4.8100
        33                          0.2090640               5.6889
       ...                                ...                  ...
        43                          0.3164925               8.6122
      -------------------------------------------------------------
                  HL-Gap            0.3740687 Eh           10.1789 eV
             Fermi-level           -0.1584657 Eh           -4.3121 eV

     #   Z          covCN         q      C6AA      α(0)
     1   6 C        3.757    -0.120    22.847     6.815
     2   6 C        3.784     0.060    19.592     6.305
     3   6 C        3.756    -0.120    22.856     6.816
     4   7 N        2.687    -0.291    27.498     7.788
     5   6 C        3.785     0.052    19.720     6.325
     6   6 C        3.757    -0.124    22.925     6.826
     7   6 C        3.753    -0.117    22.791     6.808
     8   1 H        0.925     0.036     2.506     2.475
     9   1 H        0.925     0.044     2.397     2.421
    10   1 H        0.925     0.050     2.315     2.379
    11   1 H        0.922    -0.005     3.144     2.773
    12   1 H        0.925     0.051     2.309     2.376
    13   1 H        0.925     0.038     2.479     2.462
    14   1 H        0.925     0.040     2.451     2.448
    15   1 H        0.860     0.146     1.428     1.872
    16   1 H        0.924     0.025     2.666     2.553
    17   1 H        0.925     0.043     2.413     2.429
    18   1 H        0.925     0.042     2.424     2.435
    19   1 H        0.925     0.051     2.302     2.373
    20   1 H        0.925     0.028     2.612     2.527
    21   1 H        0.925     0.037     2.491     2.468
    22   1 H        0.925     0.034     2.530     2.488

 Mol. C6AA /au·bohr⁶  :       3188.945935
 Mol. C8AA /au·bohr⁸  :      65482.535207
 Mol. α(0) /au        :         84.164958


Wiberg/Mayer (AO) data.
largest (>0.10) Wiberg bond orders for each atom

 ---------------------------------------------------------------------------
     #   Z sym  total        # sym  WBO       # sym  WBO       # sym  WBO
 ---------------------------------------------------------------------------
     1   6 C    3.995 --     2 C    1.008    10 H    0.986     8 H    0.986
                             9 H    0.985
     2   6 C    3.987 --     1 C    1.008     3 C    1.002     4 N    1.000
                            11 H    0.957
     3   6 C    3.996 --     2 C    1.002    12 H    0.986    14 H    0.986
                            13 H    0.983
     4   7 N    3.064 --     5 C    1.005     2 C    1.000    15 H    0.950
     5   6 C    3.986 --     4 N    1.005     6 C    1.003     7 C    0.995
                            16 H    0.964
     6   6 C    3.995 --     5 C    1.003    18 H    0.986    19 H    0.986
                            17 H    0.986
     7   6 C    3.997 --     5 C    0.995    22 H    0.986    21 H    0.986
                            20 H    0.984
     8   1 H    0.999 --     1 C    0.986
     9   1 H    0.998 --     1 C    0.985
    10   1 H    0.997 --     1 C    0.986
    11   1 H    1.000 --     2 C    0.957
    12   1 H    0.997 --     3 C    0.986
    13   1 H    0.999 --     3 C    0.983
    14   1 H    0.998 --     3 C    0.986
    15   1 H    0.979 --     4 N    0.950
    16   1 H    0.999 --     5 C    0.964
    17   1 H    0.998 --     6 C    0.986
    18   1 H    0.998 --     6 C    0.986
    19   1 H    0.997 --     6 C    0.986
    20   1 H    0.999 --     7 C    0.984
    21   1 H    0.999 --     7 C    0.986
    22   1 H    0.999 --     7 C    0.986
 ---------------------------------------------------------------------------

Topologies differ in total number of bonds
Writing topology from bond orders to xtbtopo.mol

molecular dipole:
                 x           y           z       tot (Debye)
 q only:        0.018       0.053      -0.085
   full:       -0.066       0.365       0.090       0.970
molecular quadrupole (traceless):
                xx          xy          yy          xz          yz          zz
 q only:        1.387       0.505      -0.503       0.141      -0.778      -0.885
  q+dip:        0.656       0.096      -0.314       0.248      -1.504      -0.342
   full:        1.065       0.331      -0.419       0.306      -1.632      -0.645

           -------------------------------------------------
          |                Geometry Summary                 |
           -------------------------------------------------

      molecular mass/u    :      101.1902299
   center of mass at/Å    :       -0.0002035      -0.0003108       0.0004974
  moments of inertia/u·Å² :        0.1228122E+03   0.3478613E+03   0.3780807E+03
rotational constants/cm⁻¹ :        0.1372634E+00   0.4846078E-01   0.4458740E-01

 * 21 selected distances

     #   Z          #   Z                                           value/Å
     1   6 C        2   6 C                                       1.5263505
     2   6 C        3   6 C                                       1.5304924
     2   6 C        4   7 N                                       1.4583758
     4   7 N        5   6 C                                       1.4552815
     5   6 C        6   6 C                                       1.5286251
     5   6 C        7   6 C                                       1.5352110 (max)
     1   6 C        8   1 H                                       1.0883039
     1   6 C        9   1 H                                       1.0865971
     1   6 C       10   1 H                                       1.0868762
     2   6 C       11   1 H                                       1.1066449
     3   6 C       12   1 H                                       1.0861143
     3   6 C       13   1 H                                       1.0865176
     3   6 C       14   1 H                                       1.0866145
     4   7 N       15   1 H                                       1.0148170 (min)
     5   6 C       16   1 H                                       1.0956167
     6   6 C       17   1 H                                       1.0864449
     6   6 C       18   1 H                                       1.0873919
     6   6 C       19   1 H                                       1.0857186
     7   6 C       20   1 H                                       1.0882862
     7   6 C       21   1 H                                       1.0866107
     7   6 C       22   1 H                                       1.0887399

 * 4 distinct bonds (by element types)

   Z      Z             #   av. dist./Å        max./Å        min./Å
   1 H    6 C          14     1.0890341     1.1066449     1.0857186
   6 C    6 C           4     1.5301698     1.5352110     1.5263505
   1 H    7 N           1     1.0148170     1.0148170     1.0148170
   6 C    7 N           2     1.4568287     1.4583758     1.4552815

           -------------------------------------------------
          |               Frequency Printout                |
           -------------------------------------------------
 projected vibrational frequencies (cm⁻¹)
eigval :       -0.00    -0.00    -0.00    -0.00     0.00     0.00
eigval :       39.57    86.14   176.83   182.76   185.90   224.70
eigval :      235.49   294.66   384.90   390.79   403.38   478.77
eigval :      495.08   762.76   869.61   899.03   934.17   937.27
eigval :      953.61   968.04   977.03  1030.88  1113.07  1126.00
eigval :     1155.45  1179.10  1187.66  1200.45  1284.61  1301.87
eigval :     1326.00  1327.07  1393.66  1395.54  1403.72  1406.89
eigval :     1415.38  1482.41  1483.63  1488.19  1490.59  1494.37
eigval :     1498.03  1501.68  1502.28  2765.67  2925.42  3014.16
eigval :     3017.11  3021.65  3030.49  3033.83  3037.31  3038.67
eigval :     3041.11  3041.71  3043.42  3050.68  3054.49  3371.86
 reduced masses (amu)
   1:  9.17   2:  9.81   3:  9.89   4: 10.49   5: 10.10   6:  9.38   7:  8.05   8:  8.83
   9:  2.30  10:  3.45  11:  3.76  12:  2.28  13:  3.49  14:  7.86  15:  7.97  16:  8.04
  17:  8.70  18:  8.63  19:  7.16  20:  6.39  21:  6.51  22:  8.32  23:  2.86  24:  2.90
  25:  6.14  26:  4.29  27:  4.30  28:  6.27  29:  7.29  30:  7.93  31:  7.15  32:  7.41
  33:  7.94  34:  7.61  35:  3.52  36:  4.10  37:  4.40  38:  3.67  39:  3.27  40:  3.23
  41:  3.60  42:  3.20  43:  3.46  44:  1.59  45:  1.60  46:  1.59  47:  1.58  48:  1.58
  49:  1.58  50:  1.57  51:  1.56  52:  1.70  53:  1.73  54:  1.91  55:  1.83  56:  1.74
  57:  1.86  58:  1.88  59:  1.57  60:  1.94  61:  1.62  62:  1.74  63:  1.41  64:  1.47
  65:  1.59  66:  1.83
 IR intensities (km·mol⁻¹)
   1:  0.15   2:  0.06   3:  0.10   4:  0.01   5:  0.02   6:  0.09   7:  0.15   8:  1.21
   9:  0.52  10:  0.70  11:  0.48  12:  0.39  13:  0.38  14:  0.32  15:  1.85  16:  1.63
  17:  4.73  18:  0.53  19:  8.68  20: 79.28  21:  7.31  22:  3.25  23:  1.98  24:  2.06
  25:  0.40  26:  0.89  27:  0.23  28:  1.49  29:  6.14  30: 15.04  31: 44.76  32: 31.60
  33: 57.47  34: 19.12  35: 14.23  36: 26.24  37: 19.27  38: 53.25  39:  3.68  40:  8.04
  41: 34.58  42: 13.08  43: 16.11  44:  0.67  45:  0.56  46:  0.44  47:  0.79  48:  0.71
  49:  0.22  50:  0.65  51:  1.03  52:189.79  53: 86.47  54: 65.66  55: 73.17  56: 71.85
  57: 84.04  58: 43.90  59: 11.94  60: 52.12  61: 89.15  62: 92.82  63: 42.58  64: 38.34
  65: 44.09  66: 15.61
 Raman intensities (Ä⁴*amu⁻¹)
   1:  0.00   2:  0.00   3:  0.00   4:  0.00   5:  0.00   6:  0.00   7:  0.00   8:  0.00
   9:  0.00  10:  0.00  11:  0.00  12:  0.00  13:  0.00  14:  0.00  15:  0.00  16:  0.00
  17:  0.00  18:  0.00  19:  0.00  20:  0.00  21:  0.00  22:  0.00  23:  0.00  24:  0.00
  25:  0.00  26:  0.00  27:  0.00  28:  0.00  29:  0.00  30:  0.00  31:  0.00  32:  0.00
  33:  0.00  34:  0.00  35:  0.00  36:  0.00  37:  0.00  38:  0.00  39:  0.00  40:  0.00
  41:  0.00  42:  0.00  43:  0.00  44:  0.00  45:  0.00  46:  0.00  47:  0.00  48:  0.00
  49:  0.00  50:  0.00  51:  0.00  52:  0.00  53:  0.00  54:  0.00  55:  0.00  56:  0.00
  57:  0.00  58:  0.00  59:  0.00  60:  0.00  61:  0.00  62:  0.00  63:  0.00  64:  0.00
  65:  0.00  66:  0.00
 output can be read by thermo (or use thermo option).
 writing <g98.out> molden fake output.
 recommended (thermochemical) frequency scaling factor: 1.0
           -------------------------------------------------
          |             Thermodynamic Functions             |
           -------------------------------------------------

Molecule has no symmetry elements
It seems to be the C1 point group
c1  symmetry found (for desy threshold:  0.10E+00) used in thermo

          ...................................................
          :                      SETUP                      :
          :.................................................:
          :  # frequencies                          60      :
          :  # imaginary freq.                       0      :
          :  linear?                             false      :
          :  only rotor calc.                    false      :
          :  symmetry                               c1      :
          :  rotational number                       1      :
          :  scaling factor                  1.0000000      :
          :  rotor cutoff                    0.0000000 cm⁻¹ :
          :  imag. cutoff                 -100.0000000 cm⁻¹ :
          :.................................................:

    mode    ω/cm⁻¹     T·S(HO)/kcal·mol⁻¹    T·S(FR)/kcal·mol⁻¹   T·S(vib)
   ------------------------------------------------------------------------
       1     39.57    -1.57434 (100.00%)    -1.12539 (  0.00%)    -1.57434
       2     86.14    -1.11684 (100.00%)    -0.89521 (  0.00%)    -1.11684
       3    176.83    -0.70411 (100.00%)    -0.68224 (  0.00%)    -0.70411
       4    182.76    -0.68575 (100.00%)    -0.67248 (  0.00%)    -0.68575
       5    185.90    -0.67629 (100.00%)    -0.66743 (  0.00%)    -0.67629
       6    224.70    -0.57272 (100.00%)    -0.61130 (  0.00%)    -0.57272
       7    235.49    -0.54761 (100.00%)    -0.59741 (  0.00%)    -0.54761
       8    294.66    -0.43144 (100.00%)    -0.53102 (  0.00%)    -0.43144
   ------------------------------------------------------------------------

   temp. (K)  partition function   enthalpy   heat capacity  entropy
                                   cal/mol     cal/K/mol   cal/K/mol   J/K/mol
 298.15  VIB   578.                 4366.656     29.193     27.283
         ROT  0.307E+06              888.752      2.981     28.089
         INT  0.177E+09             5255.409     32.174     55.372
         TR   0.985E+27             1481.254      4.968     39.735
         TOT                        6736.6627    37.1422    95.1072   397.9287

       T/K    H(0)-H(T)+PV         H(T)/Eh          T*S/Eh         G(T)/Eh
   ------------------------------------------------------------------------
    298.15    0.107356E-01    0.212482E+00    0.451885E-01    0.167294E+00
   ------------------------------------------------------------------------

         :::::::::::::::::::::::::::::::::::::::::::::::::::::
         ::                  THERMODYNAMIC                  ::
         :::::::::::::::::::::::::::::::::::::::::::::::::::::
         :: total free energy         -23.254265608452 Eh   ::
         ::.................................................::
         :: total energy              -23.421559424455 Eh   ::
         :: zero point energy           0.201746777243 Eh   ::
         :: G(RRHO) w/o ZPVE           -0.034452961240 Eh   ::
         :: G(RRHO) contrib.            0.167293816003 Eh   ::
         :::::::::::::::::::::::::::::::::::::::::::::::::::::

optimized geometry written to: xtbopt.coord


           -------------------------------------------------
          | TOTAL ENERGY              -23.421559424455 Eh   |
          | TOTAL ENTHALPY            -23.209077091891 Eh   |
          | TOTAL FREE ENERGY         -23.254265608452 Eh   |
          | GRADIENT NORM               0.000052901792 Eh/α |
          | HOMO-LUMO GAP              10.178926413933 eV   |
           -------------------------------------------------

------------------------------------------------------------------------
 * finished run on 2025/04/11 at 13:03:04.313     
------------------------------------------------------------------------
 total:
 * wall-time:     0 d,  0 h,  0 min,  1.542 sec
 *  cpu-time:     0 d,  0 h,  0 min,  1.446 sec
 * ratio c/w:     0.938 speedup
 SCF:
 * wall-time:     0 d,  0 h,  0 min,  0.031 sec
 *  cpu-time:     0 d,  0 h,  0 min,  0.018 sec
 * ratio c/w:     0.589 speedup
 ANC optimizer:
 * wall-time:     0 d,  0 h,  0 min,  0.246 sec
 *  cpu-time:     0 d,  0 h,  0 min,  0.229 sec
 * ratio c/w:     0.931 speedup
 analytical hessian:
 * wall-time:     0 d,  0 h,  0 min,  1.187 sec
 *  cpu-time:     0 d,  0 h,  0 min,  1.174 sec
 * ratio c/w:     0.990 speedup

