
                                 *****************
                                 * O   R   C   A *
                                 *****************

                                            #,                                       
                                            ###                                      
                                            ####                                     
                                            #####                                    
                                            ######                                   
                                           ########,                                 
                                     ,,################,,,,,                         
                               ,,#################################,,                 
                          ,,##########################################,,             
                       ,#########################################, ''#####,          
                    ,#############################################,,   '####,        
                  ,##################################################,,,,####,       
                ,###########''''           ''''###############################       
              ,#####''   ,,,,##########,,,,          '''####'''          '####       
            ,##' ,,,,###########################,,,                        '##       
           ' ,,###''''                  '''############,,,                           
         ,,##''                                '''############,,,,        ,,,,,,###''
      ,#''                                            '''#######################'''  
     '                                                          ''''####''''         
             ,#######,   #######,   ,#######,      ##                                
            ,#'     '#,  ##    ##  ,#'     '#,    #''#        ,####,   ,####,        
            ##       ##  ##   ,#'  ##            #'  '#       #'       #'  '#        
            ##       ##  #######   ##           ,######,      #####,   #    #        
            '#,     ,#'  ##    ##  '#,     ,#' ,#      #,     #,   #   #,  ,#        
             '#######'   ##     ##  '#######'  #'      '#     '####' # '####'        



                #########################################################
                #                        -***-                          #
                #          Department of theory and spectroscopy        #
                #                                                       #
                #                      Frank Neese                      #
                #                                                       #
                #     Directorship, Architecture, Infrastructure        #
                #                    SHARK, DRIVERS                     #
                #        Core code/Algorithms in most modules           #
                #                                                       #
                #        Max Planck Institute fuer Kohlenforschung      #
                #                Kaiser Wilhelm Platz 1                 #
                #                 D-45470 Muelheim/Ruhr                 #
                #                      Germany                          #
                #                                                       #
                #                  All rights reserved                  #
                #                        -***-                          #
                #########################################################


                         Program Version 6.0.0  -   RELEASE  -


 With contributions from (in alphabetic order):
   Daniel Aravena         : Magnetic Suceptibility
   Michael Atanasov       : Ab Initio Ligand Field Theory (pilot matlab implementation)
   Alexander A. Auer      : GIAO ZORA, VPT2 properties, NMR spectrum
   Ute Becker             : All parallelization in ORCA, NUMFREQ, NUMCALC
   Giovanni Bistoni       : ED, misc. LED, open-shell LED, HFLD
   Martin Brehm           : Molecular dynamics
   Dmytro Bykov           : pre 5.0 version of the SCF Hessian
   Marcos Casanova-Páez   : Triplet and SCS-CIS(D). UHF-(DLPNO)-IP/EA/STEOM-CCSD. UHF-CVS-IP/STEOM-CCSD
   Vijay G. Chilkuri      : MRCI spin determinant printing, contributions to CSF-ICE
   Pauline Colinet        : FMM embedding
   Dipayan Datta          : RHF DLPNO-CCSD density
   Achintya Kumar Dutta   : EOM-CC, STEOM-CC
   Nicolas Foglia         : Exact transition moments, OPA infrastructure, MCD improvements
   Dmitry Ganyushin       : Spin-Orbit,Spin-Spin,Magnetic field MRCI
   Miquel Garcia          : C-PCM and meta-GGA Hessian, CCSD/C-PCM, Gaussian charge scheme
   Tiago L. C. Gouveia    : GS-ROHF, GS-ROCIS
   Yang Guo               : DLPNO-NEVPT2, F12-NEVPT2, CIM, IAO-localization
   Andreas Hansen         : Spin unrestricted coupled pair/coupled cluster methods
   Ingolf Harden          : AUTO-CI MPn and infrastructure 
   Benjamin Helmich-Paris : MC-RPA, TRAH-(SCF,CASSCF), AVAS, COSX integrals, SCF dyn. polar.
   Lee Huntington         : MR-EOM, pCC
   Robert Izsak           : Overlap fitted RIJCOSX, COSX-SCS-MP3, EOM
   Riya Kayal             : Wick's Theorem for AUTO-CI, AUTO-CI UHF-CCSDT
   Emily Kempfer          : AUTO-CI, RHF CISDT and CCSDT
   Christian Kollmar      : KDIIS, OOCD, Brueckner-CCSD(T), CCSD density, CASPT2, CASPT2-K, improved NEVPT2
   Axel Koslowski         : Symmetry handling
   Simone Kossmann        : Meta GGA functionals, TD-DFT gradient, OOMP2, (MP2 Hessian; deprecated post 5.0)
   Lucas Lang             : DCDCAS
   Marvin Lechner         : AUTO-CI (C++ implementation), FIC-MRCC
   Spencer Leger          : CASSCF response
   Dagmar Lenk            : GEPOL surface, SMD, ORCA-2-JSON
   Dimitrios Liakos       : Extrapolation schemes; Compound Job, initial MDCI parallelization
   Dimitrios Manganas     : Further ROCIS development; embedding schemes. LFT, Crystal Embedding
   Dimitrios Pantazis     : SARC Basis sets
   Anastasios Papadopoulos: AUTO-CI, single reference methods and gradients
   Taras Petrenko         : pre 6.0 DFT Hessian and TD-DFT gradient, (ASA, deprecated), ECA, 1-Electron XAS/XES, NRVS
   Peter Pinski           : DLPNO-MP2, DLPNO-MP2 Gradient
   Christoph Reimann      : Effective Core Potentials
   Marius Retegan         : Local ZFS, SOC
   Christoph Riplinger    : Optimizer, TS searches, QM/MM, DLPNO-CCSD(T), (RO)-DLPNO pert. Triples
   Michael Roemelt        : Original ROCIS implementation
   Masaaki Saitow         : Open-shell DLPNO-CCSD energy and density
   Barbara Sandhoefer     : DKH picture change effects
   Kantharuban Sivalingam : CASSCF convergence/infrastructure, NEVPT2 and variants, FIC-MRCI
   Bernardo de Souza      : ESD, SOC TD-DFT
   Georgi Stoychev        : AutoAux, RI-MP2 NMR, DLPNO-MP2 response, X2C
   Van Anh Tran           : RI-MP2 g-tensors
   Willem Van den Heuvel  : Paramagnetic NMR
   Zikuan Wang            : NOTCH, Electric field optimization 
   Frank Wennmohs         : Technical directorship and infrastructure
   Hang Xu                : AUTO-CI-Response properties 


 We gratefully acknowledge several colleagues who have allowed us to
 interface, adapt or use parts of their codes:
   Stefan Grimme, W. Hujo, H. Kruse, P. Pracht,  : VdW corrections, initial TS optimization,
                  C. Bannwarth, S. Ehlert,         DFT functionals, gCP, sTDA/sTD-DF
                  L. Wittmann, M. Mueller
   Ed Valeev, F. Pavosevic, A. Kumar             : LibInt (2-el integral package), F12 methods
   Garnet Chan, S. Sharma, J. Yang, R. Olivares  : DMRG
   Ulf Ekstrom                                   : XCFun DFT Library
   Mihaly Kallay                                 : mrcc  (arbitrary order and MRCC methods)
   Frank Weinhold                                : gennbo (NPA and NBO analysis)
   Simon Mueller                                 : openCOSMO-RS
   Christopher J. Cramer and Donald G. Truhlar   : smd solvation model
   Lars Goerigk                                  : TD-DFT with DH, B97 family of functionals
   V. Asgeirsson, H. Jonsson                     : NEB implementation
   FAccTs GmbH                                   : IRC, NEB, NEB-TS, DLPNO-Multilevel, CI-OPT
                                                   MM, QMMM, 2- and 3-layer-ONIOM, Crystal-QMMM,
                                                   LR-CPCM, SF, NACMEs, symmetry and pop. for TD-DFT,
                                                   nearIR, NL-DFT gradient (VV10), updates on ESD,
                                                   ML-optimized integration grids, MBIS, APM,
                                                   GOAT, DOCKER, SOLVATOR, interface openCOSMO-RS
   S Lehtola, MJT Oliveira, MAL Marques          : LibXC Library
   Liviu Ungur et al                             : ANISO software


 Your calculation uses the libint2 library for the computation of 2-el integrals
 For citations please refer to: http://libint.valeyev.net

 Your ORCA version has been built with support for libXC version: 6.2.2
 For citations please refer to: https://libxc.gitlab.io

 This ORCA versions uses:
   CBLAS   interface :  Fast vector & matrix operations
   LAPACKE interface :  Fast linear algebra routines
   SCALAPACK package :  Parallel linear algebra routines
   Shared memory     :  Shared parallel matrices
   BLAS/LAPACK       :  OpenBLAS 0.3.27  USE64BITINT DYNAMIC_ARCH NO_AFFINITY SkylakeX SINGLE_THREADED
        Core in use  :  SkylakeX
   Copyright (c) 2011-2014, The OpenBLAS Project


Your calculation utilizes the geometrical counterpoise correction gCP
Please cite in your paper:
H.Kruse, S. Grimme J.Chem.Phys., 136, (2012), 154101 
   

Your calculation utilizes the atom-pairwise dispersion correction
based on EEQ partial charges (D4)


================================================================================

----- Orbital basis set information -----
Your calculation utilizes the basis: def2-mTZVPP
   Stefan Grimme, Andreas Hansen, Sebastian Ehlert, and Jan-Michael Mewes 
   J. Chem. Phys. 154, 064103 (2021). DOI: 10.1063/5.0040021

----- AuxJ basis set information -----
Your calculation utilizes the auxiliary basis: def2/J
   F. Weigend, Phys. Chem. Chem. Phys. 8, 1057 (2006).

================================================================================
                                        WARNINGS
                       Please study these warnings very carefully!
================================================================================

Using LibXC functional ID 497 : Re-regularized SCAN exchange by Furness et al
[ 1]  J. W. Furness, A. D. Kaplan, J. Ning, J. P. Perdew, and J. Sun.,  J. Phys. Chem. Lett. 11, 8208-8215 (2020)
[ 2]  J. W. Furness, A. D. Kaplan, J. Ning, J. P. Perdew, and J. Sun.,  J. Phys. Chem. Lett. 11, 9248-9248 (2020)
Using LibXC functional ID 498 : Re-regularized SCAN correlation by Furness et al
[ 1]  J. W. Furness, A. D. Kaplan, J. Ning, J. P. Perdew, and J. Sun.,  J. Phys. Chem. Lett. 11, 8208-8215 (2020)
[ 2]  J. W. Furness, A. D. Kaplan, J. Ning, J. P. Perdew, and J. Sun.,  J. Phys. Chem. Lett. 11, 9248-9248 (2020)
Using LibXC functional ID 497 : Re-regularized SCAN exchange by Furness et al
[ 1]  J. W. Furness, A. D. Kaplan, J. Ning, J. P. Perdew, and J. Sun.,  J. Phys. Chem. Lett. 11, 8208-8215 (2020)
[ 2]  J. W. Furness, A. D. Kaplan, J. Ning, J. P. Perdew, and J. Sun.,  J. Phys. Chem. Lett. 11, 9248-9248 (2020)
Using LibXC functional ID 498 : Re-regularized SCAN correlation by Furness et al
[ 1]  J. W. Furness, A. D. Kaplan, J. Ning, J. P. Perdew, and J. Sun.,  J. Phys. Chem. Lett. 11, 8208-8215 (2020)
[ 2]  J. W. Furness, A. D. Kaplan, J. Ning, J. P. Perdew, and J. Sun.,  J. Phys. Chem. Lett. 11, 9248-9248 (2020)

================================================================================
                                       INPUT FILE
================================================================================
NAME = sp_gas.inp
|  1> ! r2scan-3c def2/J RI DEFGRID2 scfconv6 printgap
|  2> %output
|  3>     printlevel normal
|  4> end
|  5> * xyz 0 1
|  6> C 2.4635546576 -1.0930471954 0.145030534
|  7> C 2.5630397844 0.4042966761 -0.121315764
|  8> C 1.3734662301 1.2094398146 0.4051718467
|  9> C 0.0379971186 0.8726577333 -0.2775852146
| 10> C -0.78899795 -0.0975020351 0.5487587506
| 11> Cl -2.3306823238 -0.4900270097 -0.2952506956
| 12> H 3.3827318935 -1.5879969044 -0.1600099865
| 13> H 1.6441575577 -1.5358843211 -0.4146740105
| 14> H 2.3092531638 -1.2829022388 1.2048055893
| 15> H 3.4686165247 0.7865747354 0.3550441069
| 16> H 2.6616662838 0.5730708884 -1.1957491256
| 17> H 1.5904306262 2.2662365461 0.2445841891
| 18> H 1.2805505732 1.0542132533 1.4813341906
| 19> H 0.2241014356 0.4461876981 -1.2642397894
| 20> H -0.5449837306 1.7840858548 -0.4186283638
| 21> H -0.2810985028 -1.046071683 0.7044740289
| 22> H -1.0724407275 0.3368440996 1.5060201957
| 23> *
| 24> 
| 25>                          ****END OF INPUT****
================================================================================

                       ****************************
                       * Single Point Calculation *
                       ****************************

---------------------------------
CARTESIAN COORDINATES (ANGSTROEM)
---------------------------------
  C      2.463555   -1.093047    0.145031
  C      2.563040    0.404297   -0.121316
  C      1.373466    1.209440    0.405172
  C      0.037997    0.872658   -0.277585
  C     -0.788998   -0.097502    0.548759
  Cl    -2.330682   -0.490027   -0.295251
  H      3.382732   -1.587997   -0.160010
  H      1.644158   -1.535884   -0.414674
  H      2.309253   -1.282902    1.204806
  H      3.468617    0.786575    0.355044
  H      2.661666    0.573071   -1.195749
  H      1.590431    2.266237    0.244584
  H      1.280551    1.054213    1.481334
  H      0.224101    0.446188   -1.264240
  H     -0.544984    1.784086   -0.418628
  H     -0.281099   -1.046072    0.704474
  H     -1.072441    0.336844    1.506020

----------------------------
CARTESIAN COORDINATES (A.U.)
----------------------------
  NO LB      ZA    FRAG     MASS         X           Y           Z
   0 C     6.0000    0    12.011    4.655444   -2.065560    0.274068
   1 C     6.0000    0    12.011    4.843443    0.764010   -0.229254
   2 C     6.0000    0    12.011    2.595475    2.285510    0.765664
   3 C     6.0000    0    12.011    0.071804    1.649084   -0.524560
   4 C     6.0000    0    12.011   -1.490990   -0.184252    1.037004
   5 Cl   17.0000    0    35.453   -4.404351   -0.926017   -0.557943
   6 H     1.0000    0     1.008    6.392437   -3.000879   -0.302375
   7 H     1.0000    0     1.008    3.107008   -2.902401   -0.783620
   8 H     1.0000    0     1.008    4.363856   -2.424334    2.276753
   9 H     1.0000    0     1.008    6.554735    1.486411    0.670936
  10 H     1.0000    0     1.008    5.029820    1.082947   -2.259638
  11 H     1.0000    0     1.008    3.005478    4.282566    0.462197
  12 H     1.0000    0     1.008    2.419890    1.992174    2.799316
  13 H     1.0000    0     1.008    0.423490    0.843173   -2.389067
  14 H     1.0000    0     1.008   -1.029870    3.371434   -0.791093
  15 H     1.0000    0     1.008   -0.531199   -1.976789    1.331263
  16 H     1.0000    0     1.008   -2.026619    0.636543    2.845966

--------------------------------
INTERNAL COORDINATES (ANGSTROEM)
--------------------------------
 C      0   0   0     0.000000000000     0.00000000     0.00000000
 C      1   0   0     1.524098523860     0.00000000     0.00000000
 C      2   1   0     1.529879053646   113.96291119     0.00000000
 C      3   2   1     1.537223836274   114.03916038   295.53745802
 C      4   3   2     1.519202148673   111.79184451    98.35045709
 Cl     5   4   3     1.800893808468   110.50436458   180.98715773
 H      1   2   3     1.087617453236   110.05423052   185.88139914
 H      1   2   3     1.086639546656   111.07459616    66.45346809
 H      1   2   3     1.087647487162   110.55032983   305.45472529
 H      2   1   3     1.092302372880   108.76786800   120.64710897
 H      2   1   3     1.092070954490   109.24822491   237.67184619
 H      3   2   1     1.090725115076   107.73233232   174.86440451
 H      3   2   1     1.091262569256   109.31246755    58.39333570
 H      4   3   2     1.090870642058   109.82551191   336.48947737
 H      4   3   2     1.091082518021   109.79108075   218.48327585
 H      5   4   3     1.087195232366   112.38146218   299.26113717
 H      5   4   3     1.088735894109   111.42001931    63.37949125

---------------------------
INTERNAL COORDINATES (A.U.)
---------------------------
 C      0   0   0     0.000000000000     0.00000000     0.00000000
 C      1   0   0     2.880128811208     0.00000000     0.00000000
 C      2   1   0     2.891052429413   113.96291119     0.00000000
 C      3   2   1     2.904932057095   114.03916038   295.53745802
 C      4   3   2     2.870876003057   111.79184451    98.35045709
 Cl     5   4   3     3.403196094279   110.50436458   180.98715773
 H      1   2   3     2.055299125088   110.05423052   185.88139914
 H      1   2   3     2.053451149468   111.07459616    66.45346809
 H      1   2   3     2.055355880983   110.55032983   305.45472529
 H      2   1   3     2.064152340175   108.76786800   120.64710897
 H      2   1   3     2.063715022796   109.24822491   237.67184619
 H      3   2   1     2.061171754883   107.73233232   174.86440451
 H      3   2   1     2.062187396093   109.31246755    58.39333570
 H      4   3   2     2.061446761024   109.82551191   336.48947737
 H      4   3   2     2.061847148569   109.79108075   218.48327585
 H      5   4   3     2.054501243277   112.38146218   299.26113717
 H      5   4   3     2.057412672035   111.42001931    63.37949125

---------------------
BASIS SET INFORMATION
---------------------
There are 3 groups of distinct atoms

 Group   1 Type C   : 11s6p1d contracted to 5s3p1d pattern {62111/411/1}
 Group   2 Type Cl  : 14s9p2d contracted to 5s4p2d pattern {73211/6111/11}
 Group   3 Type H   : 4s1p contracted to 2s1p pattern {31/1}

Atom   0C    basis set group =>   1
Atom   1C    basis set group =>   1
Atom   2C    basis set group =>   1
Atom   3C    basis set group =>   1
Atom   4C    basis set group =>   1
Atom   5Cl   basis set group =>   2
Atom   6H    basis set group =>   3
Atom   7H    basis set group =>   3
Atom   8H    basis set group =>   3
Atom   9H    basis set group =>   3
Atom  10H    basis set group =>   3
Atom  11H    basis set group =>   3
Atom  12H    basis set group =>   3
Atom  13H    basis set group =>   3
Atom  14H    basis set group =>   3
Atom  15H    basis set group =>   3
Atom  16H    basis set group =>   3
---------------------------------
AUXILIARY/J BASIS SET INFORMATION
---------------------------------
There are 3 groups of distinct atoms

 Group   1 Type C   : 12s5p4d2f1g contracted to 6s4p3d1f1g pattern {711111/2111/211/2/1}
 Group   2 Type Cl  : 14s5p5d2f1g contracted to 8s4p3d1f1g pattern {71111111/2111/311/2/1}
 Group   3 Type H   : 5s2p1d contracted to 3s1p1d pattern {311/2/1}

Atom   0C    basis set group =>   1
Atom   1C    basis set group =>   1
Atom   2C    basis set group =>   1
Atom   3C    basis set group =>   1
Atom   4C    basis set group =>   1
Atom   5Cl   basis set group =>   2
Atom   6H    basis set group =>   3
Atom   7H    basis set group =>   3
Atom   8H    basis set group =>   3
Atom   9H    basis set group =>   3
Atom  10H    basis set group =>   3
Atom  11H    basis set group =>   3
Atom  12H    basis set group =>   3
Atom  13H    basis set group =>   3
Atom  14H    basis set group =>   3
Atom  15H    basis set group =>   3
Atom  16H    basis set group =>   3

Checking for AutoStart:
The File: sp_gas.gbw exists
Trying to determine its content:
     ... Fine, the file contains calculation information
     ... Fine, the calculation information was read
     ... Fine, the file contains a basis set
     ... Fine, the basis set was read
     ... Fine, the file contains a geometry
     ... Fine, the geometry was read
     ... Fine, the file contains a set of orbitals
     ... Fine, the orbitals can be read
     => possible old guess file was deleted
     => GBW file was renamed to GES file
     => GES file is set as startup file
     => Guess is set to MORead
     ... now leaving AutoStart

------------------------------------------------------------------------------
                             ORCA STARTUP CALCULATIONS
                           -- RI-GTO INTEGRALS CHOSEN --
------------------------------------------------------------------------------
------------------------------------------------------------------------------
                   ___                                                        
                  /   \      - P O W E R E D   B Y -                         
                 /     \                                                     
                 |  |  |   _    _      __       _____    __    __             
                 |  |  |  | |  | |    /  \     |  _  \  |  |  /  |          
                  \  \/   | |  | |   /    \    | | | |  |  | /  /          
                 / \  \   | |__| |  /  /\  \   | |_| |  |  |/  /          
                |  |  |   |  __  | /  /__\  \  |    /   |      \           
                |  |  |   | |  | | |   __   |  |    \   |  |\   \          
                \     /   | |  | | |  |  |  |  | |\  \  |  | \   \       
                 \___/    |_|  |_| |__|  |__|  |_| \__\ |__|  \__/        
                                                                              
                      - O R C A' S   B I G   F R I E N D -                    
                                      &                                       
                       - I N T E G R A L  F E E D E R -                       
                                                                              
 v1 FN, 2020, v2 2021, v3 2022-2024                                           
------------------------------------------------------------------------------


----------------------
SHARK INTEGRAL PACKAGE
----------------------

Number of atoms                             ...     17
Number of basis functions                   ...    177
Number of shells                            ...     89
Maximum angular momentum                    ...      2
Integral batch strategy                     ... SHARK/LIBINT Hybrid
RI-J (if used) integral strategy            ... SPLIT-RIJ (Revised 2003 algorithm where possible)
Printlevel                                  ...      1
Contraction scheme used                     ... SEGMENTED contraction
Prescreening option                         ... SCHWARTZ
   Thresh                                   ... 1.000e-10
   Tcut                                     ... 1.000e-11
   Tpresel                                  ... 1.000e-11 
Coulomb Range Separation                    ... NOT USED
Exchange Range Separation                   ... NOT USED
Multipole approximations                    ... NOT USED
Finite Nucleus Model                        ... NOT USED
CABS basis                                  ... NOT available
Auxiliary Coulomb fitting basis             ... AVAILABLE
   # of basis functions in Aux-J            ...    417
   # of shells in Aux-J                     ...    147
   Maximum angular momentum in Aux-J        ...      4
Auxiliary J/K fitting basis                 ... NOT available
Auxiliary Correlation fitting basis         ... NOT available
Auxiliary 'external' fitting basis          ... NOT available

Checking pre-screening integrals            ... done (  0.0 sec) Dimension = 89
Check shell pair data                       ... done (  0.0 sec)
Shell pair information
Shell pair cut-off parameter TPreSel        ...   1.0e-11
Total number of shell pairs                 ...      4005
Shell pairs after pre-screening             ...      3687
Total number of primitive shell pairs       ...     14718
Primitive shell pairs kept                  ...      9755
          la=0 lb=0:   1260 shell pairs
          la=1 lb=0:   1431 shell pairs
          la=1 lb=1:    434 shell pairs
          la=2 lb=0:    339 shell pairs
          la=2 lb=1:    197 shell pairs
          la=2 lb=2:     26 shell pairs

Calculating one electron integrals          ... done (  0.0 sec)
Calculating RI/J V-Matrix + Cholesky decomp.... done (  0.1 sec)
Calculating Nuclear repulsion               ... done (  0.0 sec) ENN=    294.431325732138 Eh

Diagonalization of the overlap matrix:
Smallest eigenvalue                        ... 2.508e-04
Time for diagonalization                   ...    0.003 sec
Threshold for overlap eigenvalues          ... 1.000e-07
Number of eigenvalues below threshold      ... 0
Time for construction of square roots      ...    0.013 sec
Total time needed                          ...    0.024 sec

-------------------
DFT GRID GENERATION
-------------------

General Integration Accuracy     IntAcc      ... 4.388
Radial Grid Type                 RadialGrid  ... OptM3 with GC (2021)
Angular Grid (max. ang.)         AngularGrid ... 4 (Lebedev-302)
Angular grid pruning method      GridPruning ... 4 (adaptive)
Weight generation scheme         WeightScheme... mBecke (2022)
Basis function cutoff            BFCut       ... 1.0000e-10
Integration weight cutoff        WCut        ... 1.0000e-14
Partially contracted basis set               ... off
Rotationally invariant grid construction     ... off
Angular grids for H and He will be reduced by one unit

Total number of grid points                  ...    72554
Total number of batches                      ...     1143
Average number of points per batch           ...       63
Average number of grid points per atom       ...     4268
Initializing property integral containers    ... done (  0.0 sec)

SHARK setup successfully completed in   1.0 seconds

Maximum memory used throughout the entire STARTUP-calculation: 32.7 MB
-------------------------------------------------------------------------------
                                 ORCA GUESS
                   Start orbitals & Density for SCF / CASSCF
-------------------------------------------------------------------------------

------------
SCF SETTINGS
------------
Hamiltonian:
 Density Functional     Method          .... DFT(GTOs)
  Functional kind                       .... Exchange
  Functional name                       .... Re-regularized SCAN exchange by Furness et al
  Functional family                     .... MGGA
  Functional refs                              
    [ 0] J. W. Furness, A. D. Kaplan, J. Ning, J. P. Perdew, and J. Sun.,  J. Phys. Chem. Lett. 11, 8208-8215 (2020), doi: 10.1021/acs.jpclett.0c02405
    [ 1] J. W. Furness, A. D. Kaplan, J. Ning, J. P. Perdew, and J. Sun.,  J. Phys. Chem. Lett. 11, 9248-9248 (2020), doi: 10.1021/acs.jpclett.0c03077
  Functional external parameters        .... 6
    Parameter  0 _c1        =  6.670000e-01 : c1 parameter        
    Parameter  1 _c2        =  8.000000e-01 : c2 parameter        
    Parameter  2 _d         =  1.240000e+00 : d parameter         
    Parameter  3 _k1        =  6.500000e-02 : k1 parameter        
    Parameter  4 _eta       =  1.000000e-03 : eta parameter       
    Parameter  5 _dp2       =  3.610000e-01 : dp2 parameter       
  Functional kind                       .... Correlation
  Functional name                       .... Re-regularized SCAN correlation by Furness et al
  Functional family                     .... MGGA
  Functional refs                              
    [ 0] J. W. Furness, A. D. Kaplan, J. Ning, J. P. Perdew, and J. Sun.,  J. Phys. Chem. Lett. 11, 8208-8215 (2020), doi: 10.1021/acs.jpclett.0c02405
    [ 1] J. W. Furness, A. D. Kaplan, J. Ning, J. P. Perdew, and J. Sun.,  J. Phys. Chem. Lett. 11, 9248-9248 (2020), doi: 10.1021/acs.jpclett.0c03077
  Functional external parameters        .... 1
    Parameter  0 _eta       =  1.000000e-03 : Regularization parameter
 Gradients option       PostSCFGGA      .... off
 RI-approximation to the Coulomb term is turned on
   Number of AuxJ basis functions       .... 417


General Settings:
 Integral files         IntName         .... sp_gas
 Hartree-Fock type      HFTyp           .... RHF
 Total Charge           Charge          ....    0
 Multiplicity           Mult            ....    1
 Number of Electrons    NEL             ....   58
 Basis Dimension        Dim             ....  177
 Nuclear Repulsion      ENuc            ....    294.4313257321 Eh

Convergence Acceleration:
 AO-DIIS                CNVDIIS         .... on
   Start iteration      DIISMaxIt       ....    12
   Startup error        DIISStart       ....  0.200000
   # of expansion vecs  DIISMaxEq       ....     5
   Bias factor          DIISBfac        ....   1.050
   Max. coefficient     DIISMaxC        ....  10.000
 MO-DIIS                CNVKDIIS        .... off
 Trust-Rad. Augm. Hess. CNVTRAH         .... auto
   Auto Start mean grad. ratio tolernc. ....  1.125000
   Auto Start start iteration           ....     1
   Auto Start num. interpolation iter.  ....    10
   Max. Number of Micro iterations      ....    24
   Max. Number of Macro iterations      .... Maxiter - #DIIS iter
   Number of Davidson start vectors     ....     2
   Converg. threshold    (grad. norm)   ....   3.330e-04
   Grad. Scal. Fac. for Micro threshold ....   0.100
   Minimum threshold for Micro iter.    ....   1.000e-02
   NR start threshold (gradient norm)   ....   1.000e-04
   Initial trust radius                 ....   0.400
   Minimum AH scaling param. (alpha)    ....   1.000
   Maximum AH scaling param. (alpha)    .... 1000.000
   Quad. conv. algorithm                .... NR
   White noise on init. David. guess    .... on
   Maximum white noise                  ....   0.010
   Pseudo random numbers                .... off
   Inactive MOs                         .... canonical
   Orbital update algorithm             .... Taylor
   Preconditioner                       .... Diag
   Full preconditioner red. dimension   ....   250
   COSX micro iterations for RIJONX calc.... off
 SOSCF                  CNVSOSCF        .... on
   Start iteration      SOSCFMaxIt      ....   150
   Startup grad/error   SOSCFStart      ....  0.003300
   Hessian update       SOSCFHessUp     .... L-BFGS
 Level Shifting         CNVShift        .... on
   Level shift para.    LevelShift      ....    0.2500
   Turn off err/grad.   ShiftErr        ....    0.0010
 Zerner damping         CNVZerner       .... off
 Static damping         CNVDamp         .... on
   Fraction old density DampFac         ....    0.7000
   Max. Damping (<1)    DampMax         ....    0.9800
   Min. Damping (>=0)   DampMin         ....    0.0000
   Turn off err/grad.   DampErr         ....    0.1000

SCF Procedure:
 Maximum # iterations   MaxIter         ....   125
 SCF integral mode      SCFMode         .... Direct
   Integral package                     .... SHARK and LIBINT hybrid scheme
 Reset frequency        DirectResetFreq ....    20
 Integral Threshold     Thresh          ....  1.000e-10 Eh
 Primitive CutOff       TCut            ....  1.000e-11 Eh

Convergence Tolerance:
 Convergence Check Mode ConvCheckMode   .... Total+1el-Energy
 Convergence forced     ConvForced      .... 0
 Energy Change          TolE            ....  1.000e-06 Eh
 1-El. energy change                    ....  1.000e-03 Eh
 Orbital Gradient       TolG            ....  3.330e-04
 Orbital Rotation angle TolX            ....  3.330e-04
 DIIS Error             TolErr          ....  1.000e-06

---------------------
INITIAL GUESS: MOREAD
---------------------
Guess MOs are being read from file: sp_gas.ges
Input Geometry matches current geometry (good)
Atom 0: N(Shells)= 9 and 6 - projection required
Input basis set needs projection
NBasis(read)= 110
NBasis(calc)= 177
Basis set overlap was calculated
Using GuessMode=FMatrix for the initial guess
C*T matrix was formed
Effective Fockian was calculated
Effective Fockian was diagonalized
Initial density was built
                      ------------------
                      INITIAL GUESS DONE (   0.0 sec)
                      ------------------
             **** ENERGY FILE WAS UPDATED (sp_gas.en.tmp) ****
Finished Guess after   0.2 sec
Maximum memory used throughout the entire GUESS-calculation: 12.0 MB

-------------------------------------------------------------------------------------------
                                      ORCA LEAN-SCF
                              memory conserving SCF solver
-------------------------------------------------------------------------------------------

----------------------------------------D-I-I-S--------------------------------------------
Iteration    Energy (Eh)           Delta-E    RMSDP     MaxDP     DIISErr   Damp  Time(sec)
-------------------------------------------------------------------------------------------
               ***  Starting incremental Fock matrix formation  ***
    1    -657.1414160288660469     0.00e+00  4.13e-03  1.23e-01  5.39e-01  0.700   2.0
    2    -657.1797738900251034    -3.84e-02  3.31e-03  8.45e-02  3.77e-01  0.700   1.9
    3    -657.2069581939748559    -2.72e-02  2.42e-03  6.18e-02  2.64e-01  0.700   1.8
                               ***Turning on AO-DIIS***
    4    -657.2260528773371107    -1.91e-02  1.75e-03  4.43e-02  1.85e-01  0.700   1.9
    5    -657.2394502877806417    -1.34e-02  1.24e-03  3.12e-02  1.29e-01  0.700   1.9
    6    -657.2488455227569375    -9.40e-03  8.78e-04  2.20e-02  9.06e-02  0.700   1.8
    7    -657.2554312851173108    -6.59e-03  2.06e-03  5.14e-02  6.34e-02  0.000   1.8
                              *** Initializing SOSCF ***
---------------------------------------S-O-S-C-F--------------------------------------
Iteration    Energy (Eh)           Delta-E    RMSDP     MaxDP     MaxGrad    Time(sec)
--------------------------------------------------------------------------------------
    8    -657.2708280077558811    -1.54e-02  1.24e-05  3.95e-04  1.19e-04     1.9
               *** Restarting incremental Fock matrix formation ***
    9    -657.2708281131253898    -1.05e-07  7.00e-06  2.42e-04  1.42e-05     2.0
                  *** Gradient check signals convergence ***

               *****************************************************
               *                     SUCCESS                       *
               *           SCF CONVERGED AFTER   9 CYCLES          *
               *****************************************************

             **** ENERGY FILE WAS UPDATED (sp_gas.en.tmp) ****

----------------
TOTAL SCF ENERGY
----------------

Total Energy       :       -657.27082811312539 Eh          -17885.24850 eV

Components:
Nuclear Repulsion  :        294.43132573213813 Eh            8011.88369 eV
Electronic Energy  :       -951.70215384526352 Eh          -25897.13219 eV
One Electron Energy:      -1483.72255828210427 Eh          -40374.14339 eV
Two Electron Energy:        532.02040443684075 Eh           14477.01120 eV

Virial components:
Potential Energy   :      -1312.54665161673802 Eh          -35716.21017 eV
Kinetic Energy     :        655.27582350361263 Eh           17830.96167 eV
Virial Ratio       :          2.00304452650007

DFT components:
N(Alpha)           :       29.000026559462 electrons
N(Beta)            :       29.000026559462 electrons
N(Total)           :       58.000053118924 electrons
E(X)               :      -57.488504654455 Eh       
E(C)               :       -1.922252713997 Eh       
E(XC)              :      -59.410757368452 Eh       

---------------
SCF CONVERGENCE
---------------

  Last Energy change         ...    1.0537e-07  Tolerance :   1.0000e-06
  Last MAX-Density change    ...    2.4154e-04  Tolerance :   1.0000e-05
  Last RMS-Density change    ...    6.9987e-06  Tolerance :   1.0000e-06
  Last DIIS Error            ...    1.1940e-04  Tolerance :   1.0000e-06
  Last Orbital Gradient      ...    1.4235e-05  Tolerance :   3.3300e-04
  Last Orbital Rotation      ...    2.1167e-05  Tolerance :   3.3300e-04


----------------
ORBITAL ENERGIES
----------------

  NO   OCC          E(Eh)            E(eV) 
   0   2.0000    -101.195723     -2753.6756 
   1   2.0000     -10.090243      -274.5695 
   2   2.0000     -10.040053      -273.2037 
   3   2.0000     -10.036593      -273.1096 
   4   2.0000     -10.033462      -273.0244 
   5   2.0000     -10.024361      -272.7767 
   6   2.0000      -9.351754      -254.4742 
   7   2.0000      -7.097897      -193.1436 
   8   2.0000      -7.087848      -192.8702 
   9   2.0000      -7.087814      -192.8692 
  10   2.0000      -0.820187       -22.3184 
  11   2.0000      -0.771495       -20.9934 
  12   2.0000      -0.709982       -19.3196 
  13   2.0000      -0.645078       -17.5535 
  14   2.0000      -0.581619       -15.8267 
  15   2.0000      -0.545709       -14.8495 
  16   2.0000      -0.460372       -12.5274 
  17   2.0000      -0.434119       -11.8130 
  18   2.0000      -0.420711       -11.4481 
  19   2.0000      -0.396938       -10.8012 
  20   2.0000      -0.385556       -10.4915 
  21   2.0000      -0.359785        -9.7902 
  22   2.0000      -0.354049        -9.6342 
  23   2.0000      -0.338009        -9.1977 
  24   2.0000      -0.308933        -8.4065 
  25   2.0000      -0.304248        -8.2790 
  26   2.0000      -0.295764        -8.0481 
  27   2.0000      -0.261952        -7.1281 
  28   2.0000      -0.260785        -7.0963 
  29   0.0000       0.010063         0.2738 
  30   0.0000       0.084905         2.3104 
  31   0.0000       0.091884         2.5003 
  32   0.0000       0.106599         2.9007 
  33   0.0000       0.117718         3.2033 
  34   0.0000       0.125662         3.4194 
  35   0.0000       0.134899         3.6708 
  36   0.0000       0.143803         3.9131 
  37   0.0000       0.156277         4.2525 
  38   0.0000       0.163330         4.4444 
  39   0.0000       0.167442         4.5563 
*Only the first 10 virtual orbitals were printed.

                    ********************************
                    * MULLIKEN POPULATION ANALYSIS *
                    ********************************

-----------------------
MULLIKEN ATOMIC CHARGES
-----------------------
   0 C :   -0.503190
   1 C :   -0.252587
   2 C :   -0.256950
   3 C :   -0.281838
   4 C :   -0.186116
   5 Cl:   -0.202948
   6 H :    0.149946
   7 H :    0.153800
   8 H :    0.150664
   9 H :    0.140977
  10 H :    0.148167
  11 H :    0.150732
  12 H :    0.141962
  13 H :    0.159538
  14 H :    0.157993
  15 H :    0.165798
  16 H :    0.164052
Sum of atomic charges:   -0.0000000

--------------------------------
MULLIKEN REDUCED ORBITAL CHARGES
--------------------------------
  0 C s       :     3.337357  s :     3.337357
      pz      :     1.071331  p :     3.138661
      px      :     1.115390
      py      :     0.951940
      dz2     :     0.006672  d :     0.027173
      dxz     :     0.003247
      dyz     :     0.004609
      dx2y2   :     0.005619
      dxy     :     0.007025

  1 C s       :     3.238237  s :     3.238237
      pz      :     1.059245  p :     2.977005
      px      :     1.007304
      py      :     0.910455
      dz2     :     0.009141  d :     0.037345
      dxz     :     0.004949
      dyz     :     0.005288
      dx2y2   :     0.009285
      dxy     :     0.008681

  2 C s       :     3.203963  s :     3.203963
      pz      :     1.021003  p :     3.016811
      px      :     0.918457
      py      :     1.077351
      dz2     :     0.010075  d :     0.036175
      dxz     :     0.006674
      dyz     :     0.002172
      dx2y2   :     0.009966
      dxy     :     0.007288

  3 C s       :     3.214483  s :     3.214483
      pz      :     1.001297  p :     3.031516
      px      :     0.979554
      py      :     1.050665
      dz2     :     0.007567  d :     0.035839
      dxz     :     0.007190
      dyz     :     0.005753
      dx2y2   :     0.005886
      dxy     :     0.009443

  4 C s       :     3.260821  s :     3.260821
      pz      :     0.976598  p :     2.883921
      px      :     0.843293
      py      :     1.064030
      dz2     :     0.008359  d :     0.041375
      dxz     :     0.008789
      dyz     :     0.006482
      dx2y2   :     0.008006
      dxy     :     0.009738

  5 Cls       :     5.948776  s :     5.948776
      pz      :     3.806650  p :    11.209835
      px      :     3.468693
      py      :     3.934491
      dz2     :     0.007240  d :     0.044337
      dxz     :     0.013169
      dyz     :     0.003883
      dx2y2   :     0.010130
      dxy     :     0.009915

  6 H s       :     0.831764  s :     0.831764
      pz      :     0.004239  p :     0.018289
      px      :     0.008810
      py      :     0.005241

  7 H s       :     0.827840  s :     0.827840
      pz      :     0.005595  p :     0.018361
      px      :     0.007840
      py      :     0.004925

  8 H s       :     0.831136  s :     0.831136
      pz      :     0.010512  p :     0.018200
      px      :     0.003831
      py      :     0.003857

  9 H s       :     0.841189  s :     0.841189
      pz      :     0.004854  p :     0.017834
      px      :     0.008661
      py      :     0.004319

 10 H s       :     0.834012  s :     0.834012
      pz      :     0.010707  p :     0.017821
      px      :     0.003505
      py      :     0.003610

 11 H s       :     0.831274  s :     0.831274
      pz      :     0.003700  p :     0.017995
      px      :     0.003735
      py      :     0.010560

 12 H s       :     0.840018  s :     0.840018
      pz      :     0.010768  p :     0.018020
      px      :     0.003555
      py      :     0.003697

 13 H s       :     0.822555  s :     0.822555
      pz      :     0.009831  p :     0.017907
      px      :     0.003508
      py      :     0.004568

 14 H s       :     0.824091  s :     0.824091
      pz      :     0.003642  p :     0.017916
      px      :     0.005609
      py      :     0.008665

 15 H s       :     0.815934  s :     0.815934
      pz      :     0.003513  p :     0.018268
      px      :     0.005037
      py      :     0.009718

 16 H s       :     0.817968  s :     0.817968
      pz      :     0.009862  p :     0.017980
      px      :     0.003446
      py      :     0.004672


------------------------
MULLIKEN OVERLAP CHARGES
------------------------
B(  0-C ,  1-C ) :   0.3287 B(  0-C ,  2-C ) :  -0.2120 B(  0-C ,  3-C ) :   0.0780 
B(  0-C ,  6-H ) :   0.7794 B(  0-C ,  7-H ) :   0.8435 B(  0-C ,  8-H ) :   0.8377 
B(  0-C ,  9-H ) :  -0.0576 B(  0-C , 10-H ) :  -0.0914 B(  1-C ,  2-C ) :   0.4106 
B(  1-C ,  3-C ) :  -0.1731 B(  1-C ,  6-H ) :  -0.0620 B(  1-C ,  7-H ) :  -0.0871 
B(  1-C ,  8-H ) :  -0.0975 B(  1-C ,  9-H ) :   0.8273 B(  1-C , 10-H ) :   0.9010 
B(  1-C , 11-H ) :  -0.0757 B(  2-C ,  3-C ) :   0.2106 B(  2-C ,  4-C ) :  -0.0571 
B(  2-C ,  9-H ) :  -0.1008 B(  2-C , 10-H ) :  -0.0941 B(  2-C , 11-H ) :   0.7926 
B(  2-C , 12-H ) :   0.8398 B(  2-C , 13-H ) :  -0.1471 B(  3-C ,  4-C ) :   0.3844 
B(  3-C ,  5-Cl) :  -0.1052 B(  3-C , 12-H ) :  -0.1727 B(  3-C , 13-H ) :   0.8248 
B(  3-C , 14-H ) :   0.8047 B(  3-C , 15-H ) :  -0.0940 B(  3-C , 16-H ) :  -0.1058 
B(  4-C ,  5-Cl) :   0.4510 B(  4-C , 14-H ) :  -0.0595 B(  4-C , 15-H ) :   0.8315 
B(  4-C , 16-H ) :   0.8812 B(  5-Cl, 15-H ) :  -0.0810 B(  5-Cl, 16-H ) :  -0.0816 
B(  7-H ,  8-H ) :  -0.0531 B( 15-H , 16-H ) :  -0.0637 


                     *******************************
                     * LOEWDIN POPULATION ANALYSIS *
                     *******************************

----------------------
LOEWDIN ATOMIC CHARGES
----------------------
   0 C :   -0.429144
   1 C :   -0.314336
   2 C :   -0.309029
   3 C :   -0.330654
   4 C :   -0.324113
   5 Cl:   -0.006034
   6 H :    0.152842
   7 H :    0.149842
   8 H :    0.149738
   9 H :    0.152713
  10 H :    0.152369
  11 H :    0.159682
  12 H :    0.155902
  13 H :    0.162714
  14 H :    0.162417
  15 H :    0.158849
  16 H :    0.156242

-------------------------------
LOEWDIN REDUCED ORBITAL CHARGES
-------------------------------
  0 C s       :     2.973343  s :     2.973343
      pz      :     1.152138  p :     3.392308
      px      :     1.158871
      py      :     1.081300
      dz2     :     0.016682  d :     0.063493
      dxz     :     0.008348
      dyz     :     0.009515
      dx2y2   :     0.013449
      dxy     :     0.015499

  1 C s       :     2.939550  s :     2.939550
      pz      :     1.134031  p :     3.294119
      px      :     1.094350
      py      :     1.065737
      dz2     :     0.021323  d :     0.080668
      dxz     :     0.010875
      dyz     :     0.010184
      dx2y2   :     0.020089
      dxy     :     0.018197

  2 C s       :     2.936943  s :     2.936943
      pz      :     1.119567  p :     3.293986
      px      :     1.051009
      py      :     1.123411
      dz2     :     0.023142  d :     0.078099
      dxz     :     0.013952
      dyz     :     0.004342
      dx2y2   :     0.021647
      dxy     :     0.015016

  3 C s       :     2.945352  s :     2.945352
      pz      :     1.112078  p :     3.307118
      px      :     1.077107
      py      :     1.117933
      dz2     :     0.016504  d :     0.078185
      dxz     :     0.015515
      dyz     :     0.013293
      dx2y2   :     0.012020
      dxy     :     0.020854

  4 C s       :     2.996571  s :     2.996571
      pz      :     1.099329  p :     3.237126
      px      :     0.997021
      py      :     1.140776
      dz2     :     0.018115  d :     0.090416
      dxz     :     0.019312
      dyz     :     0.014657
      dx2y2   :     0.016125
      dxy     :     0.022206

  5 Cls       :     5.699083  s :     5.699083
      pz      :     3.805202  p :    11.208435
      px      :     3.486792
      py      :     3.916440
      dz2     :     0.014826  d :     0.098517
      dxz     :     0.030599
      dyz     :     0.008080
      dx2y2   :     0.023349
      dxy     :     0.021663

  6 H s       :     0.803658  s :     0.803658
      pz      :     0.009458  p :     0.043500
      px      :     0.021772
      py      :     0.012270

  7 H s       :     0.806125  s :     0.806125
      pz      :     0.013271  p :     0.044032
      px      :     0.019120
      py      :     0.011641

  8 H s       :     0.806874  s :     0.806874
      pz      :     0.026283  p :     0.043388
      px      :     0.008471
      py      :     0.008635

  9 H s       :     0.804276  s :     0.804276
      pz      :     0.011543  p :     0.043012
      px      :     0.021202
      py      :     0.010267

 10 H s       :     0.804628  s :     0.804628
      pz      :     0.026528  p :     0.043003
      px      :     0.008032
      py      :     0.008443

 11 H s       :     0.796651  s :     0.796651
      pz      :     0.008568  p :     0.043667
      px      :     0.008954
      py      :     0.026144

 12 H s       :     0.800393  s :     0.800393
      pz      :     0.026862  p :     0.043706
      px      :     0.008151
      py      :     0.008692

 13 H s       :     0.793434  s :     0.793434
      pz      :     0.024798  p :     0.043852
      px      :     0.008032
      py      :     0.011022

 14 H s       :     0.793806  s :     0.793806
      pz      :     0.008496  p :     0.043777
      px      :     0.013587
      py      :     0.021693

 15 H s       :     0.795749  s :     0.795749
      pz      :     0.008272  p :     0.045402
      px      :     0.012230
      py      :     0.024899

 16 H s       :     0.799358  s :     0.799358
      pz      :     0.024916  p :     0.044399
      px      :     0.007883
      py      :     0.011600


---------------------------------
LOEWDIN BOND ORDERS (THRESH 0.050000)
---------------------------------
B(  0-C ,  1-C ) :   1.1435 B(  0-C ,  2-C ) :   0.0628 B(  0-C ,  6-H ) :   0.9276 
B(  0-C ,  7-H ) :   0.9257 B(  0-C ,  8-H ) :   0.9291 B(  1-C ,  2-C ) :   1.1163 
B(  1-C ,  3-C ) :   0.0652 B(  1-C ,  9-H ) :   0.8948 B(  1-C , 10-H ) :   0.8957 
B(  2-C ,  3-C ) :   1.0829 B(  2-C ,  4-C ) :   0.0798 B(  2-C , 11-H ) :   0.8901 
B(  2-C , 12-H ) :   0.8877 B(  3-C ,  4-C ) :   1.1193 B(  3-C ,  5-Cl) :   0.1284 
B(  3-C , 13-H ) :   0.8888 B(  3-C , 14-H ) :   0.8938 B(  4-C ,  5-Cl) :   1.3528 
B(  4-C , 15-H ) :   0.8924 B(  4-C , 16-H ) :   0.8965 

------------------------------------------
LOEWDIN REDUCED ORBITAL POPULATIONS PER MO
-------------------------------------------
THRESHOLD FOR PRINTING IS 0.1%%
                      0         1         2         3         4         5   
                 -101.19572 -10.09024 -10.04005 -10.03659 -10.03346 -10.02436
                   2.00000   2.00000   2.00000   2.00000   2.00000   2.00000
                  --------  --------  --------  --------  --------  --------
 0 C  s               0.0       0.0       0.0       0.0       0.0      99.7
 1 C  s               0.0       0.0       0.0       0.1      99.6       0.0
 2 C  s               0.0       0.0       0.0      99.6       0.1       0.0
 3 C  s               0.0       0.0      99.7       0.0       0.0       0.0
 4 C  s               0.0      99.7       0.0       0.0       0.0       0.0
 5 Cl s             100.0       0.0       0.0       0.0       0.0       0.0

                      6         7         8         9        10        11   
                  -9.35175  -7.09790  -7.08785  -7.08781  -0.82019  -0.77149
                   2.00000   2.00000   2.00000   2.00000   2.00000   2.00000
                  --------  --------  --------  --------  --------  --------
 0 C  s               0.0       0.0       0.0       0.0       0.4       9.2
 0 C  py              0.0       0.0       0.0       0.0       0.2       2.3
 1 C  s               0.0       0.0       0.0       0.0       1.2      19.3
 1 C  pz              0.0       0.0       0.0       0.0       0.0       0.3
 1 C  px              0.0       0.0       0.0       0.0       0.4       1.3
 2 C  s               0.0       0.0       0.0       0.0       3.6      18.5
 2 C  pz              0.0       0.0       0.0       0.0       0.2       0.5
 2 C  px              0.0       0.0       0.0       0.0       0.8       0.3
 2 C  py              0.0       0.0       0.0       0.0       0.3       0.9
 3 C  s               0.0       0.0       0.0       0.0      10.3       6.2
 3 C  pz              0.0       0.0       0.0       0.0       0.8       0.3
 3 C  px              0.0       0.0       0.0       0.0       0.7       3.9
 3 C  py              0.0       0.0       0.0       0.0       1.2       0.2
 4 C  s               0.0       0.0       0.0       0.0      23.9       0.2
 4 C  pz              0.0       0.0       0.0       0.0       2.2       0.0
 4 C  px              0.1       0.0       0.0       0.0       2.2       4.8
 4 C  py              0.0       0.0       0.0       0.0       0.0       1.1
 5 Cl s              99.8       0.0       0.0       0.0      38.0      13.1
 5 Cl pz              0.0      23.4      37.8      38.8       0.5       0.0
 5 Cl px              0.0      72.4      24.7       2.9       1.8       0.1
 5 Cl py              0.0       4.2      37.5      58.3       0.1       0.0
 5 Cl dxz             0.0       0.0       0.0       0.0       0.3       0.0
 5 Cl dx2y2           0.0       0.0       0.0       0.0       0.2       0.0
 6 H  s               0.0       0.0       0.0       0.0       0.0       1.2
 7 H  s               0.0       0.0       0.0       0.0       0.0       1.3
 8 H  s               0.0       0.0       0.0       0.0       0.0       1.2
 8 H  pz              0.0       0.0       0.0       0.0       0.0       0.1
 9 H  s               0.0       0.0       0.0       0.0       0.1       2.6
 9 H  px              0.0       0.0       0.0       0.0       0.0       0.2
10 H  s               0.0       0.0       0.0       0.0       0.1       2.6
10 H  pz              0.0       0.0       0.0       0.0       0.0       0.2
11 H  s               0.0       0.0       0.0       0.0       0.4       2.5
11 H  py              0.0       0.0       0.0       0.0       0.0       0.2
12 H  s               0.0       0.0       0.0       0.0       0.5       2.5
12 H  pz              0.0       0.0       0.0       0.0       0.0       0.2
13 H  s               0.0       0.0       0.0       0.0       1.1       0.9
14 H  s               0.0       0.0       0.0       0.0       1.2       0.8
15 H  s               0.0       0.0       0.0       0.0       2.9       0.0
15 H  py              0.0       0.0       0.0       0.0       0.2       0.0
16 H  s               0.0       0.0       0.0       0.0       2.9       0.0
16 H  pz              0.0       0.0       0.0       0.0       0.2       0.0

                     12        13        14        15        16        17   
                  -0.70998  -0.64508  -0.58162  -0.54571  -0.46037  -0.43412
                   2.00000   2.00000   2.00000   2.00000   2.00000   2.00000
                  --------  --------  --------  --------  --------  --------
 0 C  s              16.5      13.5       4.9       3.0       0.1       0.2
 0 C  pz              0.0       0.0       0.0       1.2       0.3       9.5
 0 C  px              0.1       0.0       0.0       0.6       6.2       0.1
 0 C  py              0.6       1.2       2.9       4.7       0.0       4.4
 1 C  s               9.5       1.1       5.5       8.8       0.1       0.2
 1 C  pz              0.0       0.1       0.0       4.1       0.7      18.0
 1 C  px              0.7       0.9       0.6       3.4       7.8       0.7
 1 C  py              3.3       8.9       2.6       0.2       0.1       0.5
 1 C  dx2y2           0.1       0.1       0.0       0.0       0.0       0.0
 2 C  s               1.6      12.6       0.0       8.4       0.1       0.2
 2 C  pz              0.0       0.0       0.5       7.3       1.8      11.0
 2 C  px              6.6       1.3       5.7       0.5       0.0       0.1
 2 C  py              0.4       0.9       0.2       1.4       4.9       9.9
 2 C  dxz             0.1       0.0       0.1       0.0       0.0       0.0
 3 C  s              14.9       1.0       8.4       4.2       0.1       0.3
 3 C  pz              0.3       0.0       3.4       6.3       2.6       0.7
 3 C  px              0.0       4.3       0.3       2.2       8.0       2.1
 3 C  py              0.1       2.2       2.5       0.1      11.8       4.5
 3 C  dxz             0.0       0.1       0.0       0.1       0.0       0.0
 4 C  s               2.9       9.1      11.4       0.3       0.0       0.1
 4 C  pz              0.0       0.4       6.2       3.5       2.7       4.3
 4 C  px              5.0       2.1       0.0       0.1       5.5       3.0
 4 C  py              2.3       0.1       1.9       0.9      16.8       1.4
 4 C  dxz             0.1       0.1       0.0       0.0       0.0       0.0
 5 Cl s              13.1      10.6       5.3       0.0       0.1       0.2
 5 Cl pz              0.1       0.5       1.8       0.2       0.5       2.1
 5 Cl px              0.5       1.7       2.4       0.0       0.1       0.2
 5 Cl py              0.1       0.1       0.0       0.1       2.2       0.0
 5 Cl dxz             0.0       0.2       0.4       0.0       0.0       0.1
 5 Cl dx2y2           0.0       0.1       0.2       0.0       0.1       0.0
 5 Cl dxy             0.0       0.0       0.0       0.0       0.2       0.0
 6 H  s               3.1       3.7       1.9       1.1       1.4       1.4
 6 H  px              0.2       0.2       0.1       0.1       0.0       0.1
 7 H  s               2.8       3.8       2.0       1.7       1.2       3.1
 7 H  px              0.1       0.2       0.1       0.1       0.0       0.1
 8 H  s               2.9       3.4       1.8       2.7       0.1       1.6
 8 H  pz              0.2       0.3       0.1       0.2       0.0       0.0
 9 H  s               1.8       0.3       2.7       4.0       2.6       2.4
 9 H  pz              0.0       0.0       0.0       0.1       0.0       0.0
 9 H  px              0.1       0.0       0.2       0.1       0.0       0.1
10 H  s               1.6       0.3       1.8       6.5       0.0       4.7
10 H  pz              0.1       0.0       0.1       0.4       0.0       0.1
11 H  s               0.3       4.0       0.0       3.7       0.8       5.4
11 H  py              0.0       0.3       0.0       0.2       0.0       0.2
12 H  s               0.3       2.7       0.1       7.4       0.2       3.6
12 H  pz              0.0       0.2       0.0       0.4       0.0       0.1
13 H  s               2.3       0.2       3.7       4.3       2.8       0.0
13 H  pz              0.2       0.0       0.2       0.2       0.1       0.0
14 H  s               2.9       0.2       4.1       2.2       5.7       0.2
14 H  px              0.1       0.0       0.1       0.0       0.0       0.0
14 H  py              0.2       0.0       0.2       0.1       0.2       0.0
15 H  s               0.5       3.0       5.7       0.8       6.4       0.3
15 H  px              0.0       0.0       0.1       0.0       0.0       0.0
15 H  py              0.1       0.2       0.3       0.0       0.1       0.0
16 H  s               0.6       2.5       6.1       0.8       4.6       1.8
16 H  pz              0.0       0.2       0.3       0.0       0.2       0.0
16 H  py              0.0       0.0       0.1       0.0       0.0       0.1

                     18        19        20        21        22        23   
                  -0.42071  -0.39694  -0.38556  -0.35978  -0.35405  -0.33801
                   2.00000   2.00000   2.00000   2.00000   2.00000   2.00000
                  --------  --------  --------  --------  --------  --------
 0 C  s               0.1       0.1       0.0       0.1       0.0       0.0
 0 C  pz              3.6       2.1      17.5       0.7       1.2      13.0
 0 C  px              2.4      15.1       0.0      14.7      10.0       0.2
 0 C  py              2.5       0.5       0.6       6.8       8.3       0.5
 0 C  dz2             0.0       0.0       0.1       0.1       0.0       0.2
 0 C  dyz             0.0       0.0       0.0       0.0       0.0       0.1
 0 C  dxy             0.0       0.0       0.0       0.1       0.2       0.0
 1 C  s               0.3       0.1       0.0       0.1       0.3       0.1
 1 C  pz              3.8       1.2       3.2       0.2       0.1       4.6
 1 C  px              3.2      12.8       0.1       0.4       0.4       0.5
 1 C  py              3.9       0.1       0.1      10.8       6.7       0.1
 1 C  dyz             0.0       0.0       0.1       0.0       0.0       0.2
 1 C  dxy             0.0       0.0       0.0       0.1       0.2       0.0
 2 C  s               0.1       0.0       0.3       0.5       0.3       0.1
 2 C  pz              0.0       1.0       7.4       0.2       3.1       7.8
 2 C  px              5.0       5.6       0.2       5.0       1.3       3.5
 2 C  py             10.3       1.7       0.1       2.8       0.9       0.1
 2 C  dz2             0.0       0.0       0.0       0.1       0.0       0.2
 2 C  dxy             0.0       0.1       0.0       0.0       0.1       0.0
 3 C  s               0.0       0.2       0.4       0.0       0.1       0.3
 3 C  pz              8.0       3.1       3.0       1.2       0.2      18.2
 3 C  px              1.5       0.9       4.2       7.1       3.1       0.3
 3 C  py              0.0       0.1       4.4       0.5      17.3       0.4
 3 C  dz2             0.0       0.0       0.0       0.0       0.1       0.3
 3 C  dxz             0.0       0.0       0.0       0.1       0.1       0.0
 3 C  dyz             0.0       0.0       0.0       0.1       0.0       0.1
 3 C  dx2y2           0.1       0.1       0.0       0.1       0.1       0.0
 3 C  dxy             0.0       0.0       0.1       0.0       0.2       0.2
 4 C  s               0.2       0.1       0.3       0.2       0.2       0.4
 4 C  pz              8.3       0.0      16.5       0.1       0.1       6.8
 4 C  px              0.7      13.6       0.1       8.1       0.2       0.2
 4 C  py              8.5       3.7       3.0       2.4       8.5       0.1
 4 C  dz2             0.0       0.1       0.0       0.0       0.1       0.1
 4 C  dx2y2           0.0       0.1       0.0       0.1       0.1       0.0
 5 Cl s               1.9       1.5       0.5       0.7       0.0       0.0
 5 Cl pz              0.4       4.3       0.4       8.9       0.0       0.1
 5 Cl px             12.6       5.9       8.2       8.5       0.9       4.7
 5 Cl py              0.0       5.0       2.8       0.0       3.0       0.1
 5 Cl dz2             0.1       0.0       0.2       0.0       0.0       0.1
 5 Cl dxz             0.1       0.1       0.0       0.1       0.0       0.0
 5 Cl dx2y2           0.3       0.0       0.1       0.0       0.0       0.0
 5 Cl dxy             0.0       0.2       0.2       0.0       0.1       0.0
 6 H  s               1.2       6.6       0.9       2.8       7.1       0.5
 6 H  py              0.0       0.1       0.0       0.2       0.0       0.0
 7 H  s               0.4       1.4       2.9       6.8       1.8       3.9
 7 H  pz              0.0       0.1       0.0       0.2       0.0       0.0
 7 H  px              0.0       0.0       0.1       0.0       0.0       0.1
 7 H  py              0.1       0.0       0.0       0.0       0.1       0.0
 8 H  s               1.8       1.6       6.6       1.7       0.6       6.9
 8 H  pz              0.0       0.1       0.1       0.1       0.0       0.1
 8 H  px              0.0       0.1       0.0       0.1       0.1       0.0
 9 H  s               2.4       2.1       0.7       1.4       0.0       1.6
10 H  s               1.3       0.5       1.0       0.6       0.0       2.6
11 H  s               5.8       0.1       0.1       1.5       0.0       0.2
11 H  py              0.2       0.0       0.0       0.0       0.0       0.0
12 H  s               0.1       0.4       3.9       1.0       0.6       4.1
12 H  pz              0.0       0.0       0.1       0.0       0.0       0.0
13 H  s               1.6       0.4       1.2       0.8       2.7      11.1
13 H  pz              0.0       0.0       0.0       0.0       0.1       0.1
13 H  py              0.0       0.0       0.1       0.0       0.0       0.1
14 H  s               0.3       0.2       1.0       0.3      11.5       0.2
14 H  pz              0.0       0.0       0.0       0.0       0.0       0.2
14 H  px              0.0       0.0       0.1       0.0       0.1       0.0
15 H  s               1.8       4.8       2.2       0.4       4.2       0.0
15 H  pz              0.1       0.0       0.1       0.0       0.0       0.1
15 H  px              0.1       0.0       0.0       0.1       0.0       0.0
15 H  py              0.0       0.2       0.0       0.0       0.0       0.0
16 H  s               4.1       1.1       3.7       0.0       2.1       3.6
16 H  py              0.0       0.0       0.1       0.0       0.0       0.0

                     24        25        26        27        28        29   
                  -0.30893  -0.30425  -0.29576  -0.26195  -0.26078   0.01006
                   2.00000   2.00000   2.00000   2.00000   2.00000   0.00000
                  --------  --------  --------  --------  --------  --------
 0 C  s               0.6       0.0       0.1       0.0       0.0       0.3
 0 C  pz              3.4       4.8       0.0       0.0       0.0       0.1
 0 C  px              1.4       0.7       6.1       0.2       0.0       0.3
 0 C  py             10.6       4.4       3.2       0.0       0.2       0.2
 0 C  dz2             0.2       0.1       0.0       0.0       0.0       0.0
 0 C  dyz             0.0       0.2       0.0       0.0       0.0       0.0
 0 C  dxy             0.0       0.0       0.4       0.0       0.0       0.0
 1 C  s               0.4       0.1       0.3       0.0       0.0       0.1
 1 C  pz              8.5      11.8       0.0       0.0       0.1       0.0
 1 C  px              4.3       1.3      15.0       0.0       0.6       0.1
 1 C  py              6.9       5.0       3.9       0.0       0.1       0.1
 1 C  dz2             0.5       0.3       0.0       0.0       0.0       0.0
 1 C  dxz             0.0       0.1       0.2       0.0       0.0       0.0
 1 C  dyz             0.0       0.1       0.0       0.0       0.0       0.0
 1 C  dx2y2           0.3       0.3       0.0       0.0       0.1       0.0
 1 C  dxy             0.1       0.0       0.3       0.0       0.0       0.0
 2 C  s               0.1       0.4       0.2       0.0       0.1       2.1
 2 C  pz              7.8       7.1       0.0       0.0       0.2       0.2
 2 C  px              4.1       1.0       9.4       0.0       2.0       0.9
 2 C  py              4.6       5.3      10.4       0.1       0.8       0.0
 2 C  dz2             0.5       0.3       0.0       0.0       0.0       0.1
 2 C  dxz             0.0       0.1       0.1       0.0       0.0       0.0
 2 C  dx2y2           0.2       0.4       0.1       0.0       0.0       0.0
 2 C  dxy             0.0       0.0       0.3       0.0       0.0       0.1
 3 C  s               0.1       0.7       0.1       0.0       0.5       0.5
 3 C  pz              0.2       6.8       0.0       0.0       0.5       0.2
 3 C  px              0.8       3.1       7.0       0.1       4.2       0.0
 3 C  py              0.7       1.2       5.8       0.3       2.6       0.2
 3 C  dz2             0.1       0.1       0.1       0.0       0.0       0.3
 3 C  dyz             0.0       0.0       0.1       0.0       0.0       0.1
 3 C  dx2y2           0.0       0.1       0.0       0.0       0.0       0.2
 3 C  dxy             0.1       0.0       0.3       0.0       0.0       0.4
 4 C  s               0.6       0.1       0.0       0.0       0.1       7.9
 4 C  pz              0.2       0.6       0.1       0.7       2.3       7.0
 4 C  px              1.8       0.3       0.3       0.9       0.8      21.6
 4 C  py              0.6       0.0       1.0       3.3       1.3       1.4
 4 C  dz2             0.0       0.1       0.0       0.3       0.1       0.0
 4 C  dxz             0.0       0.0       0.0       0.0       0.2       0.6
 4 C  dyz             0.0       0.0       0.0       0.2       0.1       0.0
 4 C  dx2y2           0.0       0.0       0.2       0.0       0.0       0.5
 4 C  dxy             0.0       0.1       0.0       0.3       0.2       0.1
 5 Cl s               0.0       0.0       0.0       0.0       0.0       5.0
 5 Cl pz              5.4       4.5       2.2      13.1      45.2       6.2
 5 Cl px              1.1       0.9       0.0      15.2       9.4      19.8
 5 Cl py              0.6       0.6       1.9      55.3      23.9       1.2
 5 Cl dz2             0.0       0.0       0.0       0.0       0.1       0.3
 5 Cl dxz             0.0       0.0       0.0       0.0       0.0       8.0
 5 Cl dyz             0.0       0.0       0.0       0.0       0.0       0.5
 5 Cl dx2y2           0.0       0.0       0.0       0.0       0.0       5.5
 5 Cl dxy             0.0       0.0       0.0       0.0       0.1       1.2
 6 H  s               0.2       0.4       6.5       0.1       0.0       0.3
 6 H  py              0.1       0.0       0.0       0.0       0.0       0.0
 7 H  s               0.5       4.8       1.6       0.1       0.1       0.1
 8 H  s               4.0       3.3       0.1       0.0       0.0       0.1
 9 H  s               1.2       8.6       4.7       0.0       0.8       0.0
 9 H  pz              0.2       0.0       0.0       0.0       0.0       0.0
 9 H  px              0.0       0.1       0.0       0.0       0.0       0.0
 9 H  py              0.0       0.0       0.1       0.0       0.0       0.0
10 H  s               9.4       6.9       0.2       0.0       0.0       0.0
10 H  px              0.0       0.0       0.1       0.0       0.0       0.0
11 H  s               7.4       2.6       4.0       0.0       0.9       1.0
11 H  pz              0.0       0.1       0.0       0.0       0.0       0.0
11 H  px              0.0       0.0       0.1       0.0       0.0       0.1
11 H  py              0.1       0.0       0.0       0.0       0.0       0.1
12 H  s               8.0       4.4       0.2       0.0       0.0       0.4
12 H  pz              0.1       0.0       0.0       0.0       0.0       0.1
12 H  px              0.0       0.0       0.1       0.0       0.0       0.0
12 H  py              0.0       0.1       0.1       0.0       0.0       0.1
13 H  s               0.5       3.6       2.0       0.4       0.0       0.3
14 H  s               0.1       0.0       8.4       0.6       0.0       0.5
15 H  s               0.1       0.1       1.4       4.5       0.6       0.1
15 H  pz              0.0       0.0       0.0       0.0       0.0       0.3
15 H  px              0.0       0.0       0.0       0.0       0.0       1.0
16 H  s               0.1       0.8       0.1       3.9       1.1       0.1
16 H  pz              0.0       0.0       0.0       0.0       0.0       0.4
16 H  px              0.0       0.0       0.0       0.0       0.0       0.8

                     30        31        32        33        34        35   
                   0.08490   0.09188   0.10660   0.11772   0.12566   0.13490
                   0.00000   0.00000   0.00000   0.00000   0.00000   0.00000
                  --------  --------  --------  --------  --------  --------
 0 C  s              16.1       0.5       2.3       7.2       3.2       3.0
 0 C  pz              0.4       0.5       3.1       2.9       3.6       1.8
 0 C  px              0.7       2.0       1.4       1.6       1.8       2.7
 0 C  py              1.5       5.4       0.5       2.4       7.3       1.6
 0 C  dz2             0.0       0.1       0.0       0.1       0.0       0.3
 0 C  dxz             0.0       0.0       0.5       0.1       0.0       0.0
 0 C  dyz             0.0       0.1       0.0       0.0       0.0       0.2
 0 C  dx2y2           0.1       0.3       0.2       0.0       0.3       0.1
 0 C  dxy             0.0       0.1       0.0       0.1       0.3       0.1
 1 C  s               3.8      12.2       2.2       1.6       4.3       0.4
 1 C  pz              0.4       0.2       1.7       3.0       1.9       6.5
 1 C  px              1.2       1.2      12.0       0.4       4.6       4.3
 1 C  py              1.2       2.5       0.9       3.3       2.9       1.0
 1 C  dz2             0.1       0.0       0.4       0.7       0.0       0.0
 1 C  dxz             0.1       0.1       0.4       0.1       0.2       0.4
 1 C  dyz             0.0       0.0       0.0       0.1       0.0       0.4
 1 C  dx2y2           0.5       0.0       0.1       0.0       0.0       0.0
 1 C  dxy             0.0       0.1       0.1       0.1       0.4       0.2
 2 C  s               1.3       8.2       3.5       4.0       0.4       2.7
 2 C  pz              0.5       0.7       2.6       4.8       5.2      14.0
 2 C  px              0.7       3.4       2.3       2.9       1.1       5.0
 2 C  py              1.8       1.3       8.7       4.4       4.1       4.2
 2 C  dz2             0.0       0.3       0.1       0.4       1.2       0.1
 2 C  dxz             0.0       0.2       0.1       0.4       0.0       0.3
 2 C  dyz             0.0       0.2       0.4       0.0       0.1       0.8
 2 C  dx2y2           0.3       0.1       0.6       0.1       0.3       0.2
 2 C  dxy             0.0       0.2       0.6       0.0       0.4       0.0
 3 C  s               7.7       0.7       3.2       0.6       1.3      10.7
 3 C  pz              1.2       2.8       3.4       3.7       1.7       6.2
 3 C  px              0.2       7.9       2.1       1.1       2.0       1.5
 3 C  py              0.3       3.3       0.8       2.9       5.4       3.6
 3 C  dz2             0.1       0.0       0.4       0.5       0.0       0.1
 3 C  dxz             0.0       0.5       0.3       0.1       0.7       0.0
 3 C  dyz             0.2       1.1       0.3       0.0       0.1       0.1
 3 C  dx2y2           0.0       0.1       0.7       0.0       0.0       0.1
 3 C  dxy             0.2       0.0       0.0       0.0       1.5       0.3
 4 C  s              10.9       8.1       1.3       3.8       0.7       1.0
 4 C  pz              4.0       0.2       5.5      11.8       2.0       2.5
 4 C  px              2.7       5.2       1.4       0.1       4.4       1.2
 4 C  py              0.8       3.2       6.4       3.0       3.3       1.8
 4 C  dz2             0.0       0.0       0.0       0.5       0.0       0.0
 4 C  dxz             0.1       0.3       0.0       0.1       0.6       0.2
 4 C  dyz             0.2       0.1       0.6       0.2       0.1       0.2
 4 C  dx2y2           0.2       0.3       0.0       0.0       0.0       0.0
 4 C  dxy             0.5       0.0       0.0       0.0       0.3       0.4
 5 Cl s               1.9       0.7       0.2       0.4       0.5       0.4
 5 Cl pz              0.1       0.0       0.1       0.1       0.1       0.6
 5 Cl px              1.0       0.2       0.0       0.5       0.0       0.2
 5 Cl py              0.3       0.1       0.2       0.1       0.1       0.3
 5 Cl dz2             0.2       0.3       0.1       0.3       1.7       1.1
 5 Cl dxz             0.1       1.3       0.0       0.2       0.0       0.4
 5 Cl dyz             0.5       0.5       0.1       0.0       0.5       0.1
 5 Cl dx2y2           0.1       0.9       0.5       0.4       0.2       0.0
 5 Cl dxy             0.0       0.3       1.1       0.0       0.3       0.5
 6 H  s               1.8       0.4       1.3       0.5       0.7       0.2
 6 H  pz              0.0       0.1       0.4       0.0       0.0       0.0
 6 H  px              1.0       0.1       0.3       0.3       0.0       0.0
 6 H  py              0.1       0.0       0.0       0.0       0.0       0.2
 7 H  s               5.4       0.1       0.7       1.7       0.8       0.2
 7 H  pz              0.5       0.0       0.1       0.5       0.2       0.1
 7 H  px              1.9       0.0       0.0       0.4       0.1       0.1
 7 H  py              0.1       0.2       0.0       0.2       0.5       0.0
 8 H  s               0.8       0.5       2.3       0.8       1.7       2.3
 8 H  pz              0.6       0.1       0.7       0.3       1.0       1.0
 8 H  px              0.0       0.0       0.8       0.0       0.0       0.0
 8 H  py              0.0       0.3       0.0       0.0       0.1       0.2
 9 H  s               1.8       1.3       0.1       0.4       0.9       3.0
 9 H  pz              0.3       0.5       0.2       0.1       0.0       0.7
 9 H  px              0.3       0.6       0.6       0.0       0.5       0.2
 9 H  py              0.0       0.3       0.0       0.1       0.5       0.2
10 H  s               0.8       1.8       0.8       3.4       0.2       0.1
10 H  pz              0.4       1.2       0.0       1.3       0.4       0.1
10 H  px              0.1       0.0       0.6       0.1       0.2       0.3
10 H  py              0.0       0.1       0.0       0.1       0.1       0.4
11 H  s               0.8       1.1       2.0       0.7       3.3       0.1
11 H  pz              0.0       0.3       0.3       0.2       0.2       0.7
11 H  px              0.0       0.2       0.2       0.0       0.3       0.2
11 H  py              0.4       0.7       0.0       0.5       0.7       0.1
12 H  s               0.2       3.6       0.5       3.6       7.1       0.6
12 H  pz              0.1       1.2       0.0       1.6       1.8       0.4
12 H  px              0.0       0.1       0.1       0.5       0.0       0.2
12 H  py              0.0       0.4       0.7       0.0       0.0       0.4
13 H  s               2.4       0.8       6.9       1.5       0.0       0.1
13 H  pz              0.4       0.0       1.0       0.4       0.0       1.1
13 H  px              0.1       0.4       0.6       0.1       0.0       0.1
13 H  py              0.8       0.3       0.5       0.0       0.4       0.0
14 H  s               2.1       0.3       0.1       0.7       4.0       0.5
14 H  pz              0.2       0.2       0.4       0.0       0.0       0.3
14 H  px              0.4       0.1       0.1       0.2       0.6       0.2
14 H  py              0.6       0.3       0.6       0.3       0.2       0.3
15 H  s               4.5       1.3       1.9       0.2       0.8       0.7
15 H  pz              0.3       0.0       0.4       0.1       0.0       0.1
15 H  px              0.4       0.0       0.3       0.0       0.3       0.3
15 H  py              1.6       1.1       0.5       0.0       0.1       0.0
16 H  s               2.8       0.9       0.3       5.6       0.0       0.0
16 H  pz              0.2       0.5       0.0       2.0       0.0       0.1
16 H  px              0.5       0.2       0.1       0.1       0.3       0.0
16 H  py              0.8       0.0       0.1       0.4       0.3       0.2

                     36        37        38        39        40        41   
                   0.14380   0.15628   0.16333   0.16744   0.17434   0.18509
                   0.00000   0.00000   0.00000   0.00000   0.00000   0.00000
                  --------  --------  --------  --------  --------  --------
 0 C  s               3.3       1.8       0.2       0.2       0.4       0.3
 0 C  pz              0.7       1.2       0.7       3.7       7.8      17.9
 0 C  px              2.2       9.1       9.0       5.5       2.3       5.0
 0 C  py             18.8       0.9       0.1       0.8       7.6       1.0
 0 C  dz2             0.4       0.3       0.1       1.2       0.8       1.4
 0 C  dxz             0.1       0.2       0.0       0.1       0.1       2.2
 0 C  dyz             0.3       0.0       0.0       0.0       0.5       0.0
 0 C  dx2y2           1.1       0.1       0.0       0.5       0.3       0.0
 0 C  dxy             0.1       0.2       0.4       0.8       0.0       0.4
 1 C  s               5.8       0.4       0.3       0.2       0.5       0.1
 1 C  pz              0.1       1.4       0.1       2.3      11.5       6.8
 1 C  px              0.1       2.5       4.6       7.1       1.0       1.0
 1 C  py              5.7       5.6       0.9       0.5       1.6       3.6
 1 C  dz2             0.0       0.1       0.1       0.5       1.1       0.1
 1 C  dxz             0.0       0.0       0.5       0.0       0.4       0.3
 1 C  dyz             0.1       0.1       0.0       0.1       0.6       0.4
 1 C  dx2y2           1.2       0.2       0.0       0.1       0.1       0.1
 1 C  dxy             0.1       0.3       0.5       0.5       0.0       0.0
 2 C  s               0.4       4.9       0.5       0.0       1.1       0.0
 2 C  pz              1.0       0.8       1.0       0.1       0.4       4.0
 2 C  px              2.4       2.2       8.4       1.8       0.5       1.2
 2 C  py              4.4       5.1       2.5       0.7       0.1       0.9
 2 C  dz2             0.4       0.2       0.0       0.0       0.2       0.5
 2 C  dxz             0.1       0.0       1.1       0.4       0.1       0.0
 2 C  dyz             0.0       0.0       0.0       0.1       0.1       0.0
 2 C  dx2y2           1.3       0.1       0.0       0.1       0.0       0.2
 2 C  dxy             0.0       0.0       0.5       0.3       0.2       0.0
 3 C  s               2.1       1.0       2.4       0.8       3.7       0.5
 3 C  pz              0.9       1.8      12.0      10.5       0.9       3.6
 3 C  px              0.3       0.5       8.8       2.2       2.2       1.3
 3 C  py              8.2       1.0       0.9       5.9       0.6       0.6
 3 C  dz2             0.0       0.8       0.5       0.1       0.0       0.1
 3 C  dxz             0.1       0.3       0.3       0.0       0.0       0.1
 3 C  dyz             0.2       0.2       0.3       0.3       0.0       0.3
[...]
 1 C  pz              1.9       6.1       0.0       0.0       0.0       0.0
 1 C  px              3.2       1.0       0.0       0.0       0.0       0.0
 1 C  py              0.2       0.3       0.1       0.0       0.0       0.0
 1 C  dz2             5.0       9.5       0.2       0.0       0.0       0.0
 1 C  dxz             1.5       3.5       0.0       0.0       0.0       0.0
 1 C  dyz             0.7       1.7       0.0       0.0       0.0       0.0
 1 C  dx2y2           0.0       1.7       0.2       0.0       0.0       0.0
 1 C  dxy             3.2       0.8       0.1       0.0       0.0       0.0
 2 C  s               0.3       0.6       0.1       1.7       3.6       1.2
 2 C  pz              1.4       1.3       2.3       0.0       0.0       0.0
 2 C  px              3.4       0.0       0.4       0.0       0.0       0.0
 2 C  py              0.7       0.1       5.1       0.0       0.0       0.0
 2 C  dz2             2.9       2.2      10.0       0.0       0.0       0.0
 2 C  dxz             1.2       0.3       0.0       0.0       0.0       0.0
 2 C  dyz             0.5       0.8       0.1       0.0       0.0       0.0
 2 C  dx2y2           0.2       0.4       5.6       0.0       0.0       0.0
 2 C  dxy             2.8       0.1       0.4       0.0       0.0       0.0
 3 C  s               0.6       0.1       0.1       0.3       1.3      48.7
 3 C  pz              3.1       0.0       0.2       0.0       0.0       0.0
 3 C  px              0.1       1.1       1.3       0.0       0.0       0.0
 3 C  py              0.2       0.5       4.4       0.0       0.0       0.0
 3 C  dz2             1.5       0.1       5.6       0.0       0.0       0.0
 3 C  dxz             0.0       0.1       0.5       0.0       0.0       0.0
 3 C  dyz             2.2       0.2       1.8       0.0       0.0       0.0
 3 C  dx2y2           0.4       0.8       1.2       0.0       0.0       0.0
 3 C  dxy             1.6       0.4       3.8       0.0       0.0       0.0
 4 C  s               0.4       0.0       0.0      90.9       5.3       1.2
 4 C  pz              2.2       0.3       0.2       0.0       0.0       0.0
 4 C  px              1.3       0.4       0.2       0.0       0.0       0.0
 4 C  py              0.4       0.8       0.4       0.0       0.0       0.0
 4 C  dz2             3.6       1.0       0.3       0.0       0.0       0.0
 4 C  dxz             0.1       0.3       0.1       0.0       0.0       0.0
 4 C  dyz             4.2       0.5       0.1       0.0       0.0       0.0
 4 C  dx2y2           0.1       0.0       0.1       0.0       0.0       0.0
 4 C  dxy             0.1       0.2       0.9       0.0       0.0       0.0
 5 Cl px              0.1       0.0       0.1       0.0       0.0       0.0
 6 H  s               1.2       0.1       0.1       0.0       0.0       0.0
 6 H  pz              0.2       0.0       0.0       0.0       0.0       0.0
 6 H  px              1.9       0.2       0.1       0.0       0.0       0.0
 6 H  py              1.1       0.1       0.0       0.0       0.0       0.0
 7 H  s               0.6       1.8       0.1       0.0       0.0       0.0
 7 H  pz              0.4       1.2       0.0       0.0       0.0       0.0
 7 H  px              0.8       2.1       0.1       0.0       0.0       0.0
 7 H  py              0.2       1.2       0.0       0.0       0.0       0.0
 8 H  s               0.2       1.0       0.1       0.0       0.0       0.0
 8 H  pz              0.6       2.1       0.1       0.0       0.0       0.0
 8 H  px              0.0       0.1       0.0       0.0       0.0       0.0
 8 H  py              0.1       0.3       0.0       0.0       0.0       0.0
 9 H  s               0.5       4.5       0.0       0.0       0.0       0.0
 9 H  pz              0.8       1.1       0.0       0.0       0.0       0.0
 9 H  px              0.7       8.0       0.1       0.0       0.0       0.0
 9 H  py              0.5       1.4       0.1       0.0       0.0       0.0
10 H  s               1.8       5.0       0.0       0.0       0.0       0.0
10 H  pz              5.2      11.0       0.0       0.0       0.0       0.0
10 H  px              0.0       0.3       0.0       0.0       0.0       0.0
10 H  py              0.1       0.8       0.0       0.0       0.0       0.0
11 H  s               0.0       0.0       5.6       0.0       0.0       0.0
11 H  pz              0.2       0.0       0.2       0.0       0.0       0.0
11 H  px              0.4       0.0       0.4       0.0       0.0       0.0
11 H  py              0.0       0.0      11.2       0.0       0.0       0.0
12 H  s               1.1       1.2       3.4       0.0       0.0       0.0
12 H  pz              2.7       3.6       7.5       0.0       0.0       0.0
12 H  py              0.3       0.0       0.1       0.0       0.0       0.0
13 H  s               1.7       0.1       2.1       0.0       0.0       0.0
13 H  pz              3.4       0.1       4.2       0.0       0.0       0.0
13 H  px              0.5       0.1       0.0       0.0       0.0       0.0
13 H  py              1.0       0.0       0.1       0.0       0.0       0.0
14 H  s               0.2       0.7       4.7       0.0       0.0       0.0
14 H  pz              0.1       0.0       0.2       0.0       0.0       0.0
14 H  px              0.4       0.5       3.1       0.0       0.0       0.0
14 H  py              0.2       1.1       7.0       0.0       0.0       0.0
15 H  s               0.9       0.7       0.5       0.0       0.0       0.0
15 H  pz              0.2       0.1       0.0       0.0       0.0       0.0
15 H  px              0.2       0.4       0.0       0.0       0.0       0.0
15 H  py              1.7       1.0       1.7       0.0       0.0       0.0
16 H  s               2.7       0.7       0.0       0.0       0.0       0.0
16 H  pz              5.3       1.4       0.1       0.0       0.0       0.0
16 H  px              0.4       0.0       0.0       0.0       0.0       0.0
16 H  py              1.0       0.2       0.0       0.0       0.0       0.0

                    174       175       176   
                  22.02160  22.09976  25.12274
                   0.00000   0.00000   0.00000
                  --------  --------  --------
 0 C  s              12.7       1.3       0.0
 1 C  s               9.9      30.7       0.0
 2 C  s              65.5      27.7       0.1
 3 C  s              11.6      37.8       0.1
 4 C  s               0.0       2.3       0.4
 5 Cl s               0.0       0.0      99.2


                      *****************************
                      * MAYER POPULATION ANALYSIS *
                      *****************************

  NA   - Mulliken gross atomic population
  ZA   - Total nuclear charge
  QA   - Mulliken gross atomic charge
  VA   - Mayer's total valence
  BVA  - Mayer's bonded valence
  FA   - Mayer's free valence

  ATOM       NA         ZA         QA         VA         BVA        FA
  0 C      6.5032     6.0000    -0.5032     3.7667     3.7667    -0.0000
  1 C      6.2526     6.0000    -0.2526     3.6794     3.6794    -0.0000
  2 C      6.2569     6.0000    -0.2569     3.5639     3.5639     0.0000
  3 C      6.2818     6.0000    -0.2818     3.6359     3.6359    -0.0000
  4 C      6.1861     6.0000    -0.1861     3.8943     3.8943    -0.0000
  5 Cl    17.2029    17.0000    -0.2029     1.0304     1.0304     0.0000
  6 H      0.8501     1.0000     0.1499     0.9623     0.9623    -0.0000
  7 H      0.8462     1.0000     0.1538     0.9594     0.9594    -0.0000
  8 H      0.8493     1.0000     0.1507     0.9598     0.9598    -0.0000
  9 H      0.8590     1.0000     0.1410     0.9601     0.9601     0.0000
 10 H      0.8518     1.0000     0.1482     0.9607     0.9607     0.0000
 11 H      0.8493     1.0000     0.1507     0.9600     0.9600     0.0000
 12 H      0.8580     1.0000     0.1420     0.9647     0.9647     0.0000
 13 H      0.8405     1.0000     0.1595     0.9617     0.9617    -0.0000
 14 H      0.8420     1.0000     0.1580     0.9608     0.9608    -0.0000
 15 H      0.8342     1.0000     0.1658     0.9506     0.9506    -0.0000
 16 H      0.8359     1.0000     0.1641     0.9503     0.9503    -0.0000

  Mayer bond orders larger than 0.100000
B(  0-C ,  1-C ) :   0.8690 B(  0-C ,  6-H ) :   0.9662 B(  0-C ,  7-H ) :   0.9775 
B(  0-C ,  8-H ) :   0.9798 B(  1-C ,  2-C ) :   0.9101 B(  1-C ,  9-H ) :   0.9697 
B(  1-C , 10-H ) :   0.9951 B(  2-C ,  3-C ) :   0.8228 B(  2-C , 11-H ) :   0.9638 
B(  2-C , 12-H ) :   0.9822 B(  3-C ,  4-C ) :   0.9471 B(  3-C , 13-H ) :   0.9728 
B(  3-C , 14-H ) :   0.9605 B(  4-C ,  5-Cl) :   0.9864 B(  4-C , 15-H ) :   0.9518 
B(  4-C , 16-H ) :   0.9675 

-------
TIMINGS
-------

Total SCF time: 0 days 0 hours 0 min 17 sec 

Total time                  ....      17.356 sec
Sum of individual times     ....      16.944 sec  ( 97.6%)

SCF preparation             ....       0.161 sec  (  0.9%)
Fock matrix formation       ....      15.918 sec  ( 91.7%)
  Startup                   ....       0.056 sec  (  0.4% of F)
  Split-RI-J                ....       2.645 sec  ( 16.6% of F)
  XC integration            ....      12.722 sec  ( 79.9% of F)
    XC Preparation          ....       0.000 sec  (  0.0% of XC)
    Basis function eval.    ....       2.393 sec  ( 18.8% of XC)
    Density eval.           ....       3.560 sec  ( 28.0% of XC)
    XC-Functional eval.     ....       1.875 sec  ( 14.7% of XC)
    XC-Potential eval.      ....       3.909 sec  ( 30.7% of XC)
Diagonalization             ....       0.000 sec  (  0.0%)
Density matrix formation    ....       0.218 sec  (  1.3%)
Total Energy calculation    ....       0.032 sec  (  0.2%)
Population analysis         ....       0.099 sec  (  0.6%)
Orbital Transformation      ....       0.054 sec  (  0.3%)
Orbital Orthonormalization  ....       0.000 sec  (  0.0%)
DIIS solution               ....       0.411 sec  (  2.4%)
  MO trafo                  ....       0.000 sec  (  0.0 % of DIIS)
  Orb grad                  ....       0.000 sec  (  0.0 % of DIIS)
  Energy W gradient         ....       0.000 sec  (  0.0 % of DIIS)
  DIIS error                ....       0.007 sec  (  1.7 % of DIIS)
  DIIS work                 ....       0.353 sec  ( 85.8 % of DIIS)
  Form Q                    ....       0.000 sec  (  0.0 % of DIIS)
  Form QpQm                 ....       0.000 sec  (  0.0 % of DIIS)
  Exp/Cayley                ....       0.000 sec  (  0.0 % of DIIS)
  Orb update                ....       0.000 sec  (  0.0 % of DIIS)
  Wake-sleep                ....       0.026 sec  (  6.3 % of DIIS)
SOSCF solution              ....       0.051 sec  (  0.3%)
  MO trafo                  ....       0.041 sec  ( 78.9 % of SOSCF)
  Orb grad                  ....       0.001 sec  (  1.1 % of SOSCF)
  Rot update                ....       0.000 sec  (  0.1 % of SOSCF)
  Step                      ....       0.010 sec  ( 19.7 % of SOSCF)
Finished LeanSCF after  17.5 sec

Maximum memory used throughout the entire LEANSCF-calculation: 18.8 MB


-------------------------------------------------------------------------------
                          DFT DISPERSION CORRECTION                            
                                                                               
                                DFTD4 V3.4.0                                   
-------------------------------------------------------------------------------
The R2SCAN3C composite method is recognized
Using three-body term ABC
Active option DFTDOPT                   ...         5   

-------------------------   ----------------
Dispersion correction           -0.004467123
-------------------------   ----------------

------------------   -----------------
gCP correction             0.010291236
------------------   -----------------

-------------------------   --------------------
FINAL SINGLE POINT ENERGY      -657.265004000161
-------------------------   --------------------


------------------------------------------------------------------------------
                              ORCA PROPERTY CALCULATIONS
------------------------------------------------------------------------------

GBWName                                 ... sp_gas.gbw
Number of atoms                         ...     17
Number of basis functions               ...    177
Max core memory                         ...   1024 MB

Electric properties:
Dipole moment                           ... YES
Quadrupole moment                       ...  NO
Static polarizability (Dipole/Dipole)   ...  NO
Static polarizability (Dipole/Quad.)    ...  NO
Static polarizability (Quad./Quad.)     ...  NO
Static polarizability (Velocity)        ...  NO

Atomic electric properties:
Dipole moment                           ...  NO
Quadrupole moment                       ...  NO
Static polarizability                   ...  NO

Choice of electric origin               ... Center of mass
Position of electric origin             ...     0.000026     0.000003     0.000004

General magnetic properties:
Magnetizability                         ...  NO

EPR properties:
g-Tensor (aka g-matrix)                 ...  NO
Zero-Field splitting spin-orbit         ...  NO
Zero-field splitting spin-spin          ...  NO
Hyperfine couplings                     ...  NO (   0 nuclei)
Quadrupole couplings                    ...  NO (   0 nuclei)
Contact density                         ...  NO (   0 nuclei)

NMR properties:
Chemical shifts                         ...  NO (   0 nuclei)
Spin-rotation constants                 ...  NO (   0 nuclei)
Spin-spin couplings                     ...  NO (   0 nuclei,    0 pairs)

Choice of magnetic origin               ... GIAO
Position of magnetic origin             ...     0.000000     0.000000     0.000000

Properties with geometric perturbations:
SCF Hessian                             ...  NO
IR spectrum                             ...  NO
VCD spectrum                            ...  NO
X-ray spectroscopy properties:
SCF XES/XAS/RIXS spectra                ...  NO


-------------
DIPOLE MOMENT
-------------

Method             : SCF
Type of density    : Electron Density
Multiplicity       :   1
Irrep              :   0
Energy             :  -657.2708281131253898 Eh
Relativity type    : 
Basis              : AO
                                X                 Y                 Z
Electronic contribution:    -16.000883051      -2.059483480      -2.001262246
Nuclear contribution   :     16.884602489       2.341127080       2.312928329
                        -----------------------------------------
Total Dipole Moment    :      0.883719438       0.281643601       0.311666083
                        -----------------------------------------
Magnitude (a.u.)       :      0.978477854
Magnitude (Debye)      :      2.487093052



--------------------
Rotational spectrum 
--------------------
 
Rotational constants in cm-1:             0.200424             0.037998             0.034323 
Rotational constants in MHz :          6008.554167          1139.141036          1028.976156 

Dipole components along the rotational axes: 
x,y,z [a.u.] :     0.927963    -0.190187     0.245219 
x,y,z [Debye]:     2.358695    -0.483417     0.623297 

 

Dipole moment calculation done in   0.0 sec 

Maximum memory used throughout the entire PROP-calculation: 10.4 MB

--------------------------------
SUGGESTED CITATIONS FOR THIS RUN
--------------------------------

Below you find a list of papers that are relevant to this ORCA run
We neither can nor want to force you to cite these papers, but we appreciate if you do
You receive ORCA, which is the product of decades of hard work by many enthusiastic individuals, for free
The only thing we kindly ask in return is that you cite our papers,
We deeply appreciate it, if you show your appreciation for ORCA by not just citing the generic ORCA reference.

Please note that relegating all ORCA citations to the supporting information does *not* help us.
SI sections are not indexed - citations you put there will not count into any citation statistics
But we need these citations in order to attract the funding resources that allow us to do what we are doing

Therefore, if you are a happy ORCA user, please consider citing a few of the papers listed below in the main body of your paper

In addition to the list printed below, the program has created the file sp_gas.bibtex that contains the list in bibtex format
You can import this file easily into all common literature databanks and citation aid programs


List of essential papers. We consider these as the minimum necessary citations

  1. Neese,F.
     Software update: the ORCA program system, version 5.0
     WIRES Comput. Molec. Sci., 2022 12(1)e1606
     doi.org/10.1002/wcms.1606
  2. Grimme,S.; Hansen,A.; Ehlert,S.; Mewes,J.
     r2SCAN-3c: A 'Swiss army knife' composite electronic-structure method
     J. Chem. Phys., 2021 154 064103
     doi.org/10.1063/5.0040021

List of papers to cite with high priority. The work reported in these papers was absolutely
necessary for this run to complete.
Our perspective: the developers of density functionals and basis sets usually get cited in chemistry papers
Good! But without the algorithms to do something with them, the functionals or basis sets would not do anything.
Hence, in our opinion, the algorithm design and method developments papers are equally worthy of getting cited

  1. Neese,F.
     An improvement of the resolution of the identity approximation for the formation of the Coulomb matrix
     J. Comp. Chem., 2003 24(14)1740-1747
     doi.org/10.1002/jcc.10318
  2. Neese,F.
     The SHARK Integral Generation and Digestion System
     J. Comp. Chem., 2022  1-16
     doi.org/10.1002/jcc.26942
  3. Lehtola,S.; Steigemann,C.; Oliveira,M.; Marques,M.
     Recent developments in Libxc - A comprehensive library of functionals for density functional theory
     Software X, 2018 7 
     doi.org/10.1016/j.softx.2017.11.002
  4. Caldeweyher,E.; Bannwarth,C.; Grimme,S.
     Extension of the D3 dispersion coefficient model
     J. Chem. Phys., 2017 147 034112-XXXX
     doi.org/10.1063/1.4993215
  5. Caldeweyher,E.; Ehlert,S.; Hansen,A.; Neugebauer,H.; Spicher,S.; Bannwarth,C.; Grimme,S.
     A generally applicable atomic-charge dependent London dispersion correction
     J. Chem. Phys., 2019 150 154122-XXXX
     doi.org/10.1063/1.5090222
  6. Caldeweyher,E.; Mewes,J.; Ehlert,S.; Grimme,S.
     Extension and evaluation of the D4 London-dispersion model for periodic systems
     Phys. Chem. Chem. Phys., 2020 22(16)8499-8512
     doi.org/10.1039/D0CP00502A

List of suggested additional citations. These are papers that are important in the 'surrounding' of 
of this run, or papers that preceded the highly important papers. If you like your results we are grateful for a citation.

  1. Neese,F.
     The ORCA program system
     WIRES Comput. Molec. Sci., 2012 2(1)73-78
     doi.org/10.1002/wcms.81
  2. Neese,F.
     Software update: the ORCA program system, version 4.0
     WIRES Comput. Molec. Sci., 2018 8(1)1-6
     doi.org/10.1002/wcms.1327
  3. Neese,F.; Wennmohs,F.; Becker,U.; Riplinger,C.
     The ORCA quantum chemistry program package
     J. Chem. Phys., 2020 152 Art. No. L224108
     doi.org/10.1063/5.0004608

List of optional additional citations

  1. Neese,F.
     Approximate second-order SCF convergence for spin unrestricted wavefunctions
     Chem. Phys. Lett., 2000 325(1-3)93-98
     doi.org/10.1016/s0009-2614(00)00662-x

Timings for individual modules:

Sum of individual times          ...       18.894 sec (=   0.315 min)
Startup calculation              ...        1.042 sec (=   0.017 min)   5.5 %
SCF iterations                   ...       17.741 sec (=   0.296 min)  93.9 %
Property calculations            ...        0.112 sec (=   0.002 min)   0.6 %
                             ****ORCA TERMINATED NORMALLY****
TOTAL RUN TIME: 0 days 0 hours 0 minutes 19 seconds 664 msec
