
                                 *****************
                                 * O   R   C   A *
                                 *****************

                                            #,                                       
                                            ###                                      
                                            ####                                     
                                            #####                                    
                                            ######                                   
                                           ########,                                 
                                     ,,################,,,,,                         
                               ,,#################################,,                 
                          ,,##########################################,,             
                       ,#########################################, ''#####,          
                    ,#############################################,,   '####,        
                  ,##################################################,,,,####,       
                ,###########''''           ''''###############################       
              ,#####''   ,,,,##########,,,,          '''####'''          '####       
            ,##' ,,,,###########################,,,                        '##       
           ' ,,###''''                  '''############,,,                           
         ,,##''                                '''############,,,,        ,,,,,,###''
      ,#''                                            '''#######################'''  
     '                                                          ''''####''''         
             ,#######,   #######,   ,#######,      ##                                
            ,#'     '#,  ##    ##  ,#'     '#,    #''#        ,####,   ,####,        
            ##       ##  ##   ,#'  ##            #'  '#       #'       #'  '#        
            ##       ##  #######   ##           ,######,      #####,   #    #        
            '#,     ,#'  ##    ##  '#,     ,#' ,#      #,     #,   #   #,  ,#        
             '#######'   ##     ##  '#######'  #'      '#     '####' # '####'        



                #########################################################
                #                        -***-                          #
                #          Department of theory and spectroscopy        #
                #                                                       #
                #                      Frank Neese                      #
                #                                                       #
                #     Directorship, Architecture, Infrastructure        #
                #                    SHARK, DRIVERS                     #
                #        Core code/Algorithms in most modules           #
                #                                                       #
                #        Max Planck Institute fuer Kohlenforschung      #
                #                Kaiser Wilhelm Platz 1                 #
                #                 D-45470 Muelheim/Ruhr                 #
                #                      Germany                          #
                #                                                       #
                #                  All rights reserved                  #
                #                        -***-                          #
                #########################################################


                         Program Version 6.0.0  -   RELEASE  -


 With contributions from (in alphabetic order):
   Daniel Aravena         : Magnetic Suceptibility
   Michael Atanasov       : Ab Initio Ligand Field Theory (pilot matlab implementation)
   Alexander A. Auer      : GIAO ZORA, VPT2 properties, NMR spectrum
   Ute Becker             : All parallelization in ORCA, NUMFREQ, NUMCALC
   Giovanni Bistoni       : ED, misc. LED, open-shell LED, HFLD
   Martin Brehm           : Molecular dynamics
   Dmytro Bykov           : pre 5.0 version of the SCF Hessian
   Marcos Casanova-Páez   : Triplet and SCS-CIS(D). UHF-(DLPNO)-IP/EA/STEOM-CCSD. UHF-CVS-IP/STEOM-CCSD
   Vijay G. Chilkuri      : MRCI spin determinant printing, contributions to CSF-ICE
   Pauline Colinet        : FMM embedding
   Dipayan Datta          : RHF DLPNO-CCSD density
   Achintya Kumar Dutta   : EOM-CC, STEOM-CC
   Nicolas Foglia         : Exact transition moments, OPA infrastructure, MCD improvements
   Dmitry Ganyushin       : Spin-Orbit,Spin-Spin,Magnetic field MRCI
   Miquel Garcia          : C-PCM and meta-GGA Hessian, CCSD/C-PCM, Gaussian charge scheme
   Tiago L. C. Gouveia    : GS-ROHF, GS-ROCIS
   Yang Guo               : DLPNO-NEVPT2, F12-NEVPT2, CIM, IAO-localization
   Andreas Hansen         : Spin unrestricted coupled pair/coupled cluster methods
   Ingolf Harden          : AUTO-CI MPn and infrastructure 
   Benjamin Helmich-Paris : MC-RPA, TRAH-(SCF,CASSCF), AVAS, COSX integrals, SCF dyn. polar.
   Lee Huntington         : MR-EOM, pCC
   Robert Izsak           : Overlap fitted RIJCOSX, COSX-SCS-MP3, EOM
   Riya Kayal             : Wick's Theorem for AUTO-CI, AUTO-CI UHF-CCSDT
   Emily Kempfer          : AUTO-CI, RHF CISDT and CCSDT
   Christian Kollmar      : KDIIS, OOCD, Brueckner-CCSD(T), CCSD density, CASPT2, CASPT2-K, improved NEVPT2
   Axel Koslowski         : Symmetry handling
   Simone Kossmann        : Meta GGA functionals, TD-DFT gradient, OOMP2, (MP2 Hessian; deprecated post 5.0)
   Lucas Lang             : DCDCAS
   Marvin Lechner         : AUTO-CI (C++ implementation), FIC-MRCC
   Spencer Leger          : CASSCF response
   Dagmar Lenk            : GEPOL surface, SMD, ORCA-2-JSON
   Dimitrios Liakos       : Extrapolation schemes; Compound Job, initial MDCI parallelization
   Dimitrios Manganas     : Further ROCIS development; embedding schemes. LFT, Crystal Embedding
   Dimitrios Pantazis     : SARC Basis sets
   Anastasios Papadopoulos: AUTO-CI, single reference methods and gradients
   Taras Petrenko         : pre 6.0 DFT Hessian and TD-DFT gradient, (ASA, deprecated), ECA, 1-Electron XAS/XES, NRVS
   Peter Pinski           : DLPNO-MP2, DLPNO-MP2 Gradient
   Christoph Reimann      : Effective Core Potentials
   Marius Retegan         : Local ZFS, SOC
   Christoph Riplinger    : Optimizer, TS searches, QM/MM, DLPNO-CCSD(T), (RO)-DLPNO pert. Triples
   Michael Roemelt        : Original ROCIS implementation
   Masaaki Saitow         : Open-shell DLPNO-CCSD energy and density
   Barbara Sandhoefer     : DKH picture change effects
   Kantharuban Sivalingam : CASSCF convergence/infrastructure, NEVPT2 and variants, FIC-MRCI
   Bernardo de Souza      : ESD, SOC TD-DFT
   Georgi Stoychev        : AutoAux, RI-MP2 NMR, DLPNO-MP2 response, X2C
   Van Anh Tran           : RI-MP2 g-tensors
   Willem Van den Heuvel  : Paramagnetic NMR
   Zikuan Wang            : NOTCH, Electric field optimization 
   Frank Wennmohs         : Technical directorship and infrastructure
   Hang Xu                : AUTO-CI-Response properties 


 We gratefully acknowledge several colleagues who have allowed us to
 interface, adapt or use parts of their codes:
   Stefan Grimme, W. Hujo, H. Kruse, P. Pracht,  : VdW corrections, initial TS optimization,
                  C. Bannwarth, S. Ehlert,         DFT functionals, gCP, sTDA/sTD-DF
                  L. Wittmann, M. Mueller
   Ed Valeev, F. Pavosevic, A. Kumar             : LibInt (2-el integral package), F12 methods
   Garnet Chan, S. Sharma, J. Yang, R. Olivares  : DMRG
   Ulf Ekstrom                                   : XCFun DFT Library
   Mihaly Kallay                                 : mrcc  (arbitrary order and MRCC methods)
   Frank Weinhold                                : gennbo (NPA and NBO analysis)
   Simon Mueller                                 : openCOSMO-RS
   Christopher J. Cramer and Donald G. Truhlar   : smd solvation model
   Lars Goerigk                                  : TD-DFT with DH, B97 family of functionals
   V. Asgeirsson, H. Jonsson                     : NEB implementation
   FAccTs GmbH                                   : IRC, NEB, NEB-TS, DLPNO-Multilevel, CI-OPT
                                                   MM, QMMM, 2- and 3-layer-ONIOM, Crystal-QMMM,
                                                   LR-CPCM, SF, NACMEs, symmetry and pop. for TD-DFT,
                                                   nearIR, NL-DFT gradient (VV10), updates on ESD,
                                                   ML-optimized integration grids, MBIS, APM,
                                                   GOAT, DOCKER, SOLVATOR, interface openCOSMO-RS
   S Lehtola, MJT Oliveira, MAL Marques          : LibXC Library
   Liviu Ungur et al                             : ANISO software


 Your calculation uses the libint2 library for the computation of 2-el integrals
 For citations please refer to: http://libint.valeyev.net

 Your ORCA version has been built with support for libXC version: 6.2.2
 For citations please refer to: https://libxc.gitlab.io

 This ORCA versions uses:
   CBLAS   interface :  Fast vector & matrix operations
   LAPACKE interface :  Fast linear algebra routines
   SCALAPACK package :  Parallel linear algebra routines
   Shared memory     :  Shared parallel matrices
   BLAS/LAPACK       :  OpenBLAS 0.3.27  USE64BITINT DYNAMIC_ARCH NO_AFFINITY SkylakeX SINGLE_THREADED
        Core in use  :  SkylakeX
   Copyright (c) 2011-2014, The OpenBLAS Project


Your calculation utilizes the geometrical counterpoise correction gCP
Please cite in your paper:
H.Kruse, S. Grimme J.Chem.Phys., 136, (2012), 154101 
   

Your calculation utilizes the atom-pairwise dispersion correction
based on EEQ partial charges (D4)


Your calculation utilizes the SMD solvation module
Please cite in your paper:
A.V. Marenich, C.J. Cramer, D.G. Truhlar J. Phys. Chem. B, 113, (2009), 6378 

================================================================================

----- Orbital basis set information -----
Your calculation utilizes the basis: def2-mTZVPP
   Stefan Grimme, Andreas Hansen, Sebastian Ehlert, and Jan-Michael Mewes 
   J. Chem. Phys. 154, 064103 (2021). DOI: 10.1063/5.0040021

----- AuxJ basis set information -----
Your calculation utilizes the auxiliary basis: def2/J
   F. Weigend, Phys. Chem. Chem. Phys. 8, 1057 (2006).

================================================================================
                                        WARNINGS
                       Please study these warnings very carefully!
================================================================================

Using LibXC functional ID 497 : Re-regularized SCAN exchange by Furness et al
[ 1]  J. W. Furness, A. D. Kaplan, J. Ning, J. P. Perdew, and J. Sun.,  J. Phys. Chem. Lett. 11, 8208-8215 (2020)
[ 2]  J. W. Furness, A. D. Kaplan, J. Ning, J. P. Perdew, and J. Sun.,  J. Phys. Chem. Lett. 11, 9248-9248 (2020)
Using LibXC functional ID 498 : Re-regularized SCAN correlation by Furness et al
[ 1]  J. W. Furness, A. D. Kaplan, J. Ning, J. P. Perdew, and J. Sun.,  J. Phys. Chem. Lett. 11, 8208-8215 (2020)
[ 2]  J. W. Furness, A. D. Kaplan, J. Ning, J. P. Perdew, and J. Sun.,  J. Phys. Chem. Lett. 11, 9248-9248 (2020)
Using LibXC functional ID 497 : Re-regularized SCAN exchange by Furness et al
[ 1]  J. W. Furness, A. D. Kaplan, J. Ning, J. P. Perdew, and J. Sun.,  J. Phys. Chem. Lett. 11, 8208-8215 (2020)
[ 2]  J. W. Furness, A. D. Kaplan, J. Ning, J. P. Perdew, and J. Sun.,  J. Phys. Chem. Lett. 11, 9248-9248 (2020)
Using LibXC functional ID 498 : Re-regularized SCAN correlation by Furness et al
[ 1]  J. W. Furness, A. D. Kaplan, J. Ning, J. P. Perdew, and J. Sun.,  J. Phys. Chem. Lett. 11, 8208-8215 (2020)
[ 2]  J. W. Furness, A. D. Kaplan, J. Ning, J. P. Perdew, and J. Sun.,  J. Phys. Chem. Lett. 11, 9248-9248 (2020)

================================================================================
                                       INPUT FILE
================================================================================
NAME = sp_solv.inp
|  1> ! r2scan-3c def2/J RI DEFGRID2 scfconv6 printgap
|  2> %output
|  3>     printlevel normal
|  4> end
|  5> %cpcm
|  6>     smd true
|  7>     smdsolvent "water"
|  8> end
|  9> * xyz 0 1
| 10> C 2.4635546576 -1.0930471954 0.145030534
| 11> C 2.5630397844 0.4042966761 -0.121315764
| 12> C 1.3734662301 1.2094398146 0.4051718467
| 13> C 0.0379971186 0.8726577333 -0.2775852146
| 14> C -0.78899795 -0.0975020351 0.5487587506
| 15> Cl -2.3306823238 -0.4900270097 -0.2952506956
| 16> H 3.3827318935 -1.5879969044 -0.1600099865
| 17> H 1.6441575577 -1.5358843211 -0.4146740105
| 18> H 2.3092531638 -1.2829022388 1.2048055893
| 19> H 3.4686165247 0.7865747354 0.3550441069
| 20> H 2.6616662838 0.5730708884 -1.1957491256
| 21> H 1.5904306262 2.2662365461 0.2445841891
| 22> H 1.2805505732 1.0542132533 1.4813341906
| 23> H 0.2241014356 0.4461876981 -1.2642397894
| 24> H -0.5449837306 1.7840858548 -0.4186283638
| 25> H -0.2810985028 -1.046071683 0.7044740289
| 26> H -1.0724407275 0.3368440996 1.5060201957
| 27> *
| 28> 
| 29>                          ****END OF INPUT****
================================================================================

                       ****************************
                       * Single Point Calculation *
                       ****************************

---------------------------------
CARTESIAN COORDINATES (ANGSTROEM)
---------------------------------
  C      2.463555   -1.093047    0.145031
  C      2.563040    0.404297   -0.121316
  C      1.373466    1.209440    0.405172
  C      0.037997    0.872658   -0.277585
  C     -0.788998   -0.097502    0.548759
  Cl    -2.330682   -0.490027   -0.295251
  H      3.382732   -1.587997   -0.160010
  H      1.644158   -1.535884   -0.414674
  H      2.309253   -1.282902    1.204806
  H      3.468617    0.786575    0.355044
  H      2.661666    0.573071   -1.195749
  H      1.590431    2.266237    0.244584
  H      1.280551    1.054213    1.481334
  H      0.224101    0.446188   -1.264240
  H     -0.544984    1.784086   -0.418628
  H     -0.281099   -1.046072    0.704474
  H     -1.072441    0.336844    1.506020

----------------------------
CARTESIAN COORDINATES (A.U.)
----------------------------
  NO LB      ZA    FRAG     MASS         X           Y           Z
   0 C     6.0000    0    12.011    4.655444   -2.065560    0.274068
   1 C     6.0000    0    12.011    4.843443    0.764010   -0.229254
   2 C     6.0000    0    12.011    2.595475    2.285510    0.765664
   3 C     6.0000    0    12.011    0.071804    1.649084   -0.524560
   4 C     6.0000    0    12.011   -1.490990   -0.184252    1.037004
   5 Cl   17.0000    0    35.453   -4.404351   -0.926017   -0.557943
   6 H     1.0000    0     1.008    6.392437   -3.000879   -0.302375
   7 H     1.0000    0     1.008    3.107008   -2.902401   -0.783620
   8 H     1.0000    0     1.008    4.363856   -2.424334    2.276753
   9 H     1.0000    0     1.008    6.554735    1.486411    0.670936
  10 H     1.0000    0     1.008    5.029820    1.082947   -2.259638
  11 H     1.0000    0     1.008    3.005478    4.282566    0.462197
  12 H     1.0000    0     1.008    2.419890    1.992174    2.799316
  13 H     1.0000    0     1.008    0.423490    0.843173   -2.389067
  14 H     1.0000    0     1.008   -1.029870    3.371434   -0.791093
  15 H     1.0000    0     1.008   -0.531199   -1.976789    1.331263
  16 H     1.0000    0     1.008   -2.026619    0.636543    2.845966

--------------------------------
INTERNAL COORDINATES (ANGSTROEM)
--------------------------------
 C      0   0   0     0.000000000000     0.00000000     0.00000000
 C      1   0   0     1.524098523860     0.00000000     0.00000000
 C      2   1   0     1.529879053646   113.96291119     0.00000000
 C      3   2   1     1.537223836274   114.03916038   295.53745802
 C      4   3   2     1.519202148673   111.79184451    98.35045709
 Cl     5   4   3     1.800893808468   110.50436458   180.98715773
 H      1   2   3     1.087617453236   110.05423052   185.88139914
 H      1   2   3     1.086639546656   111.07459616    66.45346809
 H      1   2   3     1.087647487162   110.55032983   305.45472529
 H      2   1   3     1.092302372880   108.76786800   120.64710897
 H      2   1   3     1.092070954490   109.24822491   237.67184619
 H      3   2   1     1.090725115076   107.73233232   174.86440451
 H      3   2   1     1.091262569256   109.31246755    58.39333570
 H      4   3   2     1.090870642058   109.82551191   336.48947737
 H      4   3   2     1.091082518021   109.79108075   218.48327585
 H      5   4   3     1.087195232366   112.38146218   299.26113717
 H      5   4   3     1.088735894109   111.42001931    63.37949125

---------------------------
INTERNAL COORDINATES (A.U.)
---------------------------
 C      0   0   0     0.000000000000     0.00000000     0.00000000
 C      1   0   0     2.880128811208     0.00000000     0.00000000
 C      2   1   0     2.891052429413   113.96291119     0.00000000
 C      3   2   1     2.904932057095   114.03916038   295.53745802
 C      4   3   2     2.870876003057   111.79184451    98.35045709
 Cl     5   4   3     3.403196094279   110.50436458   180.98715773
 H      1   2   3     2.055299125088   110.05423052   185.88139914
 H      1   2   3     2.053451149468   111.07459616    66.45346809
 H      1   2   3     2.055355880983   110.55032983   305.45472529
 H      2   1   3     2.064152340175   108.76786800   120.64710897
 H      2   1   3     2.063715022796   109.24822491   237.67184619
 H      3   2   1     2.061171754883   107.73233232   174.86440451
 H      3   2   1     2.062187396093   109.31246755    58.39333570
 H      4   3   2     2.061446761024   109.82551191   336.48947737
 H      4   3   2     2.061847148569   109.79108075   218.48327585
 H      5   4   3     2.054501243277   112.38146218   299.26113717
 H      5   4   3     2.057412672035   111.42001931    63.37949125

---------------------
BASIS SET INFORMATION
---------------------
There are 3 groups of distinct atoms

 Group   1 Type C   : 11s6p1d contracted to 5s3p1d pattern {62111/411/1}
 Group   2 Type Cl  : 14s9p2d contracted to 5s4p2d pattern {73211/6111/11}
 Group   3 Type H   : 4s1p contracted to 2s1p pattern {31/1}

Atom   0C    basis set group =>   1
Atom   1C    basis set group =>   1
Atom   2C    basis set group =>   1
Atom   3C    basis set group =>   1
Atom   4C    basis set group =>   1
Atom   5Cl   basis set group =>   2
Atom   6H    basis set group =>   3
Atom   7H    basis set group =>   3
Atom   8H    basis set group =>   3
Atom   9H    basis set group =>   3
Atom  10H    basis set group =>   3
Atom  11H    basis set group =>   3
Atom  12H    basis set group =>   3
Atom  13H    basis set group =>   3
Atom  14H    basis set group =>   3
Atom  15H    basis set group =>   3
Atom  16H    basis set group =>   3
---------------------------------
AUXILIARY/J BASIS SET INFORMATION
---------------------------------
There are 3 groups of distinct atoms

 Group   1 Type C   : 12s5p4d2f1g contracted to 6s4p3d1f1g pattern {711111/2111/211/2/1}
 Group   2 Type Cl  : 14s5p5d2f1g contracted to 8s4p3d1f1g pattern {71111111/2111/311/2/1}
 Group   3 Type H   : 5s2p1d contracted to 3s1p1d pattern {311/2/1}

Atom   0C    basis set group =>   1
Atom   1C    basis set group =>   1
Atom   2C    basis set group =>   1
Atom   3C    basis set group =>   1
Atom   4C    basis set group =>   1
Atom   5Cl   basis set group =>   2
Atom   6H    basis set group =>   3
Atom   7H    basis set group =>   3
Atom   8H    basis set group =>   3
Atom   9H    basis set group =>   3
Atom  10H    basis set group =>   3
Atom  11H    basis set group =>   3
Atom  12H    basis set group =>   3
Atom  13H    basis set group =>   3
Atom  14H    basis set group =>   3
Atom  15H    basis set group =>   3
Atom  16H    basis set group =>   3

Checking for AutoStart:
The File: sp_solv.gbw exists
Trying to determine its content:
     ... Fine, the file contains calculation information
     ... Fine, the calculation information was read
     ... Fine, the file contains a basis set
     ... Fine, the basis set was read
     ... Fine, the file contains a geometry
     ... Fine, the geometry was read
     ... Fine, the file contains a set of orbitals
     ... Fine, the orbitals can be read
     => possible old guess file was deleted
     => GBW file was renamed to GES file
     => GES file is set as startup file
     => Guess is set to MORead
     ... now leaving AutoStart

------------------------------------------------------------------------------
                             ORCA STARTUP CALCULATIONS
                           -- RI-GTO INTEGRALS CHOSEN --
------------------------------------------------------------------------------
------------------------------------------------------------------------------
                   ___                                                        
                  /   \      - P O W E R E D   B Y -                         
                 /     \                                                     
                 |  |  |   _    _      __       _____    __    __             
                 |  |  |  | |  | |    /  \     |  _  \  |  |  /  |          
                  \  \/   | |  | |   /    \    | | | |  |  | /  /          
                 / \  \   | |__| |  /  /\  \   | |_| |  |  |/  /          
                |  |  |   |  __  | /  /__\  \  |    /   |      \           
                |  |  |   | |  | | |   __   |  |    \   |  |\   \          
                \     /   | |  | | |  |  |  |  | |\  \  |  | \   \       
                 \___/    |_|  |_| |__|  |__|  |_| \__\ |__|  \__/        
                                                                              
                      - O R C A' S   B I G   F R I E N D -                    
                                      &                                       
                       - I N T E G R A L  F E E D E R -                       
                                                                              
 v1 FN, 2020, v2 2021, v3 2022-2024                                           
------------------------------------------------------------------------------


----------------------
SHARK INTEGRAL PACKAGE
----------------------

Number of atoms                             ...     17
Number of basis functions                   ...    177
Number of shells                            ...     89
Maximum angular momentum                    ...      2
Integral batch strategy                     ... SHARK/LIBINT Hybrid
RI-J (if used) integral strategy            ... SPLIT-RIJ (Revised 2003 algorithm where possible)
Printlevel                                  ...      1
Contraction scheme used                     ... SEGMENTED contraction
Prescreening option                         ... SCHWARTZ
   Thresh                                   ... 1.000e-10
   Tcut                                     ... 1.000e-11
   Tpresel                                  ... 1.000e-11 
Coulomb Range Separation                    ... NOT USED
Exchange Range Separation                   ... NOT USED
Multipole approximations                    ... NOT USED
Finite Nucleus Model                        ... NOT USED
CABS basis                                  ... NOT available
Auxiliary Coulomb fitting basis             ... AVAILABLE
   # of basis functions in Aux-J            ...    417
   # of shells in Aux-J                     ...    147
   Maximum angular momentum in Aux-J        ...      4
Auxiliary J/K fitting basis                 ... NOT available
Auxiliary Correlation fitting basis         ... NOT available
Auxiliary 'external' fitting basis          ... NOT available

Checking pre-screening integrals            ... done (  0.0 sec) Dimension = 89
Check shell pair data                       ... done (  0.0 sec)
Shell pair information
Shell pair cut-off parameter TPreSel        ...   1.0e-11
Total number of shell pairs                 ...      4005
Shell pairs after pre-screening             ...      3687
Total number of primitive shell pairs       ...     14718
Primitive shell pairs kept                  ...      9755
          la=0 lb=0:   1260 shell pairs
          la=1 lb=0:   1431 shell pairs
          la=1 lb=1:    434 shell pairs
          la=2 lb=0:    339 shell pairs
          la=2 lb=1:    197 shell pairs
          la=2 lb=2:     26 shell pairs

Calculating one electron integrals          ... done (  0.0 sec)
Calculating RI/J V-Matrix + Cholesky decomp.... done (  0.1 sec)
Calculating Nuclear repulsion               ... done (  0.0 sec) ENN=    294.431325732138 Eh

Diagonalization of the overlap matrix:
Smallest eigenvalue                        ... 2.508e-04
Time for diagonalization                   ...    0.003 sec
Threshold for overlap eigenvalues          ... 1.000e-07
Number of eigenvalues below threshold      ... 0
Time for construction of square roots      ...    0.023 sec
Total time needed                          ...    0.039 sec

-------------------
DFT GRID GENERATION
-------------------

General Integration Accuracy     IntAcc      ... 4.388
Radial Grid Type                 RadialGrid  ... OptM3 with GC (2021)
Angular Grid (max. ang.)         AngularGrid ... 4 (Lebedev-302)
Angular grid pruning method      GridPruning ... 4 (adaptive)
Weight generation scheme         WeightScheme... mBecke (2022)
Basis function cutoff            BFCut       ... 1.0000e-10
Integration weight cutoff        WCut        ... 1.0000e-14
Partially contracted basis set               ... off
Rotationally invariant grid construction     ... off
Angular grids for H and He will be reduced by one unit

Total number of grid points                  ...    72554
Total number of batches                      ...     1143
Average number of points per batch           ...       63
Average number of grid points per atom       ...     4268
Initializing property integral containers    ... done (  0.0 sec)

SHARK setup successfully completed in   1.0 seconds

Maximum memory used throughout the entire STARTUP-calculation: 32.7 MB
-------------------------------------------------------------------------------
                                 ORCA GUESS
                   Start orbitals & Density for SCF / CASSCF
-------------------------------------------------------------------------------

------------
SCF SETTINGS
------------
Hamiltonian:
 Density Functional     Method          .... DFT(GTOs)
  Functional kind                       .... Exchange
  Functional name                       .... Re-regularized SCAN exchange by Furness et al
  Functional family                     .... MGGA
  Functional refs                              
    [ 0] J. W. Furness, A. D. Kaplan, J. Ning, J. P. Perdew, and J. Sun.,  J. Phys. Chem. Lett. 11, 8208-8215 (2020), doi: 10.1021/acs.jpclett.0c02405
    [ 1] J. W. Furness, A. D. Kaplan, J. Ning, J. P. Perdew, and J. Sun.,  J. Phys. Chem. Lett. 11, 9248-9248 (2020), doi: 10.1021/acs.jpclett.0c03077
  Functional external parameters        .... 6
    Parameter  0 _c1        =  6.670000e-01 : c1 parameter        
    Parameter  1 _c2        =  8.000000e-01 : c2 parameter        
    Parameter  2 _d         =  1.240000e+00 : d parameter         
    Parameter  3 _k1        =  6.500000e-02 : k1 parameter        
    Parameter  4 _eta       =  1.000000e-03 : eta parameter       
    Parameter  5 _dp2       =  3.610000e-01 : dp2 parameter       
  Functional kind                       .... Correlation
  Functional name                       .... Re-regularized SCAN correlation by Furness et al
  Functional family                     .... MGGA
  Functional refs                              
    [ 0] J. W. Furness, A. D. Kaplan, J. Ning, J. P. Perdew, and J. Sun.,  J. Phys. Chem. Lett. 11, 8208-8215 (2020), doi: 10.1021/acs.jpclett.0c02405
    [ 1] J. W. Furness, A. D. Kaplan, J. Ning, J. P. Perdew, and J. Sun.,  J. Phys. Chem. Lett. 11, 9248-9248 (2020), doi: 10.1021/acs.jpclett.0c03077
  Functional external parameters        .... 1
    Parameter  0 _eta       =  1.000000e-03 : Regularization parameter
 Gradients option       PostSCFGGA      .... off
 RI-approximation to the Coulomb term is turned on
   Number of AuxJ basis functions       .... 417


General Settings:
 Integral files         IntName         .... sp_solv
 Hartree-Fock type      HFTyp           .... RHF
 Total Charge           Charge          ....    0
 Multiplicity           Mult            ....    1
 Number of Electrons    NEL             ....   58
 Basis Dimension        Dim             ....  177
 Nuclear Repulsion      ENuc            ....    294.4313257321 Eh

Convergence Acceleration:
 AO-DIIS                CNVDIIS         .... on
   Start iteration      DIISMaxIt       ....    12
   Startup error        DIISStart       ....  0.200000
   # of expansion vecs  DIISMaxEq       ....     5
   Bias factor          DIISBfac        ....   1.050
   Max. coefficient     DIISMaxC        ....  10.000
 MO-DIIS                CNVKDIIS        .... off
 Trust-Rad. Augm. Hess. CNVTRAH         .... auto
   Auto Start mean grad. ratio tolernc. ....  1.125000
   Auto Start start iteration           ....     1
   Auto Start num. interpolation iter.  ....    10
   Max. Number of Micro iterations      ....    24
   Max. Number of Macro iterations      .... Maxiter - #DIIS iter
   Number of Davidson start vectors     ....     2
   Converg. threshold    (grad. norm)   ....   3.330e-04
   Grad. Scal. Fac. for Micro threshold ....   0.100
   Minimum threshold for Micro iter.    ....   1.000e-02
   NR start threshold (gradient norm)   ....   1.000e-04
   Initial trust radius                 ....   0.400
   Minimum AH scaling param. (alpha)    ....   1.000
   Maximum AH scaling param. (alpha)    .... 1000.000
   Quad. conv. algorithm                .... NR
   White noise on init. David. guess    .... on
   Maximum white noise                  ....   0.010
   Pseudo random numbers                .... off
   Inactive MOs                         .... canonical
   Orbital update algorithm             .... Taylor
   Preconditioner                       .... Diag
   Full preconditioner red. dimension   ....   250
   COSX micro iterations for RIJONX calc.... off
 SOSCF                  CNVSOSCF        .... on
   Start iteration      SOSCFMaxIt      ....   150
   Startup grad/error   SOSCFStart      ....  0.003300
   Hessian update       SOSCFHessUp     .... L-BFGS
 Level Shifting         CNVShift        .... on
   Level shift para.    LevelShift      ....    0.2500
   Turn off err/grad.   ShiftErr        ....    0.0010
 Zerner damping         CNVZerner       .... off
 Static damping         CNVDamp         .... on
   Fraction old density DampFac         ....    0.7000
   Max. Damping (<1)    DampMax         ....    0.9800
   Min. Damping (>=0)   DampMin         ....    0.0000
   Turn off err/grad.   DampErr         ....    0.1000

SCF Procedure:
 Maximum # iterations   MaxIter         ....   125
 SCF integral mode      SCFMode         .... Direct
   Integral package                     .... SHARK and LIBINT hybrid scheme
 Reset frequency        DirectResetFreq ....    20
 Integral Threshold     Thresh          ....  1.000e-10 Eh
 Primitive CutOff       TCut            ....  1.000e-11 Eh

Convergence Tolerance:
 Convergence Check Mode ConvCheckMode   .... Total+1el-Energy
 Convergence forced     ConvForced      .... 0
 Energy Change          TolE            ....  1.000e-06 Eh
 1-El. energy change                    ....  1.000e-03 Eh
 Orbital Gradient       TolG            ....  3.330e-04
 Orbital Rotation angle TolX            ....  3.330e-04
 DIIS Error             TolErr          ....  1.000e-06

---------------------
INITIAL GUESS: MOREAD
---------------------
Guess MOs are being read from file: sp_solv.ges
Input Geometry matches current geometry (good)
Atom 0: N(Shells)= 9 and 6 - projection required
Input basis set needs projection
NBasis(read)= 110
NBasis(calc)= 177
Basis set overlap was calculated
Using GuessMode=FMatrix for the initial guess
C*T matrix was formed
Effective Fockian was calculated
Effective Fockian was diagonalized
Initial density was built
                      ------------------
                      INITIAL GUESS DONE (   0.0 sec)
                      ------------------
             **** ENERGY FILE WAS UPDATED (sp_solv.en.tmp) ****
Finished Guess after   0.3 sec
Maximum memory used throughout the entire GUESS-calculation: 12.0 MB

-------------------------------------------------------------------------------------------
                                      ORCA LEAN-SCF
                              memory conserving SCF solver
-------------------------------------------------------------------------------------------

--------------------
CPCM SOLVATION MODEL
--------------------
CPCM parameters:
  Epsilon                                         ...      78.3550
  Refrac                                          ...       1.3328
  Rsolv                                           ...       1.3000
  Surface type                                    ... GAUSSIAN VDW
  Discretization scheme                           ... Constant charge density
    Threshold for H atoms                         ...       5.0000 (charges/Ang^2)
    Threshold for non-H atoms                     ...       5.0000 (charges/Ang^2)
  Epsilon function type                           ...         CPCM
Solvent:                                          ... WATER
SMD-CDS solvent descriptors:
  Soln                                            ...       1.3328
  Soln25                                          ...       1.3323
  Sola                                            ...       0.0000
  Solb                                            ...       0.0000
  Solg                                            ...       0.0000
  Solc                                            ...       0.0000
  Solh                                            ...       0.0000
Radii:
  Scheme                                          ... Element-dependent radii
  Radius for C  used is    3.4960 Bohr (=   1.8500 Ang.)
  Radius for Cl used is    4.4975 Bohr (=   2.3800 Ang.)
  Radius for H  used is    2.2677 Bohr (=   1.2000 Ang.)
Calculating surface                               ...        done! (  0.0s)
Cavity surface points                             ...         1379
Cavity Volume                                     ...     948.7655
Cavity Surface-area                               ...     585.1150
Calculating surface distance matrix               ...        done! (  0.0s)
Performing Cholesky decomposition & store         ...        done! (  0.1s)
Overall time for CPCM initialization              ...                 0.1s

----------------------------------------D-I-I-S--------------------------------------------
Iteration    Energy (Eh)           Delta-E    RMSDP     MaxDP     DIISErr   Damp  Time(sec)
-------------------------------------------------------------------------------------------
               ***  Starting incremental Fock matrix formation  ***
    1    -657.1454361554211800     0.00e+00  4.19e-03  1.30e-01  5.39e-01  0.700   2.4
    2    -657.1842851456474364    -3.88e-02  3.36e-03  8.55e-02  3.77e-01  0.700   2.3
    3    -657.2118875287732180    -2.76e-02  2.46e-03  6.27e-02  2.64e-01  0.700   2.2
                               ***Turning on AO-DIIS***
    4    -657.2313003474694142    -1.94e-02  1.79e-03  4.51e-02  1.85e-01  0.700   2.2
    5    -657.2449319170378885    -1.36e-02  1.28e-03  3.20e-02  1.29e-01  0.700   2.2
    6    -657.2544987613312060    -9.57e-03  9.05e-04  2.25e-02  9.06e-02  0.700   2.2
    7    -657.2612085136138376    -6.71e-03  2.13e-03  5.28e-02  6.34e-02  0.000   2.1
                              *** Initializing SOSCF ***
---------------------------------------S-O-S-C-F--------------------------------------
Iteration    Energy (Eh)           Delta-E    RMSDP     MaxDP     MaxGrad    Time(sec)
--------------------------------------------------------------------------------------
    8    -657.2769057715028111    -1.57e-02  2.01e-05  4.55e-04  2.82e-04     2.2
               *** Restarting incremental Fock matrix formation ***
    9    -657.2769060038865518    -2.32e-07  1.54e-05  3.56e-04  1.07e-04     2.4
   10    -657.2769056009923361     4.03e-07  8.98e-06  2.12e-04  1.77e-04     1.9
                 **** Energy Check signals convergence ****

               *****************************************************
               *                     SUCCESS                       *
               *           SCF CONVERGED AFTER  10 CYCLES          *
               *****************************************************


SMD CDS free energy correction energy :                 2.76011     Kcal/mol
Total Energy after SMD CDS correction =              -657.272507079 Eh
             **** ENERGY FILE WAS UPDATED (sp_solv.en.tmp) ****

----------------
TOTAL SCF ENERGY
----------------

Total Energy       :       -657.27250707926862 Eh          -17885.29419 eV

Components:
Nuclear Repulsion  :        294.43132573213813 Eh            8011.88369 eV
Electronic Energy  :       -951.70114129510625 Eh          -25897.10464 eV
One Electron Energy:      -1483.69156133302386 Eh          -40373.29992 eV
Two Electron Energy:        531.99042003791760 Eh           14476.19528 eV
CPCM Dielectric    :         -0.00709003802426 Eh              -0.19293 eV
SMD CDS (Gcds)     :          0.00439852172373 Eh               0.11969 eV

Virial components:
Potential Energy   :      -1312.54722795741509 Eh          -35716.22585 eV
Kinetic Energy     :        655.27472087814635 Eh           17830.93166 eV
Virial Ratio       :          2.00304877654741

DFT components:
N(Alpha)           :       29.000026742758 electrons
N(Beta)            :       29.000026742758 electrons
N(Total)           :       58.000053485517 electrons
E(X)               :      -57.487528261492 Eh       
E(C)               :       -1.922294245279 Eh       
E(XC)              :      -59.409822506771 Eh       

CPCM Solvation Model Properties:
Surface-charge          :         -0.03366302232197
Corrected charge        :         -0.00000000000000
Outlying charge corr.   :          0.00008552306852 Eh               0.00233 eV
Free-energy (cav+disp)  :          0.00439852172373 Eh               0.11969 eV

---------------
SCF CONVERGENCE
---------------

  Last Energy change         ...   -4.0289e-07  Tolerance :   1.0000e-06
  Last MAX-Density change    ...    2.1174e-04  Tolerance :   1.0000e-05
  Last RMS-Density change    ...    8.9762e-06  Tolerance :   1.0000e-06
  Last DIIS Error            ...    2.8219e-04  Tolerance :   1.0000e-06
  Last Orbital Gradient      ...    1.7716e-04  Tolerance :   3.3300e-04
  Last Orbital Rotation      ...    1.5972e-04  Tolerance :   3.3300e-04


----------------
ORBITAL ENERGIES
----------------

  NO   OCC          E(Eh)            E(eV) 
   0   2.0000    -101.197599     -2753.7267 
   1   2.0000     -10.079776      -274.2846 
   2   2.0000     -10.026734      -272.8413 
   3   2.0000     -10.020311      -272.6665 
   4   2.0000     -10.017242      -272.5830 
   5   2.0000     -10.007418      -272.3157 
   6   2.0000      -9.354021      -254.5358 
   7   2.0000      -7.099745      -193.1939 
   8   2.0000      -7.090286      -192.9365 
   9   2.0000      -7.090260      -192.9358 
  10   2.0000      -0.816268       -22.2118 
  11   2.0000      -0.758187       -20.6313 
  12   2.0000      -0.697620       -18.9832 
  13   2.0000      -0.632106       -17.2005 
  14   2.0000      -0.569000       -15.4833 
  15   2.0000      -0.530038       -14.4231 
  16   2.0000      -0.446415       -12.1476 
  17   2.0000      -0.418810       -11.3964 
  18   2.0000      -0.409306       -11.1378 
  19   2.0000      -0.385677       -10.4948 
  20   2.0000      -0.372670       -10.1409 
  21   2.0000      -0.347952        -9.4683 
  22   2.0000      -0.339836        -9.2474 
  23   2.0000      -0.323508        -8.8031 
  24   2.0000      -0.294838        -8.0229 
  25   2.0000      -0.288700        -7.8559 
  26   2.0000      -0.281453        -7.6587 
  27   2.0000      -0.262924        -7.1545 
  28   2.0000      -0.261161        -7.1065 
  29   0.0000       0.014222         0.3870 
  30   0.0000       0.098891         2.6910 
  31   0.0000       0.105807         2.8792 
  32   0.0000       0.122804         3.3417 
  33   0.0000       0.133694         3.6380 
  34   0.0000       0.140776         3.8307 
  35   0.0000       0.147403         4.0110 
  36   0.0000       0.157549         4.2871 
  37   0.0000       0.171682         4.6717 
  38   0.0000       0.175052         4.7634 
  39   0.0000       0.181381         4.9356 
*Only the first 10 virtual orbitals were printed.

                    ********************************
                    * MULLIKEN POPULATION ANALYSIS *
                    ********************************

-----------------------
MULLIKEN ATOMIC CHARGES
-----------------------
   0 C :   -0.532815
   1 C :   -0.262608
   2 C :   -0.274795
   3 C :   -0.295837
   4 C :   -0.188308
   5 Cl:   -0.253077
   6 H :    0.156072
   7 H :    0.163469
   8 H :    0.160477
   9 H :    0.147663
  10 H :    0.153993
  11 H :    0.160551
  12 H :    0.157330
  13 H :    0.167820
  14 H :    0.165773
  15 H :    0.186039
  16 H :    0.188254
Sum of atomic charges:   -0.0000000

--------------------------------
MULLIKEN REDUCED ORBITAL CHARGES
--------------------------------
  0 C s       :     3.344324  s :     3.344324
      pz      :     1.086119  p :     3.161372
      px      :     1.116053
      py      :     0.959201
      dz2     :     0.006640  d :     0.027119
      dxz     :     0.003219
      dyz     :     0.004651
      dx2y2   :     0.005554
      dxy     :     0.007055

  1 C s       :     3.243166  s :     3.243166
      pz      :     1.060101  p :     2.982088
      px      :     1.010510
      py      :     0.911477
      dz2     :     0.009151  d :     0.037354
      dxz     :     0.004947
      dyz     :     0.005289
      dx2y2   :     0.009277
      dxy     :     0.008689

  2 C s       :     3.217826  s :     3.217826
      pz      :     1.029623  p :     3.020866
      px      :     0.913458
      py      :     1.077785
      dz2     :     0.010008  d :     0.036103
      dxz     :     0.006694
      dyz     :     0.002174
      dx2y2   :     0.009975
      dxy     :     0.007252

  3 C s       :     3.222466  s :     3.222466
      pz      :     1.005624  p :     3.037547
      px      :     0.987073
      py      :     1.044850
      dz2     :     0.007589  d :     0.035824
      dxz     :     0.007153
      dyz     :     0.005757
      dx2y2   :     0.005799
      dxy     :     0.009527

  4 C s       :     3.263647  s :     3.263647
      pz      :     0.980269  p :     2.883700
      px      :     0.824926
      py      :     1.078505
      dz2     :     0.008178  d :     0.040961
      dxz     :     0.008863
      dyz     :     0.006386
      dx2y2   :     0.008125
      dxy     :     0.009409

  5 Cls       :     5.943664  s :     5.943664
      pz      :     3.821657  p :    11.263256
      px      :     3.498479
      py      :     3.943121
      dz2     :     0.007863  d :     0.046157
      dxz     :     0.013189
      dyz     :     0.004214
      dx2y2   :     0.010205
      dxy     :     0.010686

  6 H s       :     0.825587  s :     0.825587
      pz      :     0.004260  p :     0.018341
      px      :     0.008853
      py      :     0.005228

  7 H s       :     0.818131  s :     0.818131
      pz      :     0.005568  p :     0.018400
      px      :     0.007972
      py      :     0.004860

  8 H s       :     0.821296  s :     0.821296
      pz      :     0.010597  p :     0.018227
      px      :     0.003830
      py      :     0.003800

  9 H s       :     0.834448  s :     0.834448
      pz      :     0.004888  p :     0.017890
      px      :     0.008682
      py      :     0.004319

 10 H s       :     0.828141  s :     0.828141
      pz      :     0.010778  p :     0.017866
      px      :     0.003487
      py      :     0.003601

 11 H s       :     0.821405  s :     0.821405
      pz      :     0.003706  p :     0.018044
      px      :     0.003701
      py      :     0.010637

 12 H s       :     0.824628  s :     0.824628
      pz      :     0.010862  p :     0.018042
      px      :     0.003502
      py      :     0.003678

 13 H s       :     0.814206  s :     0.814206
      pz      :     0.009868  p :     0.017974
      px      :     0.003524
      py      :     0.004582

 14 H s       :     0.816244  s :     0.816244
      pz      :     0.003635  p :     0.017983
      px      :     0.005543
      py      :     0.008805

 15 H s       :     0.795596  s :     0.795596
      pz      :     0.003460  p :     0.018365
      px      :     0.005097
      py      :     0.009808

 16 H s       :     0.793693  s :     0.793693
      pz      :     0.010098  p :     0.018053
      px      :     0.003250
      py      :     0.004705


------------------------
MULLIKEN OVERLAP CHARGES
------------------------
B(  0-C ,  1-C ) :   0.3497 B(  0-C ,  2-C ) :  -0.2241 B(  0-C ,  3-C ) :   0.0685 
B(  0-C ,  6-H ) :   0.7826 B(  0-C ,  7-H ) :   0.8458 B(  0-C ,  8-H ) :   0.8356 
B(  0-C ,  9-H ) :  -0.0579 B(  0-C , 10-H ) :  -0.0937 B(  1-C ,  2-C ) :   0.4375 
B(  1-C ,  3-C ) :  -0.1599 B(  1-C ,  6-H ) :  -0.0660 B(  1-C ,  7-H ) :  -0.0874 
B(  1-C ,  8-H ) :  -0.0893 B(  1-C ,  9-H ) :   0.8351 B(  1-C , 10-H ) :   0.9114 
B(  1-C , 11-H ) :  -0.0778 B(  2-C ,  3-C ) :   0.2465 B(  2-C ,  4-C ) :  -0.0571 
B(  2-C ,  9-H ) :  -0.1033 B(  2-C , 10-H ) :  -0.0966 B(  2-C , 11-H ) :   0.8050 
B(  2-C , 12-H ) :   0.8547 B(  2-C , 13-H ) :  -0.1311 B(  3-C ,  4-C ) :   0.4315 
B(  3-C ,  5-Cl) :  -0.0934 B(  3-C , 12-H ) :  -0.1633 B(  3-C , 13-H ) :   0.8430 
B(  3-C , 14-H ) :   0.8117 B(  3-C , 15-H ) :  -0.0915 B(  3-C , 16-H ) :  -0.0939 
B(  4-C ,  5-Cl) :   0.3816 B(  4-C , 14-H ) :  -0.0626 B(  4-C , 15-H ) :   0.8357 
B(  4-C , 16-H ) :   0.8721 B(  5-Cl, 15-H ) :  -0.0784 B(  5-Cl, 16-H ) :  -0.0792 
B(  7-H ,  8-H ) :  -0.0502 B( 15-H , 16-H ) :  -0.0538 


                     *******************************
                     * LOEWDIN POPULATION ANALYSIS *
                     *******************************

----------------------
LOEWDIN ATOMIC CHARGES
----------------------
   0 C :   -0.436247
   1 C :   -0.316259
   2 C :   -0.308249
   3 C :   -0.331966
   4 C :   -0.318057
   5 Cl:   -0.039681
   6 H :    0.152843
   7 H :    0.152898
   8 H :    0.153023
   9 H :    0.153987
  10 H :    0.153718
  11 H :    0.162408
  12 H :    0.161135
  13 H :    0.164378
  14 H :    0.163629
  15 H :    0.166893
  16 H :    0.165545

-------------------------------
LOEWDIN REDUCED ORBITAL CHARGES
-------------------------------
  0 C s       :     2.973963  s :     2.973963
      pz      :     1.156396  p :     3.399128
      px      :     1.159095
      py      :     1.083638
      dz2     :     0.016520  d :     0.063156
      dxz     :     0.008248
      dyz     :     0.009557
      dx2y2   :     0.013286
      dxy     :     0.015545

  1 C s       :     2.939694  s :     2.939694
      pz      :     1.134946  p :     3.296001
      px      :     1.095342
      py      :     1.065713
      dz2     :     0.021278  d :     0.080563
      dxz     :     0.010854
      dyz     :     0.010196
      dx2y2   :     0.020044
      dxy     :     0.018191

  2 C s       :     2.936673  s :     2.936673
      pz      :     1.122971  p :     3.293902
      px      :     1.046943
      py      :     1.123988
      dz2     :     0.022807  d :     0.077674
      dxz     :     0.013999
      dyz     :     0.004319
      dx2y2   :     0.021608
      dxy     :     0.014941

  3 C s       :     2.945487  s :     2.945487
      pz      :     1.113112  p :     3.308464
      px      :     1.079330
      py      :     1.116022
      dz2     :     0.016532  d :     0.078015
      dxz     :     0.015438
      dyz     :     0.013281
      dx2y2   :     0.011819
      dxy     :     0.020945

  4 C s       :     2.998845  s :     2.998845
      pz      :     1.099427  p :     3.229957
      px      :     0.983809
      py      :     1.146721
      dz2     :     0.017563  d :     0.089255
      dxz     :     0.019488
      dyz     :     0.014284
      dx2y2   :     0.016396
      dxy     :     0.021524

  5 Cls       :     5.696664  s :     5.696664
      pz      :     3.814304  p :    11.242517
      px      :     3.507934
      py      :     3.920279
      dz2     :     0.015698  d :     0.100500
      dxz     :     0.030353
      dyz     :     0.008515
      dx2y2   :     0.023299
      dxy     :     0.022635

  6 H s       :     0.803343  s :     0.803343
      pz      :     0.009616  p :     0.043813
      px      :     0.021894
      py      :     0.012303

  7 H s       :     0.802760  s :     0.802760
      pz      :     0.013323  p :     0.044342
      px      :     0.019418
      py      :     0.011601

  8 H s       :     0.803261  s :     0.803261
      pz      :     0.026577  p :     0.043715
      px      :     0.008519
      py      :     0.008619

  9 H s       :     0.802801  s :     0.802801
      pz      :     0.011677  p :     0.043212
      px      :     0.021252
      py      :     0.010283

 10 H s       :     0.803064  s :     0.803064
      pz      :     0.026711  p :     0.043218
      px      :     0.008057
      py      :     0.008450

 11 H s       :     0.793673  s :     0.793673
      pz      :     0.008675  p :     0.043919
      px      :     0.008867
      py      :     0.026376

 12 H s       :     0.794806  s :     0.794806
      pz      :     0.027279  p :     0.044059
      px      :     0.008051
      py      :     0.008729

 13 H s       :     0.791501  s :     0.791501
      pz      :     0.024849  p :     0.044122
      px      :     0.008198
      py      :     0.011075

 14 H s       :     0.792334  s :     0.792334
      pz      :     0.008508  p :     0.044038
      px      :     0.013530
      py      :     0.021999

 15 H s       :     0.787120  s :     0.787120
      pz      :     0.008297  p :     0.045987
      px      :     0.012343
      py      :     0.025348

 16 H s       :     0.789380  s :     0.789380
      pz      :     0.025744  p :     0.045075
      px      :     0.007476
      py      :     0.011855


---------------------------------
LOEWDIN BOND ORDERS (THRESH 0.050000)
---------------------------------
B(  0-C ,  1-C ) :   1.1431 B(  0-C ,  2-C ) :   0.0625 B(  0-C ,  6-H ) :   0.9281 
B(  0-C ,  7-H ) :   0.9251 B(  0-C ,  8-H ) :   0.9284 B(  1-C ,  2-C ) :   1.1164 
B(  1-C ,  3-C ) :   0.0647 B(  1-C ,  9-H ) :   0.8946 B(  1-C , 10-H ) :   0.8956 
B(  2-C ,  3-C ) :   1.0811 B(  2-C ,  4-C ) :   0.0799 B(  2-C , 11-H ) :   0.8891 
B(  2-C , 12-H ) :   0.8866 B(  3-C ,  4-C ) :   1.1201 B(  3-C ,  5-Cl) :   0.1279 
B(  3-C , 13-H ) :   0.8888 B(  3-C , 14-H ) :   0.8937 B(  4-C ,  5-Cl) :   1.3451 
B(  4-C , 15-H ) :   0.8898 B(  4-C , 16-H ) :   0.8933 

------------------------------------------
LOEWDIN REDUCED ORBITAL POPULATIONS PER MO
-------------------------------------------
THRESHOLD FOR PRINTING IS 0.1%%
                      0         1         2         3         4         5   
                 -101.19760 -10.07978 -10.02673 -10.02031 -10.01724 -10.00742
                   2.00000   2.00000   2.00000   2.00000   2.00000   2.00000
                  --------  --------  --------  --------  --------  --------
 0 C  s               0.0       0.0       0.0       0.0       0.0      99.7
 1 C  s               0.0       0.0       0.0       0.1      99.6       0.0
 2 C  s               0.0       0.0       0.0      99.6       0.1       0.0
 3 C  s               0.0       0.0      99.7       0.0       0.0       0.0
 4 C  s               0.0      99.7       0.0       0.0       0.0       0.0
 5 Cl s             100.0       0.0       0.0       0.0       0.0       0.0

                      6         7         8         9        10        11   
                  -9.35402  -7.09974  -7.09029  -7.09026  -0.81627  -0.75819
                   2.00000   2.00000   2.00000   2.00000   2.00000   2.00000
                  --------  --------  --------  --------  --------  --------
 0 C  s               0.0       0.0       0.0       0.0       0.2       8.6
 0 C  py              0.0       0.0       0.0       0.0       0.1       2.2
 1 C  s               0.0       0.0       0.0       0.0       0.6      18.7
 1 C  pz              0.0       0.0       0.0       0.0       0.0       0.3
 1 C  px              0.0       0.0       0.0       0.0       0.3       1.5
 2 C  s               0.0       0.0       0.0       0.0       2.2      19.8
 2 C  pz              0.0       0.0       0.0       0.0       0.1       0.6
 2 C  px              0.0       0.0       0.0       0.0       0.7       0.1
 2 C  py              0.0       0.0       0.0       0.0       0.2       0.9
 3 C  s               0.0       0.0       0.0       0.0       7.9       8.9
 3 C  pz              0.0       0.0       0.0       0.0       0.7       0.4
 3 C  px              0.0       0.0       0.0       0.0       1.0       3.3
 3 C  py              0.0       0.0       0.0       0.0       1.2       0.1
 4 C  s               0.0       0.0       0.0       0.0      22.7       0.0
 4 C  pz              0.0       0.0       0.0       0.0       2.3       0.0
 4 C  px              0.1       0.0       0.0       0.0       3.3       4.6
 4 C  py              0.0       0.0       0.0       0.0       0.0       1.2
 5 Cl s              99.8       0.0       0.0       0.0      45.0      10.5
 5 Cl pz              0.0      23.3      33.1      43.6       0.5       0.0
 5 Cl px              0.0      72.5      23.5       4.0       1.7       0.1
 5 Cl py              0.0       4.2      43.3      52.4       0.1       0.0
 5 Cl dxz             0.0       0.0       0.0       0.0       0.3       0.0
 5 Cl dx2y2           0.0       0.0       0.0       0.0       0.2       0.0
 6 H  s               0.0       0.0       0.0       0.0       0.0       1.1
 7 H  s               0.0       0.0       0.0       0.0       0.0       1.2
 8 H  s               0.0       0.0       0.0       0.0       0.0       1.1
 9 H  s               0.0       0.0       0.0       0.0       0.1       2.5
 9 H  px              0.0       0.0       0.0       0.0       0.0       0.2
10 H  s               0.0       0.0       0.0       0.0       0.1       2.5
10 H  pz              0.0       0.0       0.0       0.0       0.0       0.2
11 H  s               0.0       0.0       0.0       0.0       0.2       2.6
11 H  py              0.0       0.0       0.0       0.0       0.0       0.2
12 H  s               0.0       0.0       0.0       0.0       0.3       2.6
12 H  pz              0.0       0.0       0.0       0.0       0.0       0.2
13 H  s               0.0       0.0       0.0       0.0       0.8       1.3
14 H  s               0.0       0.0       0.0       0.0       0.9       1.1
15 H  s               0.0       0.0       0.0       0.0       2.6       0.0
15 H  py              0.0       0.0       0.0       0.0       0.2       0.0
16 H  s               0.0       0.0       0.0       0.0       2.6       0.0
16 H  pz              0.0       0.0       0.0       0.0       0.2       0.0

                     12        13        14        15        16        17   
                  -0.69762  -0.63211  -0.56900  -0.53004  -0.44641  -0.41881
                   2.00000   2.00000   2.00000   2.00000   2.00000   2.00000
                  --------  --------  --------  --------  --------  --------
 0 C  s              16.4      14.0       5.2       3.1       0.1       0.2
 0 C  pz              0.0       0.0       0.0       1.2       0.2       8.4
 0 C  px              0.1       0.0       0.0       0.6       5.5       0.0
 0 C  py              0.7       1.1       2.9       4.9       0.0       4.4
 1 C  s              10.7       0.8       5.4       9.1       0.1       0.2
 1 C  pz              0.0       0.1       0.0       4.0       0.6      16.4
 1 C  px              0.6       1.0       0.5       3.6       6.9       0.7
 1 C  py              2.9       9.0       2.9       0.2       0.1       0.6
 1 C  dx2y2           0.1       0.1       0.0       0.0       0.0       0.0
 2 C  s               0.8      13.4       0.0       8.5       0.1       0.2
 2 C  pz              0.0       0.0       0.6       6.9       1.6      11.2
 2 C  px              6.9       0.9       5.9       0.6       0.0       0.0
 2 C  py              0.4       0.9       0.1       1.4       4.6      10.2
 2 C  dxz             0.1       0.0       0.1       0.0       0.0       0.0
 3 C  s              14.7       0.5       9.1       3.8       0.0       0.2
 3 C  pz              0.3       0.0       3.4       6.2       2.5       1.5
 3 C  px              0.1       4.6       0.2       2.4       7.8       2.1
 3 C  py              0.1       2.5       2.2       0.2      11.8       4.7
 3 C  dxz             0.0       0.1       0.0       0.1       0.0       0.0
 4 C  s               4.3       9.9      10.8       0.3       0.0       0.1
 4 C  pz              0.0       0.4       5.9       3.5       2.9       3.4
 4 C  px              4.4       1.4       0.1       0.1       6.1       4.0
 4 C  py              2.1       0.0       2.1       0.9      17.7       2.1
 4 C  dxz             0.1       0.1       0.0       0.0       0.0       0.0
 5 Cl s              11.6       9.2       4.4       0.0       0.1       0.3
 5 Cl pz              0.1       0.6       2.0       0.2       0.7       3.2
 5 Cl px              0.7       2.1       2.6       0.0       0.1       0.8
 5 Cl py              0.1       0.1       0.0       0.1       3.0       0.0
 5 Cl dxz             0.0       0.2       0.5       0.0       0.0       0.2
 5 Cl dyz             0.0       0.0       0.0       0.0       0.1       0.0
 5 Cl dx2y2           0.0       0.2       0.2       0.0       0.1       0.0
 5 Cl dxy             0.0       0.0       0.0       0.0       0.2       0.0
 6 H  s               3.1       3.8       2.0       1.1       1.2       1.3
 6 H  px              0.2       0.2       0.1       0.1       0.0       0.1
 7 H  s               2.7       3.8       2.1       1.8       1.0       2.9
 7 H  px              0.1       0.2       0.1       0.1       0.0       0.1
 8 H  s               2.8       3.4       1.8       2.7       0.1       1.3
 8 H  pz              0.2       0.3       0.1       0.2       0.0       0.0
 9 H  s               2.0       0.2       2.6       4.2       2.3       2.3
 9 H  pz              0.0       0.0       0.0       0.1       0.0       0.0
 9 H  px              0.1       0.0       0.2       0.1       0.0       0.1
10 H  s               1.8       0.2       1.7       6.6       0.0       4.2
10 H  pz              0.2       0.0       0.1       0.4       0.0       0.1
11 H  s               0.2       4.1       0.0       3.7       0.8       5.5
11 H  py              0.0       0.3       0.0       0.2       0.0       0.2
12 H  s               0.2       2.8       0.1       7.2       0.2       3.6
12 H  pz              0.0       0.2       0.0       0.4       0.0       0.1
13 H  s               2.3       0.1       3.9       4.1       2.8       0.0
13 H  pz              0.2       0.0       0.2       0.2       0.1       0.0
14 H  s               2.8       0.1       4.3       2.0       5.5       0.2
14 H  px              0.1       0.0       0.1       0.0       0.0       0.0
14 H  py              0.2       0.0       0.2       0.1       0.1       0.0
15 H  s               0.7       3.1       5.4       0.7       6.7       0.4
15 H  px              0.0       0.0       0.1       0.0       0.0       0.1
15 H  py              0.1       0.2       0.3       0.0       0.2       0.0
16 H  s               0.9       2.7       5.7       0.8       4.8       1.3
16 H  pz              0.1       0.2       0.3       0.0       0.2       0.0
16 H  py              0.0       0.0       0.1       0.0       0.0       0.1

                     18        19        20        21        22        23   
                  -0.40931  -0.38568  -0.37267  -0.34795  -0.33984  -0.32351
                   2.00000   2.00000   2.00000   2.00000   2.00000   2.00000
                  --------  --------  --------  --------  --------  --------
 0 C  s               0.1       0.1       0.0       0.1       0.0       0.0
 0 C  pz              3.8       0.3      19.1       0.8       1.0      14.4
 0 C  px              1.6      14.3       0.3      12.5      13.5       0.1
 0 C  py              1.6       0.9       0.7       8.3       6.2       0.3
 0 C  dz2             0.0       0.0       0.1       0.1       0.0       0.2
 0 C  dyz             0.0       0.0       0.0       0.0       0.0       0.1
 0 C  dxy             0.0       0.0       0.0       0.1       0.2       0.0
 1 C  s               0.2       0.1       0.0       0.1       0.3       0.1
 1 C  pz              4.8       0.3       4.9       0.1       0.0       4.3
 1 C  px              2.0      14.5       0.0       0.0       0.3       0.4
 1 C  py              2.9       0.1       0.3      12.6       4.5       0.0
 1 C  dyz             0.0       0.0       0.1       0.0       0.0       0.2
 1 C  dxy             0.0       0.0       0.0       0.0       0.2       0.0
 2 C  s               0.2       0.1       0.3       0.3       0.4       0.1
 2 C  pz              0.1       0.2       6.7       0.5       2.8       9.4
 2 C  px              5.2       3.2       0.1       8.1       0.6       3.6
 2 C  py              7.5       3.8       0.2       3.1       1.1       0.1
 2 C  dz2             0.0       0.0       0.0       0.1       0.0       0.2
 2 C  dxz             0.0       0.0       0.1       0.1       0.0       0.0
 2 C  dxy             0.0       0.1       0.0       0.0       0.1       0.0
 3 C  s               0.0       0.3       0.4       0.1       0.1       0.3
 3 C  pz              7.5       1.2       5.5       0.2       0.6      18.1
 3 C  px              2.0       0.5       2.6       7.0       4.8       0.5
 3 C  py              0.0       0.1       4.3       1.4      16.5       0.4
 3 C  dz2             0.0       0.0       0.0       0.0       0.1       0.3
 3 C  dxz             0.0       0.0       0.0       0.2       0.1       0.0
 3 C  dx2y2           0.0       0.1       0.0       0.0       0.1       0.1
 3 C  dxy             0.0       0.0       0.1       0.0       0.1       0.2
 4 C  s               0.1       0.1       0.2       0.3       0.1       0.3
 4 C  pz             11.2       0.4      14.4       0.1       0.2       5.2
 4 C  px              1.8      13.0       0.3       5.7       0.3       0.3
 4 C  py              6.2       5.5       2.4       3.3       6.2       0.2
 4 C  dz2             0.0       0.0       0.0       0.0       0.1       0.1
 4 C  dxz             0.1       0.0       0.0       0.1       0.1       0.1
 4 C  dx2y2           0.0       0.1       0.0       0.1       0.2       0.0
 5 Cl s               2.1       1.2       0.1       0.4       0.0       0.0
 5 Cl pz              0.6       4.3       1.7       9.4       0.1       0.4
 5 Cl px             18.4       6.8       5.5       7.2       0.7       4.2
 5 Cl py              0.1       7.2       1.9       0.6       4.0       0.0
 5 Cl dz2             0.1       0.0       0.2       0.0       0.0       0.1
 5 Cl dx2y2           0.3       0.0       0.1       0.0       0.0       0.0
 5 Cl dxy             0.0       0.3       0.1       0.0       0.1       0.0
 6 H  s               0.7       5.8       1.8       1.9       8.2       0.5
 6 H  py              0.0       0.1       0.0       0.2       0.0       0.0
 7 H  s               0.4       1.7       2.0       6.2       2.8       3.7
 7 H  pz              0.0       0.1       0.0       0.2       0.0       0.0
 7 H  px              0.0       0.0       0.1       0.0       0.0       0.1
 7 H  py              0.0       0.1       0.0       0.0       0.1       0.0
 8 H  s               1.7       0.4       7.4       1.9       0.3       7.6
 8 H  pz              0.0       0.0       0.1       0.1       0.0       0.1
 8 H  px              0.0       0.1       0.0       0.1       0.1       0.0
 9 H  s               1.9       3.3       0.6       0.8       0.0       1.2
10 H  s               1.7       0.2       1.6       0.4       0.0       2.5
10 H  py              0.0       0.0       0.0       0.1       0.1       0.0
11 H  s               4.4       0.7       0.1       2.1       0.0       0.2
11 H  py              0.1       0.0       0.0       0.0       0.0       0.0
12 H  s               0.0       0.0       3.7       1.2       0.4       4.8
12 H  pz              0.0       0.0       0.1       0.1       0.0       0.0
13 H  s               1.4       0.1       1.9       0.2       3.5      10.7
13 H  pz              0.0       0.0       0.0       0.0       0.1       0.1
13 H  py              0.0       0.0       0.1       0.0       0.0       0.1
14 H  s               0.3       0.0       1.4       0.0      11.9       0.2
14 H  pz              0.0       0.0       0.0       0.0       0.0       0.2
14 H  px              0.0       0.0       0.1       0.1       0.1       0.0
15 H  s               0.6       6.6       1.3       0.1       3.7       0.1
15 H  px              0.1       0.0       0.0       0.1       0.0       0.0
15 H  py              0.0       0.2       0.0       0.0       0.0       0.0
16 H  s               4.8       0.6       3.7       0.2       1.9       2.7
16 H  py              0.0       0.0       0.1       0.0       0.0       0.0

                     24        25        26        27        28        29   
                  -0.29484  -0.28870  -0.28145  -0.26292  -0.26116   0.01422
                   2.00000   2.00000   2.00000   2.00000   2.00000   0.00000
                  --------  --------  --------  --------  --------  --------
 0 C  s               0.6       0.0       0.1       0.1       0.1       0.2
 0 C  pz              0.9       7.5       0.1       0.0       0.1       0.1
 0 C  px              2.8       0.2       5.6       0.5       0.2       0.3
 0 C  py             14.2       0.6       4.0       0.2       0.7       0.2
 0 C  dz2             0.1       0.2       0.0       0.0       0.0       0.0
 0 C  dyz             0.0       0.2       0.0       0.0       0.0       0.0
 0 C  dx2y2           0.1       0.0       0.0       0.0       0.0       0.0
 0 C  dxy             0.1       0.0       0.4       0.0       0.0       0.0
 1 C  s               0.3       0.2       0.3       0.0       0.0       0.1
 1 C  pz              2.2      18.3       0.0       0.0       0.2       0.0
 1 C  px              6.2       0.2      13.7       0.4       1.7       0.1
 1 C  py             10.8       1.2       4.7       0.2       0.3       0.1
 1 C  dz2             0.2       0.6       0.0       0.0       0.0       0.0
 1 C  dxz             0.0       0.1       0.2       0.0       0.0       0.0
 1 C  dyz             0.0       0.1       0.0       0.0       0.0       0.0
 1 C  dx2y2           0.4       0.1       0.0       0.0       0.1       0.0
 1 C  dxy             0.1       0.0       0.3       0.0       0.0       0.0
 2 C  s               0.0       0.4       0.2       0.0       0.0       1.7
 2 C  pz              3.0      12.1       0.0       0.0       0.1       0.2
 2 C  px              4.4       0.0       8.2       0.1       3.5       0.9
 2 C  py              6.2       1.5      11.6       0.9       1.4       0.0
 2 C  dz2             0.2       0.5       0.0       0.0       0.0       0.1
 2 C  dxz             0.0       0.1       0.1       0.0       0.1       0.0
 2 C  dx2y2           0.4       0.2       0.1       0.0       0.1       0.0
 2 C  dxy             0.0       0.0       0.3       0.0       0.0       0.1
 3 C  s               0.4       0.6       0.0       0.0       0.3       0.4
 3 C  pz              0.5       6.6       0.0       0.0       0.4       0.2
 3 C  px              1.5       1.4       5.5       0.3       6.2       0.0
 3 C  py              0.5       0.3       5.3       1.4       3.0       0.2
 3 C  dz2             0.0       0.2       0.1       0.1       0.0       0.3
 3 C  dxz             0.1       0.0       0.0       0.0       0.1       0.0
 3 C  dx2y2           0.0       0.0       0.0       0.0       0.0       0.2
 3 C  dxy             0.0       0.0       0.3       0.0       0.0       0.4
 4 C  s               0.6       0.1       0.0       0.0       0.2       7.4
 4 C  pz              0.2       0.8       0.2       0.6       3.2       7.6
 4 C  px              1.2       0.0       0.0       1.1       1.3      22.6
 4 C  py              0.2       0.1       0.4       5.4       1.3       1.4
 4 C  dz2             0.1       0.1       0.0       0.3       0.1       0.0
 4 C  dxz             0.0       0.0       0.0       0.0       0.2       0.6
 4 C  dyz             0.0       0.0       0.0       0.2       0.1       0.0
 4 C  dx2y2           0.1       0.0       0.2       0.0       0.0       0.4
 4 C  dxy             0.1       0.1       0.0       0.3       0.2       0.1
 5 Cl s               0.0       0.0       0.0       0.0       0.0       5.3
 5 Cl pz             12.7       2.1       3.8       7.9      40.2       6.0
 5 Cl px              0.5       0.1       0.9      11.7      11.3      19.4
 5 Cl py              2.4       0.5       6.2      53.1      16.4       1.2
 5 Cl dz2             0.0       0.0       0.0       0.0       0.1       0.4
 5 Cl dxz             0.0       0.0       0.0       0.0       0.0       8.5
 5 Cl dyz             0.0       0.0       0.0       0.1       0.0       0.6
 5 Cl dx2y2           0.0       0.0       0.0       0.0       0.0       5.9
 5 Cl dxy             0.0       0.0       0.0       0.1       0.1       1.3
 6 H  s               0.1       0.5       6.3       0.5       0.0       0.2
 6 H  py              0.2       0.0       0.0       0.0       0.0       0.0
 7 H  s               2.5       3.4       1.3       0.2       0.5       0.0
 8 H  s               1.5       5.8       0.1       0.0       0.0       0.1
 8 H  py              0.1       0.0       0.0       0.0       0.0       0.0
 9 H  s               4.6       5.6       3.7       0.2       2.0       0.0
 9 H  pz              0.1       0.0       0.0       0.0       0.0       0.0
 9 H  px              0.0       0.1       0.0       0.0       0.0       0.0
 9 H  py              0.0       0.0       0.1       0.0       0.0       0.0
10 H  s               3.6      12.8       0.1       0.1       0.1       0.0
10 H  px              0.1       0.0       0.1       0.0       0.0       0.0
11 H  s               8.0       0.1       4.8       0.4       1.6       0.9
11 H  pz              0.0       0.1       0.0       0.0       0.0       0.0
11 H  px              0.0       0.0       0.1       0.0       0.0       0.1
12 H  s               3.3       9.1       0.2       0.0       0.1       0.3
12 H  py              0.0       0.0       0.1       0.0       0.0       0.1
13 H  s               0.0       3.7       1.6       0.9       0.0       0.2
14 H  s               0.1       0.0       7.0       1.7       0.0       0.4
15 H  s               0.3       0.1       0.4       6.2       0.3       0.1
15 H  pz              0.0       0.0       0.0       0.0       0.0       0.3
15 H  px              0.0       0.0       0.0       0.0       0.0       0.9
16 H  s               0.5       0.5       0.0       4.4       1.4       0.1
16 H  pz              0.0       0.0       0.0       0.0       0.0       0.3
16 H  px              0.0       0.0       0.0       0.0       0.0       0.8

                     30        31        32        33        34        35   
                   0.09889   0.10581   0.12280   0.13369   0.14078   0.14740
                   0.00000   0.00000   0.00000   0.00000   0.00000   0.00000
                  --------  --------  --------  --------  --------  --------
 0 C  s              13.8       2.3       1.7      11.6       1.8       2.3
 0 C  pz              0.5       0.2       2.3       1.3       6.4       1.4
 0 C  px              0.9       1.4       1.5       1.8       1.5       1.8
 0 C  py              2.0       4.4       0.5       7.3       7.3       1.2
 0 C  dz2             0.0       0.1       0.0       0.1       0.0       0.1
 0 C  dxz             0.0       0.0       0.5       0.1       0.0       0.0
 0 C  dyz             0.0       0.1       0.0       0.0       0.1       0.2
 0 C  dx2y2           0.1       0.4       0.2       0.1       0.3       0.1
 0 C  dxy             0.0       0.1       0.0       0.1       0.2       0.1
 1 C  s               2.0      13.3       3.5       0.3       5.8       0.4
 1 C  pz              0.3       0.4       1.6       1.9       2.8       6.0
 1 C  px              0.8       1.5      13.4       0.1       3.6       3.9
 1 C  py              1.5       1.6       0.8       6.0       2.0       0.6
 1 C  dz2             0.0       0.1       0.4       0.7       0.0       0.0
 1 C  dxz             0.1       0.1       0.5       0.0       0.2       0.3
 1 C  dyz             0.0       0.0       0.0       0.1       0.0       0.3
 1 C  dx2y2           0.4       0.0       0.1       0.0       0.0       0.0
 1 C  dxy             0.0       0.2       0.1       0.2       0.2       0.2
 2 C  s               0.5       9.1       3.6       3.1       0.7       3.8
 2 C  pz              0.4       0.6       2.3       1.9       6.9      13.0
 2 C  px              1.4       2.4       2.8       2.1       1.6       4.9
 2 C  py              1.1       1.7       9.1       5.2       1.3       5.1
 2 C  dz2             0.1       0.3       0.0       0.1       1.4       0.0
 2 C  dxz             0.1       0.1       0.1       0.3       0.0       0.3
 2 C  dyz             0.0       0.2       0.4       0.0       0.1       0.8
 2 C  dx2y2           0.3       0.2       0.7       0.1       0.0       0.1
 2 C  dxy             0.0       0.1       0.8       0.0       0.3       0.0
 3 C  s               7.0       2.2       2.9       1.0       1.4      11.1
 3 C  pz              1.4       2.3       3.0       1.6       4.4       8.8
 3 C  px              1.1       8.3       2.2       2.1       0.9       2.1
 3 C  py              0.9       3.1       1.0       3.9       3.3       3.6
 3 C  dz2             0.1       0.1       0.4       0.4       0.0       0.1
 3 C  dxz             0.0       0.5       0.4       0.2       0.3       0.0
 3 C  dyz             0.4       0.8       0.3       0.0       0.1       0.1
 3 C  dx2y2           0.0       0.1       0.6       0.0       0.1       0.1
 3 C  dxy             0.2       0.0       0.0       0.1       1.2       0.4
 4 C  s              15.7       5.0       0.9       3.9       0.6       1.0
 4 C  pz              3.1       0.7       5.2       7.5       5.2       3.0
 4 C  px              3.6       5.6       1.0       0.9       4.3       1.2
 4 C  py              1.3       3.6       5.8       3.5       2.4       1.8
 4 C  dz2             0.0       0.0       0.0       0.4       0.1       0.0
 4 C  dxz             0.2       0.3       0.0       0.1       0.4       0.3
 4 C  dyz             0.1       0.2       0.7       0.1       0.1       0.2
 4 C  dx2y2           0.3       0.2       0.0       0.0       0.0       0.0
 4 C  dxy             0.5       0.0       0.0       0.0       0.4       0.4
 5 Cl s               2.8       0.5       0.2       0.8       0.4       0.4
 5 Cl pz              0.0       0.0       0.1       0.1       0.0       0.9
 5 Cl px              0.7       0.2       0.1       0.6       0.0       0.1
 5 Cl py              0.2       0.1       0.2       0.1       0.1       0.3
 5 Cl dz2             0.1       0.5       0.2       0.0       2.2       1.2
 5 Cl dxz             0.6       1.0       0.0       0.2       0.1       0.6
 5 Cl dyz             0.2       0.9       0.2       0.0       0.6       0.1
 5 Cl dx2y2           0.3       0.8       0.6       0.1       0.3       0.0
 5 Cl dxy             0.1       0.3       1.1       0.0       0.6       0.7
 6 H  s               1.4       0.8       1.4       0.8       0.3       0.1
 6 H  pz              0.0       0.1       0.4       0.1       0.0       0.0
 6 H  px              0.8       0.3       0.3       0.4       0.0       0.0
 6 H  py              0.1       0.0       0.0       0.1       0.0       0.1
 7 H  s               4.7       0.2       0.9       2.2       0.1       0.2
 7 H  pz              0.4       0.1       0.1       0.7       0.0       0.0
 7 H  px              1.7       0.0       0.0       0.5       0.0       0.0
 7 H  py              0.1       0.2       0.0       0.4       0.4       0.1
 8 H  s               0.6       0.7       1.9       1.5       1.2       1.4
 8 H  pz              0.5       0.2       0.5       0.8       0.7       0.7
 8 H  px              0.0       0.0       0.7       0.0       0.0       0.0
 8 H  py              0.0       0.2       0.0       0.0       0.2       0.1
 9 H  s               1.1       1.8       0.1       0.3       0.7       2.7
 9 H  pz              0.1       0.6       0.2       0.1       0.0       0.6
 9 H  px              0.2       0.7       0.8       0.0       0.3       0.1
 9 H  py              0.0       0.2       0.0       0.3       0.4       0.3
10 H  s               0.4       2.2       0.5       2.4       1.2       0.1
10 H  pz              0.1       1.4       0.0       0.7       1.1       0.1
10 H  px              0.0       0.1       0.7       0.0       0.1       0.2
10 H  py              0.0       0.1       0.0       0.3       0.1       0.3
11 H  s               0.7       1.3       2.4       1.2       1.3       0.1
11 H  pz              0.0       0.3       0.3       0.1       0.3       0.6
11 H  px              0.0       0.2       0.2       0.0       0.3       0.2
11 H  py              0.2       0.8       0.0       0.6       0.2       0.2
12 H  s               0.3       3.1       0.3       1.5       8.4       0.5
12 H  pz              0.0       1.2       0.0       0.7       2.2       0.5
12 H  px              0.0       0.0       0.1       0.4       0.1       0.2
12 H  py              0.0       0.3       0.7       0.0       0.0       0.4
13 H  s               2.4       0.4       7.0       1.2       0.6       0.2
13 H  pz              0.3       0.1       1.0       0.3       0.0       1.5
13 H  px              0.0       0.6       0.5       0.1       0.0       0.1
13 H  py              1.0       0.1       0.4       0.0       0.5       0.0
14 H  s               1.9       0.7       0.0       1.7       2.0       0.6
14 H  pz              0.2       0.1       0.4       0.0       0.1       0.4
14 H  px              0.5       0.1       0.1       0.4       0.3       0.2
14 H  py              0.4       0.6       0.5       0.4       0.1       0.3
15 H  s               5.0       0.3       1.4       0.4       0.9       0.4
15 H  pz              0.2       0.1       0.5       0.1       0.0       0.1
15 H  px              0.4       0.0       0.2       0.0       0.4       0.2
15 H  py              2.0       0.6       0.3       0.0       0.1       0.0
16 H  s               3.3       0.3       0.5       4.4       0.5       0.1
16 H  pz              0.4       0.4       0.0       1.6       0.1       0.2
16 H  px              0.6       0.1       0.1       0.2       0.2       0.1
16 H  py              0.7       0.0       0.2       0.2       0.4       0.1

                     36        37        38        39        40        41   
[...]
 1 C  dz2             4.7       9.7       0.3       0.0       0.0       0.0
 1 C  dxz             1.7       3.4       0.0       0.0       0.0       0.0
 1 C  dyz             0.7       1.8       0.0       0.0       0.0       0.0
 1 C  dx2y2           0.1       1.8       0.2       0.0       0.0       0.0
 1 C  dxy             3.3       0.7       0.1       0.0       0.0       0.0
 2 C  s               0.3       0.6       0.1       1.5       3.7       1.4
 2 C  pz              1.4       1.3       2.4       0.0       0.0       0.0
 2 C  px              3.3       0.0       0.4       0.0       0.0       0.0
 2 C  py              0.7       0.1       5.2       0.0       0.0       0.0
 2 C  dz2             2.8       2.2      10.4       0.0       0.0       0.0
 2 C  dxz             1.1       0.3       0.0       0.0       0.0       0.0
 2 C  dyz             0.5       0.8       0.0       0.0       0.0       0.0
 2 C  dx2y2           0.3       0.5       5.5       0.0       0.0       0.0
 2 C  dxy             2.9       0.1       0.4       0.0       0.0       0.0
 3 C  s               0.5       0.1       0.1       0.3       1.5      49.7
 3 C  pz              2.8       0.0       0.2       0.0       0.0       0.0
 3 C  px              0.1       1.1       1.2       0.0       0.0       0.0
 3 C  py              0.2       0.5       4.3       0.0       0.0       0.0
 3 C  dz2             1.4       0.1       5.4       0.0       0.0       0.0
 3 C  dxz             0.0       0.1       0.5       0.0       0.0       0.0
 3 C  dyz             2.1       0.2       1.8       0.0       0.0       0.0
 3 C  dx2y2           0.4       0.8       1.1       0.0       0.0       0.0
 3 C  dxy             1.4       0.4       3.7       0.0       0.0       0.0
 4 C  s               0.4       0.0       0.0      91.9       4.5       1.0
 4 C  pz              2.1       0.2       0.2       0.0       0.0       0.0
 4 C  px              1.3       0.3       0.2       0.0       0.0       0.0
 4 C  py              0.5       0.7       0.4       0.0       0.0       0.0
 4 C  dz2             3.7       0.9       0.3       0.0       0.0       0.0
 4 C  dxz             0.1       0.2       0.1       0.0       0.0       0.0
 4 C  dyz             4.1       0.4       0.1       0.0       0.0       0.0
 4 C  dx2y2           0.1       0.0       0.1       0.0       0.0       0.0
 4 C  dxy             0.0       0.1       0.9       0.0       0.0       0.0
 5 Cl px              0.1       0.0       0.1       0.0       0.0       0.0
 6 H  s               1.3       0.1       0.1       0.0       0.0       0.0
 6 H  pz              0.2       0.0       0.0       0.0       0.0       0.0
 6 H  px              2.0       0.2       0.1       0.0       0.0       0.0
 6 H  py              1.2       0.0       0.0       0.0       0.0       0.0
 7 H  s               0.7       1.8       0.1       0.0       0.0       0.0
 7 H  pz              0.5       1.2       0.0       0.0       0.0       0.0
 7 H  px              1.0       2.1       0.1       0.0       0.0       0.0
 7 H  py              0.2       1.2       0.0       0.0       0.0       0.0
 8 H  s               0.2       1.0       0.1       0.0       0.0       0.0
 8 H  pz              0.6       2.2       0.1       0.0       0.0       0.0
 8 H  px              0.0       0.1       0.0       0.0       0.0       0.0
 8 H  py              0.1       0.3       0.0       0.0       0.0       0.0
 9 H  s               0.6       4.4       0.0       0.0       0.0       0.0
 9 H  pz              0.8       1.0       0.0       0.0       0.0       0.0
 9 H  px              0.9       8.0       0.1       0.0       0.0       0.0
 9 H  py              0.6       1.4       0.1       0.0       0.0       0.0
10 H  s               1.7       5.1       0.0       0.0       0.0       0.0
10 H  pz              5.0      11.3       0.1       0.0       0.0       0.0
10 H  px              0.0       0.3       0.0       0.0       0.0       0.0
10 H  py              0.1       0.8       0.0       0.0       0.0       0.0
11 H  s               0.1       0.0       5.7       0.0       0.0       0.0
11 H  pz              0.2       0.0       0.2       0.0       0.0       0.0
11 H  px              0.4       0.0       0.4       0.0       0.0       0.0
11 H  py              0.1       0.0      11.4       0.0       0.0       0.0
12 H  s               1.1       1.2       3.6       0.0       0.0       0.0
12 H  pz              2.7       3.6       8.0       0.0       0.0       0.0
12 H  py              0.3       0.0       0.1       0.0       0.0       0.0
13 H  s               1.6       0.1       2.0       0.0       0.0       0.0
13 H  pz              3.2       0.1       4.1       0.0       0.0       0.0
13 H  px              0.5       0.0       0.0       0.0       0.0       0.0
13 H  py              0.9       0.0       0.1       0.0       0.0       0.0
14 H  s               0.2       0.8       4.6       0.0       0.0       0.0
14 H  pz              0.1       0.0       0.1       0.0       0.0       0.0
14 H  px              0.4       0.6       3.0       0.0       0.0       0.0
14 H  py              0.2       1.1       6.8       0.0       0.0       0.0
15 H  s               0.9       0.6       0.5       0.0       0.0       0.0
15 H  pz              0.2       0.1       0.0       0.0       0.0       0.0
15 H  px              0.2       0.4       0.0       0.0       0.0       0.0
15 H  py              1.8       0.9       1.6       0.0       0.0       0.0
16 H  s               2.7       0.7       0.0       0.0       0.0       0.0
16 H  pz              5.4       1.3       0.1       0.0       0.0       0.0
16 H  px              0.4       0.0       0.0       0.0       0.0       0.0
16 H  py              1.0       0.1       0.0       0.0       0.0       0.0

                    174       175       176   
                  22.03765  22.11482  25.12018
                   0.00000   0.00000   0.00000
                  --------  --------  --------
 0 C  s              13.1       1.3       0.0
 1 C  s              10.6      31.0       0.0
 2 C  s              64.6      28.5       0.1
 3 C  s              11.4      36.7       0.1
 4 C  s               0.0       2.2       0.4
 5 Cl s               0.0       0.0      99.2


                      *****************************
                      * MAYER POPULATION ANALYSIS *
                      *****************************

  NA   - Mulliken gross atomic population
  ZA   - Total nuclear charge
  QA   - Mulliken gross atomic charge
  VA   - Mayer's total valence
  BVA  - Mayer's bonded valence
  FA   - Mayer's free valence

  ATOM       NA         ZA         QA         VA         BVA        FA
  0 C      6.5328     6.0000    -0.5328     3.7521     3.7521    -0.0000
  1 C      6.2626     6.0000    -0.2626     3.6650     3.6650    -0.0000
  2 C      6.2748     6.0000    -0.2748     3.5664     3.5664     0.0000
  3 C      6.2958     6.0000    -0.2958     3.6426     3.6426    -0.0000
  4 C      6.1883     6.0000    -0.1883     3.8241     3.8241    -0.0000
  5 Cl    17.2531    17.0000    -0.2531     0.9880     0.9880     0.0000
  6 H      0.8439     1.0000     0.1561     0.9589     0.9589    -0.0000
  7 H      0.8365     1.0000     0.1635     0.9566     0.9566    -0.0000
  8 H      0.8395     1.0000     0.1605     0.9573     0.9573    -0.0000
  9 H      0.8523     1.0000     0.1477     0.9583     0.9583    -0.0000
 10 H      0.8460     1.0000     0.1540     0.9597     0.9597     0.0000
 11 H      0.8394     1.0000     0.1606     0.9575     0.9575     0.0000
 12 H      0.8427     1.0000     0.1573     0.9609     0.9609     0.0000
 13 H      0.8322     1.0000     0.1678     0.9587     0.9587     0.0000
 14 H      0.8342     1.0000     0.1658     0.9580     0.9580    -0.0000
 15 H      0.8140     1.0000     0.1860     0.9456     0.9456    -0.0000
 16 H      0.8117     1.0000     0.1883     0.9443     0.9443    -0.0000

  Mayer bond orders larger than 0.100000
B(  0-C ,  1-C ) :   0.8670 B(  0-C ,  6-H ) :   0.9657 B(  0-C ,  7-H ) :   0.9754 
B(  0-C ,  8-H ) :   0.9761 B(  1-C ,  2-C ) :   0.9046 B(  1-C ,  9-H ) :   0.9704 
B(  1-C , 10-H ) :   0.9947 B(  2-C ,  3-C ) :   0.8282 B(  2-C , 11-H ) :   0.9641 
B(  2-C , 12-H ) :   0.9818 B(  3-C ,  4-C ) :   0.9432 B(  3-C , 13-H ) :   0.9729 
B(  3-C , 14-H ) :   0.9597 B(  4-C ,  5-Cl) :   0.9410 B(  4-C , 15-H ) :   0.9474 
B(  4-C , 16-H ) :   0.9587 

-------
TIMINGS
-------

Total SCF time: 0 days 0 hours 0 min 22 sec 

Total time                  ....      22.924 sec
Sum of individual times     ....      22.375 sec  ( 97.6%)

SCF preparation             ....       0.406 sec  (  1.8%)
Fock matrix formation       ....      20.957 sec  ( 91.4%)
  Startup                   ....       0.064 sec  (  0.3% of F)
  Split-RI-J                ....       2.884 sec  ( 13.8% of F)
  XC integration            ....      13.744 sec  ( 65.6% of F)
    Basis function eval.    ....       2.657 sec  ( 19.3% of XC)
    Density eval.           ....       3.826 sec  ( 27.8% of XC)
    XC-Functional eval.     ....       2.085 sec  ( 15.2% of XC)
    XC-Potential eval.      ....       4.211 sec  ( 30.6% of XC)
  CPCM terms                ....       3.679 sec  ( 17.6% of F)
Diagonalization             ....       0.000 sec  (  0.0%)
Density matrix formation    ....       0.271 sec  (  1.2%)
Total Energy calculation    ....       0.048 sec  (  0.2%)
Population analysis         ....       0.095 sec  (  0.4%)
Orbital Transformation      ....       0.064 sec  (  0.3%)
Orbital Orthonormalization  ....       0.000 sec  (  0.0%)
DIIS solution               ....       0.428 sec  (  1.9%)
  MO trafo                  ....       0.000 sec  (  0.0 % of DIIS)
  Orb grad                  ....       0.000 sec  (  0.0 % of DIIS)
  Energy W gradient         ....       0.000 sec  (  0.0 % of DIIS)
  DIIS error                ....       0.009 sec  (  2.0 % of DIIS)
  DIIS work                 ....       0.360 sec  ( 84.2 % of DIIS)
  Form Q                    ....       0.000 sec  (  0.0 % of DIIS)
  Form QpQm                 ....       0.000 sec  (  0.0 % of DIIS)
  Exp/Cayley                ....       0.000 sec  (  0.0 % of DIIS)
  Orb update                ....       0.000 sec  (  0.0 % of DIIS)
  Wake-sleep                ....       0.026 sec  (  6.1 % of DIIS)
SOSCF solution              ....       0.107 sec  (  0.5%)
  MO trafo                  ....       0.050 sec  ( 47.1 % of SOSCF)
  Orb grad                  ....       0.001 sec  (  1.2 % of SOSCF)
  Rot update                ....       0.033 sec  ( 31.0 % of SOSCF)
  Step                      ....       0.022 sec  ( 20.6 % of SOSCF)
Finished LeanSCF after  23.1 sec

Maximum memory used throughout the entire LEANSCF-calculation: 24.7 MB


-------------------------------------------------------------------------------
                          DFT DISPERSION CORRECTION                            
                                                                               
                                DFTD4 V3.4.0                                   
-------------------------------------------------------------------------------
The R2SCAN3C composite method is recognized
Using three-body term ABC
Active option DFTDOPT                   ...         5   

-------------------------   ----------------
Dispersion correction           -0.004467123
-------------------------   ----------------

------------------   -----------------
gCP correction             0.010291236
------------------   -----------------

-------------------------   --------------------
FINAL SINGLE POINT ENERGY      -657.266682966304
-------------------------   --------------------


------------------------------------------------------------------------------
                              ORCA PROPERTY CALCULATIONS
------------------------------------------------------------------------------

GBWName                                 ... sp_solv.gbw
Number of atoms                         ...     17
Number of basis functions               ...    177
Max core memory                         ...   1024 MB

Electric properties:
Dipole moment                           ... YES
Quadrupole moment                       ...  NO
Static polarizability (Dipole/Dipole)   ...  NO
Static polarizability (Dipole/Quad.)    ...  NO
Static polarizability (Quad./Quad.)     ...  NO
Static polarizability (Velocity)        ...  NO

Atomic electric properties:
Dipole moment                           ...  NO
Quadrupole moment                       ...  NO
Static polarizability                   ...  NO

Choice of electric origin               ... Center of mass
Position of electric origin             ...     0.000026     0.000003     0.000004

General magnetic properties:
Magnetizability                         ...  NO

EPR properties:
g-Tensor (aka g-matrix)                 ...  NO
Zero-Field splitting spin-orbit         ...  NO
Zero-field splitting spin-spin          ...  NO
Hyperfine couplings                     ...  NO (   0 nuclei)
Quadrupole couplings                    ...  NO (   0 nuclei)
Contact density                         ...  NO (   0 nuclei)

NMR properties:
Chemical shifts                         ...  NO (   0 nuclei)
Spin-rotation constants                 ...  NO (   0 nuclei)
Spin-spin couplings                     ...  NO (   0 nuclei,    0 pairs)

Choice of magnetic origin               ... GIAO
Position of magnetic origin             ...     0.000000     0.000000     0.000000

Properties with geometric perturbations:
SCF Hessian                             ...  NO
IR spectrum                             ...  NO
VCD spectrum                            ...  NO
X-ray spectroscopy properties:
SCF XES/XAS/RIXS spectra                ...  NO


-------------
DIPOLE MOMENT
-------------

Method             : SCF
Type of density    : Electron Density
Multiplicity       :   1
Irrep              :   0
Energy             :  -657.2725070792686211 Eh
Relativity type    : 
Basis              : AO
                                X                 Y                 Z
Electronic contribution:    -15.801560037      -1.991530795      -1.854177536
Nuclear contribution   :     16.884602489       2.341127080       2.312928329
                        -----------------------------------------
Total Dipole Moment    :      1.083042452       0.349596286       0.458750793
                        -----------------------------------------
Magnitude (a.u.)       :      1.227049635
Magnitude (Debye)      :      3.118912308



--------------------
Rotational spectrum 
--------------------
 
Rotational constants in cm-1:             0.200424             0.037998             0.034323 
Rotational constants in MHz :          6008.554167          1139.141036          1028.976156 

Dipole components along the rotational axes: 
x,y,z [a.u.] :     1.142797    -0.239970     0.376935 
x,y,z [Debye]:     2.904759    -0.609956     0.958093 

 

Dipole moment calculation done in   0.0 sec 

Maximum memory used throughout the entire PROP-calculation: 10.4 MB

--------------------------------
SUGGESTED CITATIONS FOR THIS RUN
--------------------------------

Below you find a list of papers that are relevant to this ORCA run
We neither can nor want to force you to cite these papers, but we appreciate if you do
You receive ORCA, which is the product of decades of hard work by many enthusiastic individuals, for free
The only thing we kindly ask in return is that you cite our papers,
We deeply appreciate it, if you show your appreciation for ORCA by not just citing the generic ORCA reference.

Please note that relegating all ORCA citations to the supporting information does *not* help us.
SI sections are not indexed - citations you put there will not count into any citation statistics
But we need these citations in order to attract the funding resources that allow us to do what we are doing

Therefore, if you are a happy ORCA user, please consider citing a few of the papers listed below in the main body of your paper

In addition to the list printed below, the program has created the file sp_solv.bibtex that contains the list in bibtex format
You can import this file easily into all common literature databanks and citation aid programs


List of essential papers. We consider these as the minimum necessary citations

  1. Neese,F.
     Software update: the ORCA program system, version 5.0
     WIRES Comput. Molec. Sci., 2022 12(1)e1606
     doi.org/10.1002/wcms.1606
  2. Grimme,S.; Hansen,A.; Ehlert,S.; Mewes,J.
     r2SCAN-3c: A 'Swiss army knife' composite electronic-structure method
     J. Chem. Phys., 2021 154 064103
     doi.org/10.1063/5.0040021

List of papers to cite with high priority. The work reported in these papers was absolutely
necessary for this run to complete.
Our perspective: the developers of density functionals and basis sets usually get cited in chemistry papers
Good! But without the algorithms to do something with them, the functionals or basis sets would not do anything.
Hence, in our opinion, the algorithm design and method developments papers are equally worthy of getting cited

  1. Neese,F.
     An improvement of the resolution of the identity approximation for the formation of the Coulomb matrix
     J. Comp. Chem., 2003 24(14)1740-1747
     doi.org/10.1002/jcc.10318
  2. Garcia-Rates,M.; Neese,F.
     Effect of the Solute Cavity on the Solvation Energy and its Derivatives within the Framework of the Gaussian Charge Scheme
     J. Comput. Chem., 2020 41 922-939
     doi.org/10.1002/jcc.26139
  3. Neese,F.
     The SHARK Integral Generation and Digestion System
     J. Comp. Chem., 2022  1-16
     doi.org/10.1002/jcc.26942
  4. Lehtola,S.; Steigemann,C.; Oliveira,M.; Marques,M.
     Recent developments in Libxc - A comprehensive library of functionals for density functional theory
     Software X, 2018 7 
     doi.org/10.1016/j.softx.2017.11.002
  5. Caldeweyher,E.; Bannwarth,C.; Grimme,S.
     Extension of the D3 dispersion coefficient model
     J. Chem. Phys., 2017 147 034112-XXXX
     doi.org/10.1063/1.4993215
  6. Caldeweyher,E.; Ehlert,S.; Hansen,A.; Neugebauer,H.; Spicher,S.; Bannwarth,C.; Grimme,S.
     A generally applicable atomic-charge dependent London dispersion correction
     J. Chem. Phys., 2019 150 154122-XXXX
     doi.org/10.1063/1.5090222
  7. Caldeweyher,E.; Mewes,J.; Ehlert,S.; Grimme,S.
     Extension and evaluation of the D4 London-dispersion model for periodic systems
     Phys. Chem. Chem. Phys., 2020 22(16)8499-8512
     doi.org/10.1039/D0CP00502A

List of suggested additional citations. These are papers that are important in the 'surrounding' of 
of this run, or papers that preceded the highly important papers. If you like your results we are grateful for a citation.

  1. Neese,F.
     The ORCA program system
     WIRES Comput. Molec. Sci., 2012 2(1)73-78
     doi.org/10.1002/wcms.81
  2. Neese,F.
     Software update: the ORCA program system, version 4.0
     WIRES Comput. Molec. Sci., 2018 8(1)1-6
     doi.org/10.1002/wcms.1327
  3. Neese,F.; Wennmohs,F.; Becker,U.; Riplinger,C.
     The ORCA quantum chemistry program package
     J. Chem. Phys., 2020 152 Art. No. L224108
     doi.org/10.1063/5.0004608

List of optional additional citations

  1. Neese,F.
     Approximate second-order SCF convergence for spin unrestricted wavefunctions
     Chem. Phys. Lett., 2000 325(1-3)93-98
     doi.org/10.1016/s0009-2614(00)00662-x

Timings for individual modules:

Sum of individual times          ...       24.571 sec (=   0.410 min)
Startup calculation              ...        1.051 sec (=   0.018 min)   4.3 %
SCF iterations                   ...       23.405 sec (=   0.390 min)  95.3 %
Property calculations            ...        0.115 sec (=   0.002 min)   0.5 %
                             ****ORCA TERMINATED NORMALLY****
TOTAL RUN TIME: 0 days 0 hours 0 minutes 25 seconds 414 msec
