      -----------------------------------------------------------      
     |                   =====================                   |     
     |                           x T B                           |     
     |                   =====================                   |     
     |                         S. Grimme                         |     
     |          Mulliken Center for Theoretical Chemistry        |     
     |                    University of Bonn                     |     
      -----------------------------------------------------------      

   * xtb version 6.7.1 (edcfbbe) compiled by 'albert@albert-system' on 2024-07-22

   xtb is free software: you can redistribute it and/or modify it under
   the terms of the GNU Lesser General Public License as published by
   the Free Software Foundation, either version 3 of the License, or
   (at your option) any later version.
   
   xtb is distributed in the hope that it will be useful,
   but WITHOUT ANY WARRANTY; without even the implied warranty of
   MERCHANTABILITY or FITNESS FOR A PARTICULAR PURPOSE.  See the
   GNU Lesser General Public License for more details.
   
   Cite this work as:
   * C. Bannwarth, E. Caldeweyher, S. Ehlert, A. Hansen, P. Pracht,
     J. Seibert, S. Spicher, S. Grimme, WIREs Comput. Mol. Sci., 2020, 11,
     e01493. DOI: 10.1002/wcms.1493
   
   for GFN2-xTB:
   * C. Bannwarth, S. Ehlert and S. Grimme., J. Chem. Theory Comput., 2019,
     15, 1652-1671. DOI: 10.1021/acs.jctc.8b01176
   for GFN1-xTB:
   * S. Grimme, C. Bannwarth, P. Shushkov, J. Chem. Theory Comput., 2017,
     13, 1989-2009. DOI: 10.1021/acs.jctc.7b00118
   for GFN0-xTB:
   * P. Pracht, E. Caldeweyher, S. Ehlert, S. Grimme, ChemRxiv, 2019, preprint.
     DOI: 10.26434/chemrxiv.8326202.v1
   for GFN-FF:
   * S. Spicher and S. Grimme, Angew. Chem. Int. Ed., 2020, 59, 15665-15673.
     DOI: 10.1002/anie.202004239
   
   for ALPB and GBSA implicit solvation:
   * S. Ehlert, M. Stahn, S. Spicher, S. Grimme, J. Chem. Theory Comput.,
     2021, 17, 4250-4261. DOI: 10.1021/acs.jctc.1c00471
   
   for ddCOSMO and CPCM-X implicit solvation:
   * M. Stahn, S. Ehlert, S. Grimme, J. Phys. Chem. A,
     2023, XX, XXXX-XXXX. DOI: 10.1021/acs.jpca.3c04382
   
   for DFT-D4:
   * E. Caldeweyher, C. Bannwarth and S. Grimme, J. Chem. Phys., 2017,
     147, 034112. DOI: 10.1063/1.4993215
   * E. Caldeweyher, S. Ehlert, A. Hansen, H. Neugebauer, S. Spicher,
     C. Bannwarth and S. Grimme, J. Chem. Phys., 2019, 150, 154122.
     DOI: 10.1063/1.5090222
   * E. Caldeweyher, J.-M. Mewes, S. Ehlert and S. Grimme, Phys. Chem. Chem. Phys.
     2020, 22, 8499-8512. DOI: 10.1039/D0CP00502A
   
   for sTDA-xTB:
   * S. Grimme and C. Bannwarth, J. Chem. Phys., 2016, 145, 054103.
     DOI: 10.1063/1.4959605
   
   in the mass-spec context:
   * V. Asgeirsson, C. Bauer and S. Grimme, Chem. Sci., 2017, 8, 4879.
     DOI: 10.1039/c7sc00601b
   * J. Koopman and S. Grimme, ACS Omega 2019, 4, 12, 15120-15133.
     DOI: 10.1021/acsomega.9b02011
   
   for metadynamics refer to:
   * S. Grimme, J. Chem. Theory Comput., 2019, 155, 2847-2862
     DOI: 10.1021/acs.jctc.9b00143
   
   for SPH calculations refer to:
   * S. Spicher and S. Grimme, J. Chem. Theory Comput., 2021, 17, 1701-1714
     DOI: 10.1021/acs.jctc.0c01306
   
   for ONIOM refer to:
   * C. Plett, A. Katbashev, S. Ehlert, S. Grimme, M. Bursch,
     Phys. Chem. Chem. Phys., 2023, 25, 17860-17868. DOI: 10.1039/D3CP02178E
   
   for DIPRO refer to:
   * J. Kohn, N. Gildemeister, S. Grimme, D. Fazzi, A. Hansen,
     J. Chem. Phys., 2023, just accepted.
   
   for PTB refer to:
   * S. Grimme, M. Mueller, A. Hansen, J. Chem. Phys., 2023, 158, 124111.
     DOI: 10.1063/5.0137838
   
   with help from (in alphabetical order)
   P. Atkinson, C. Bannwarth, F. Bohle, G. Brandenburg, E. Caldeweyher
   M. Checinski, S. Dohm, S. Ehlert, S. Ehrlich, I. Gerasimov, C. Hölzer
   A. Katbashev, J. Kohn, J. Koopman, C. Lavigne, S. Lehtola, F. März, M. Müller,
   F. Musil, H. Neugebauer, J. Pisarek, C. Plett, P. Pracht, F. Pultar,
   J. Seibert, P. Shushkov, S. Spicher, M. Stahn, M. Steiner, T. Strunk,
   J. Stückrath, T. Rose, and J. Unsleber
   
 * started run on 2025/04/11 at 15:59:01.653     
   ID    Z sym.   atoms
    1    6 C      1-5, 8
    2    8 O      6, 7
    3    1 H      9-20

           -------------------------------------------------
          |                Calculation Setup                |
           -------------------------------------------------

          program call               : /srv/scratch/z5358697/.xtb/bin/xtb gas.coord --gfn2 --sp --chrg 0 --norestart --parallel 1
          hostname                   : k068
          coordinate file            : gas.coord
          omp threads                :                     1


           -------------------------------------------------
          |                 G F N 2 - x T B                 |
           -------------------------------------------------

        Reference                      10.1021/acs.jctc.8b01176
      * Hamiltonian:
        H0-scaling (s, p, d)           1.850000    2.230000    2.230000
        zeta-weighting                 0.500000
      * Dispersion:
        s8                             2.700000
        a1                             0.520000
        a2                             5.000000
        s9                             5.000000
      * Repulsion:
        kExp                           1.500000    1.000000
        rExp                           1.000000
      * Coulomb:
        alpha                          2.000000
        third order                    shell-resolved
        anisotropic                    true
        a3                             3.000000
        a5                             4.000000
        cn-shift                       1.200000
        cn-exp                         4.000000
        max-rad                        5.000000


          ...................................................
          :                      SETUP                      :
          :.................................................:
          :  # basis functions                  44          :
          :  # atomic orbitals                  44          :
          :  # shells                           28          :
          :  # electrons                        48          :
          :  max. iterations                   250          :
          :  Hamiltonian                  GFN2-xTB          :
          :  restarted?                      false          :
          :  GBSA solvation                  false          :
          :  PC potential                    false          :
          :  electronic temp.          300.0000000     K    :
          :  accuracy                    1.0000000          :
          :  -> integral cutoff          0.2500000E+02      :
          :  -> integral neglect         0.1000000E-07      :
          :  -> SCF convergence          0.1000000E-05 Eh   :
          :  -> wf. convergence          0.1000000E-03 e    :
          :  Broyden damping             0.4000000          :
          :  net charge                          0          :
          :  unpaired electrons                  0          :
          ...................................................

 iter      E             dE          RMSdq      gap      omega  full diag
   1    -27.3499201 -0.273499E+02  0.372E+00    6.00       0.0  T
   2    -27.4199597 -0.700397E-01  0.190E+00    4.74       1.0  T
   3    -27.4235731 -0.361341E-02  0.109E+00    5.23       1.0  T
   4    -27.4258066 -0.223347E-02  0.174E-01    4.94       1.0  T
   5    -27.4260696 -0.262977E-03  0.703E-02    5.00       1.0  T
   6    -27.4260739 -0.430541E-05  0.180E-02    5.00       1.2  T
   7    -27.4260746 -0.715383E-06  0.684E-03    5.00       3.3  T
   8    -27.4260747 -0.118446E-06  0.196E-03    5.00      11.4  T
   9    -27.4260747 -0.715596E-08  0.895E-04    5.00      25.0  T
  10    -27.4260747 -0.250173E-08  0.232E-04    5.00      96.3  T

   *** convergence criteria satisfied after 10 iterations ***

         #    Occupation            Energy/Eh            Energy/eV
      -------------------------------------------------------------
         1        2.0000           -0.7436478             -20.2357
       ...           ...                  ...                  ...
        18        2.0000           -0.4736065             -12.8875
        19        2.0000           -0.4583855             -12.4733
        20        2.0000           -0.4463835             -12.1467
        21        2.0000           -0.4459302             -12.1344
        22        2.0000           -0.4347633             -11.8305
        23        2.0000           -0.4301819             -11.7058
        24        2.0000           -0.4101068             -11.1596 (HOMO)
        25                         -0.2263157              -6.1584 (LUMO)
        26                          0.0013265               0.0361
        27                          0.0842508               2.2926
        28                          0.0968782               2.6362
        29                          0.1106086               3.0098
       ...                                ...                  ...
        44                          0.6179858              16.8162
      -------------------------------------------------------------
                  HL-Gap            0.1837911 Eh            5.0012 eV
             Fermi-level           -0.3182112 Eh           -8.6590 eV

 SCC (total)                   0 d,  0 h,  0 min,  0.015 sec
 SCC setup                      ...        0 min,  0.000 sec (  1.137%)
 Dispersion                     ...        0 min,  0.000 sec (  0.754%)
 classical contributions        ...        0 min,  0.000 sec (  0.143%)
 integral evaluation            ...        0 min,  0.002 sec ( 10.552%)
 iterations                     ...        0 min,  0.008 sec ( 53.748%)
 molecular gradient             ...        0 min,  0.005 sec ( 32.446%)
 printout                       ...        0 min,  0.000 sec (  1.118%)

         :::::::::::::::::::::::::::::::::::::::::::::::::::::
         ::                     SUMMARY                     ::
         :::::::::::::::::::::::::::::::::::::::::::::::::::::
         :: total energy             -27.111742175850 Eh    ::
         :: gradient norm              0.028901361801 Eh/a0 ::
         :: HOMO-LUMO gap              5.001211148896 eV    ::
         ::.................................................::
         :: SCC energy               -27.425997434013 Eh    ::
         :: -> isotropic ES            0.048033561510 Eh    ::
         :: -> anisotropic ES          0.002310509318 Eh    ::
         :: -> anisotropic XC          0.007612966370 Eh    ::
         :: -> dispersion             -0.012870305186 Eh    ::
         :: repulsion energy           0.314255258163 Eh    ::
         :: add. restraining           0.000000000000 Eh    ::
         :: total charge               0.000000000000 e     ::
         :::::::::::::::::::::::::::::::::::::::::::::::::::::

           -------------------------------------------------
          |                Property Printout                |
           -------------------------------------------------

    * Orbital Energies and Occupations

         #    Occupation            Energy/Eh            Energy/eV
      -------------------------------------------------------------
         1        2.0000           -0.7436478             -20.2357
       ...           ...                  ...                  ...
        12        2.0000           -0.5273432             -14.3497
        13        2.0000           -0.5115869             -13.9210
        14        2.0000           -0.5043376             -13.7237
        15        2.0000           -0.4949665             -13.4687
        16        2.0000           -0.4906781             -13.3520
        17        2.0000           -0.4744121             -12.9094
        18        2.0000           -0.4736065             -12.8875
        19        2.0000           -0.4583855             -12.4733
        20        2.0000           -0.4463835             -12.1467
        21        2.0000           -0.4459302             -12.1344
        22        2.0000           -0.4347633             -11.8305
        23        2.0000           -0.4301819             -11.7058
        24        2.0000           -0.4101068             -11.1596 (HOMO)
        25                         -0.2263157              -6.1584 (LUMO)
        26                          0.0013265               0.0361
        27                          0.0842508               2.2926
        28                          0.0968782               2.6362
        29                          0.1106086               3.0098
        30                          0.1293632               3.5202
        31                          0.1361405               3.7046
        32                          0.1411595               3.8411
        33                          0.1587798               4.3206
        34                          0.1782105               4.8494
        35                          0.1912105               5.2031
       ...                                ...                  ...
        44                          0.6179858              16.8162
      -------------------------------------------------------------
                  HL-Gap            0.1837911 Eh            5.0012 eV
             Fermi-level           -0.3182112 Eh           -8.6590 eV

     #   Z          covCN         q      C6AA      α(0)
     1   6 C        3.751    -0.102    22.511     6.766
     2   6 C        3.800    -0.055    21.557     6.611
     3   6 C        3.801    -0.059    21.626     6.621
     4   6 C        3.803    -0.089    22.201     6.708
     5   6 C        2.711     0.361    20.878     7.479
     6   8 O        0.856    -0.432    22.321     6.334
     7   8 O        1.704    -0.254    18.213     5.762
     8   6 C        3.645     0.025    20.488     6.506
     9   1 H        0.925     0.035     2.519     2.482
    10   1 H        0.925     0.040     2.452     2.449
    11   1 H        0.925     0.033     2.540     2.492
    12   1 H        0.924     0.036     2.509     2.477
    13   1 H        0.924     0.034     2.531     2.488
    14   1 H        0.924     0.051     2.312     2.378
    15   1 H        0.924     0.039     2.464     2.455
    16   1 H        0.924     0.065     2.137     2.286
    17   1 H        0.924     0.068     2.105     2.269
    18   1 H        0.925     0.062     2.177     2.307
    19   1 H        0.924     0.078     2.004     2.214
    20   1 H        0.925     0.064     2.149     2.292

 Mol. C6AA /au·bohr⁶  :       3022.820222
 Mol. C8AA /au·bohr⁸  :      64074.119678
 Mol. α(0) /au        :         81.376301


Wiberg/Mayer (AO) data.
largest (>0.10) Wiberg bond orders for each atom

 ---------------------------------------------------------------------------
     #   Z sym  total        # sym  WBO       # sym  WBO       # sym  WBO
 ---------------------------------------------------------------------------
     1   6 C    3.997 --     2 C    1.021    11 H    0.988     9 H    0.987
                            10 H    0.982
     2   6 C    3.998 --     1 C    1.021     3 C    1.009    12 H    0.977
                            13 H    0.977
     3   6 C    3.994 --     2 C    1.009     4 C    0.995    15 H    0.977
                            14 H    0.975
     4   6 C    3.993 --     3 C    0.995     5 C    0.976    17 H    0.972
                            16 H    0.949
     5   6 C    3.914 --     6 O    1.725     7 O    1.147     4 C    0.976
     6   8 O    2.015 --     5 C    1.725     7 O    0.172
     7   8 O    2.318 --     5 C    1.147     8 C    0.952     6 O    0.172
     8   6 C    3.924 --    20 H    0.979    18 H    0.978    19 H    0.975
                             7 O    0.952
     9   1 H    0.999 --     1 C    0.987
    10   1 H    0.998 --     1 C    0.982
    11   1 H    0.999 --     1 C    0.988
    12   1 H    0.999 --     2 C    0.977
    13   1 H    0.999 --     2 C    0.977
    14   1 H    0.997 --     3 C    0.975
    15   1 H    0.998 --     3 C    0.977
    16   1 H    0.996 --     4 C    0.949
    17   1 H    0.995 --     4 C    0.972
    18   1 H    0.996 --     8 C    0.978
    19   1 H    0.994 --     8 C    0.975
    20   1 H    0.996 --     8 C    0.979
 ---------------------------------------------------------------------------

Topologies differ in total number of bonds
Writing topology from bond orders to xtbtopo.mol

molecular dipole:
                 x           y           z       tot (Debye)
 q only:       -0.174      -0.382       0.814
   full:       -0.139      -0.377       0.908       2.523
molecular quadrupole (traceless):
                xx          xy          yy          xz          yz          zz
 q only:        2.946      -4.825       2.289       2.184       2.704      -5.236
  q+dip:        2.987      -4.064       2.684       3.511       2.740      -5.671
   full:        3.339      -3.989       2.905       3.443       3.277      -6.244


           -------------------------------------------------
          | TOTAL ENERGY              -27.111742175850 Eh   |
          | GRADIENT NORM               0.028901361801 Eh/α |
          | HOMO-LUMO GAP               5.001211148896 eV   |
           -------------------------------------------------

------------------------------------------------------------------------
 * finished run on 2025/04/11 at 15:59:01.725     
------------------------------------------------------------------------
 total:
 * wall-time:     0 d,  0 h,  0 min,  0.071 sec
 *  cpu-time:     0 d,  0 h,  0 min,  0.022 sec
 * ratio c/w:     0.313 speedup
 SCF:
 * wall-time:     0 d,  0 h,  0 min,  0.016 sec
 *  cpu-time:     0 d,  0 h,  0 min,  0.014 sec
 * ratio c/w:     0.911 speedup

