20
 energy: -386.243390704114 gnorm: 0.003179350625 xtb: 6.7.1 (edcfbbe)
C           -2.27703829284714       -1.20213107302291       -0.63508002623537
C           -2.08682538870774       -0.54290158027099        0.72793247896005
C           -1.45238634698773        0.84988945862789        0.61964381233150
C           -0.12715025357488        0.85200385402281       -0.09186537147875
O            0.16211807600193        1.58653372006352       -1.02598385024340
O            0.73010367436525       -0.04624057202259        0.42654747323100
C            2.04499010898680       -0.12768391510857       -0.21029843014029
C            2.79609097196979       -1.25748286276382        0.44997528834111
H           -2.90334454691846       -0.58309494744145       -1.28725356393256
H           -1.31534983487502       -1.35482279759307       -1.13980929965201
H           -2.75730040763934       -2.18019150165352       -0.53311156799930
H           -1.47184735038107       -1.17873101068412        1.37246596979611
H           -3.05612763062080       -0.42926147327718        1.22414385898023
H           -1.28594209993573        1.26460686665789        1.62151497370582
H           -2.10906134003384        1.53379858341212        0.07616942778656
H            1.89785865233767       -0.30650562829594       -1.27982462399652
H            2.54976793777322        0.83440825477585       -0.07672679267808
H            2.27859218133232       -2.21112361660593        0.30581429238282
H            3.78873587595784       -1.33189308504916       -0.00339944436574
H            2.92063200328426       -1.07658700307887        1.52202279264477
20
 energy: -386.243406559459 gnorm: 0.001107999194 xtb: 6.7.1 (edcfbbe)
C           -2.27739588389968       -1.20139464095168       -0.63566206087806
C           -2.08479688812138       -0.54405392222437        0.72762102474882
C           -1.45191221719039        0.84959925813079        0.62016738364989
C           -0.12679818083771        0.85425856592246       -0.09097194505586
O            0.16059740708281        1.58622505282406       -1.02643823377919
O            0.72995572588631       -0.04509767740297        0.42423481958480
C            2.04540365037823       -0.12832512335706       -0.21151881721599
C            2.79461147732547       -1.25631831071096        0.45125833475814
H           -2.90385942794610       -0.58104885207118       -1.28593784672263
H           -1.31708818393249       -1.35477185554203       -1.14238272394679
H           -2.75822532581010       -2.17917550825859       -0.53532323653236
H           -1.46785444487861       -1.18054791322285        1.36993448503094
H           -3.05294989326538       -0.43189195051864        1.22712042410857
H           -1.28592338429835        1.26483472482003        1.62206309421725
H           -2.11020870095691        1.53268351134871        0.07747879517409
H            1.89957070216516       -0.30840760379044       -1.28062017725379
H            2.55056756060730        0.83337206576288       -0.07918292182054
H            2.27656412466627       -2.20923278205118        0.30916097104268
H            3.78781973167540       -1.33438744131494       -0.00070448807263
H            2.91843790801724       -1.07372974664793        1.52258023314681
20
 energy: -386.243417912579 gnorm: 0.002669125578 xtb: 6.7.1 (edcfbbe)
C           -2.27941770552427       -1.19850562196836       -0.63749378011817
C           -2.07946439600001       -0.54742730841182        0.72712522420753
C           -1.45007418286082        0.84808238911999        0.62134467217593
C           -0.12799153002942        0.85375886927849       -0.09491212500813
O            0.15834405159716        1.58732386004420       -1.02791267063940
O            0.72964093657312       -0.04399432109497        0.41817031070860
C            2.04673615922817       -0.12902123701934       -0.21435298644244
C            2.79106943222677       -1.25318445782363        0.45586234053345
H           -2.90674876201973       -0.57422573871414       -1.28256463864795
H           -1.32218858514460       -1.35300906611512       -1.14928084027645
H           -2.76194507142772       -2.17559922462441       -0.54028973671609
H           -1.45676678424392       -1.18580875042947        1.36262983031762
H           -3.04419007626278       -0.43923250960135        1.23516018071363
H           -1.28296517897182        1.26259702349178        1.62367512699557
H           -2.11180706242155        1.53077517572181        0.08205368411192
H            1.90330711008190       -0.31370800693281       -1.28259791126638
H            2.55111629837973        0.83315177079613       -0.08563502755600
H            2.27124915452035       -2.20511704175856        0.31927375856389
H            3.78526796833317       -1.33926708321792        0.00688047120792
H            2.91334301878393       -1.06499825250488        1.52574061390018
20
 energy: -386.243425126711 gnorm: 0.001690898125 xtb: 6.7.1 (edcfbbe)
C           -2.28073315256498       -1.19729781048895       -0.63840168358317
C           -2.07773685349408       -0.54883958496021        0.72699130402529
C           -1.44940179155151        0.84717987397678        0.62149915281506
C           -0.12729743185338        0.85479732792825       -0.09487530505562
O            0.15793686786610        1.58799142849531       -1.02917815017661
O            0.72996578245069       -0.04367826919932        0.41726142415511
C            2.04680154212726       -0.12949643232495       -0.21548740785235
C            2.79058557760723       -1.25247347806596        0.45776906372644
H           -2.90879335134341       -0.57119792595386       -1.28124577032954
H           -1.32430166702913       -1.35130949375586       -1.15206752480577
H           -2.76390592356232       -2.17424019658106       -0.54188296991572
H           -1.45265807160128       -1.18763340163018        1.35961402024432
H           -3.04121687204483       -0.44268358580710        1.23754560154872
H           -1.28187024200525        1.26106068146170        1.62389449594311
H           -2.11218433506922        1.52949118237002        0.08303561291736
H            1.90335705356645       -0.31623662482721       -1.28358287306886
H            2.55085886419157        0.83325963173053       -0.08846251627065
H            2.26960884447793       -2.20450624499172        0.32379929205669
H            3.78478458934743       -1.34048886308622        0.00928957771445
H            2.91271502784057       -1.06110746323178        1.52736082321621
20
 energy: -386.243432810343 gnorm: 0.001697080377 xtb: 6.7.1 (edcfbbe)
C           -2.28646007597588       -1.19327448752782       -0.64208662679023
C           -2.07277735238399       -0.55292534613448        0.72580836326790
C           -1.44781157138328        0.84471315161131        0.62229688086098
C           -0.12652433428743        0.85498992184525       -0.09609810114744
O            0.15667074211109        1.58935963309742       -1.03207335771270
O            0.73077867641025       -0.04367659410468        0.41534027631966
C            2.04671527248665       -0.13144189687971       -0.21825232110287
C            2.79157103313196       -1.24976562970524        0.46443980719286
H           -2.91770052884915       -0.56110195972145       -1.27655864416086
H           -1.33325844718648       -1.34500204192566       -1.16305930901033
H           -2.77138211792936       -2.16977755818570       -0.54784326224461
H           -1.43998569513930       -1.19376558971990        1.34818855353844
H           -3.03170228836852       -0.45267018708998        1.24503673695605
H           -1.27708394945680        1.25563738491286        1.62501708152538
H           -2.11304604379873        1.52694134986626        0.08696069087851
H            1.90266678558368       -0.32630097638173       -1.28545274413307
H            2.54974862369681        0.83326729989298       -0.09823344250067
H            2.26719129129937       -2.20228812582094        0.34018843818526
H            3.78516203535599       -1.34317927565186        0.01651579698522
H            2.91374108585295       -1.04714723598425        1.53274025027930
20
 energy: -386.243437101840 gnorm: 0.000864596897 xtb: 6.7.1 (edcfbbe)
C           -2.28833061612049       -1.19212762047860       -0.64301128662140
C           -2.07327136160338       -0.55312152498977        0.72537684790396
C           -1.44756100836600        0.84420063988194        0.62256629226966
C           -0.12651626528715        0.85359979151168       -0.09612873950102
O            0.15669120591213        1.58752698527180       -1.03186000966073
O            0.73130844649156       -0.04417126260283        0.41585222093285
C            2.04685131707422       -0.13200368552454       -0.21817619311077
C            2.79319416212184       -1.24882694084021        0.46549114103952
H           -2.92046096390563       -0.55984187498672       -1.27618995619541
H           -1.33596484169772       -1.34341669893353       -1.16537259757668
H           -2.77282534887291       -2.16875578410569       -0.54903166247348
H           -1.44027689652221       -1.19477023172653        1.34658664374802
H           -3.03168747943693       -0.45286592093528        1.24556659326276
H           -1.27676221643191        1.25454032874461        1.62559443652714
H           -2.11234168207057        1.52711288826632        0.08757082943325
H            1.90225715258746       -0.32867807809432       -1.28477834236846
H            2.54967669422512        0.83286511277065       -0.10008346058645
H            2.26982065677651       -2.20179706157836        0.34320260680232
H            3.78633300784836       -1.34200062492837        0.01654403592861
H            2.91637889172531       -1.04487636794484        1.53315551278450
20
 energy: -386.243437101840 gnorm: 0.000864596897 xtb: 6.7.1 (edcfbbe)
C           -2.28833061612049       -1.19212762047860       -0.64301128662140
C           -2.07327136160338       -0.55312152498977        0.72537684790396
C           -1.44756100836600        0.84420063988194        0.62256629226966
C           -0.12651626528715        0.85359979151168       -0.09612873950102
O            0.15669120591213        1.58752698527180       -1.03186000966073
O            0.73130844649156       -0.04417126260283        0.41585222093285
C            2.04685131707422       -0.13200368552454       -0.21817619311077
C            2.79319416212184       -1.24882694084021        0.46549114103952
H           -2.92046096390563       -0.55984187498672       -1.27618995619541
H           -1.33596484169772       -1.34341669893353       -1.16537259757668
H           -2.77282534887291       -2.16875578410569       -0.54903166247348
H           -1.44027689652221       -1.19477023172653        1.34658664374802
H           -3.03168747943693       -0.45286592093528        1.24556659326276
H           -1.27676221643191        1.25454032874461        1.62559443652714
H           -2.11234168207057        1.52711288826632        0.08757082943325
H            1.90225715258746       -0.32867807809432       -1.28477834236846
H            2.54967669422512        0.83286511277065       -0.10008346058645
H            2.26982065677651       -2.20179706157836        0.34320260680232
H            3.78633300784836       -1.34200062492837        0.01654403592861
H            2.91637889172531       -1.04487636794484        1.53315551278450
