
                                 *****************
                                 * O   R   C   A *
                                 *****************

                                            #,                                       
                                            ###                                      
                                            ####                                     
                                            #####                                    
                                            ######                                   
                                           ########,                                 
                                     ,,################,,,,,                         
                               ,,#################################,,                 
                          ,,##########################################,,             
                       ,#########################################, ''#####,          
                    ,#############################################,,   '####,        
                  ,##################################################,,,,####,       
                ,###########''''           ''''###############################       
              ,#####''   ,,,,##########,,,,          '''####'''          '####       
            ,##' ,,,,###########################,,,                        '##       
           ' ,,###''''                  '''############,,,                           
         ,,##''                                '''############,,,,        ,,,,,,###''
      ,#''                                            '''#######################'''  
     '                                                          ''''####''''         
             ,#######,   #######,   ,#######,      ##                                
            ,#'     '#,  ##    ##  ,#'     '#,    #''#        ,####,   ,####,        
            ##       ##  ##   ,#'  ##            #'  '#       #'       #'  '#        
            ##       ##  #######   ##           ,######,      #####,   #    #        
            '#,     ,#'  ##    ##  '#,     ,#' ,#      #,     #,   #   #,  ,#        
             '#######'   ##     ##  '#######'  #'      '#     '####' # '####'        



                #########################################################
                #                        -***-                          #
                #          Department of theory and spectroscopy        #
                #                                                       #
                #                      Frank Neese                      #
                #                                                       #
                #     Directorship, Architecture, Infrastructure        #
                #                    SHARK, DRIVERS                     #
                #        Core code/Algorithms in most modules           #
                #                                                       #
                #        Max Planck Institute fuer Kohlenforschung      #
                #                Kaiser Wilhelm Platz 1                 #
                #                 D-45470 Muelheim/Ruhr                 #
                #                      Germany                          #
                #                                                       #
                #                  All rights reserved                  #
                #                        -***-                          #
                #########################################################


                         Program Version 6.0.0  -   RELEASE  -


 With contributions from (in alphabetic order):
   Daniel Aravena         : Magnetic Suceptibility
   Michael Atanasov       : Ab Initio Ligand Field Theory (pilot matlab implementation)
   Alexander A. Auer      : GIAO ZORA, VPT2 properties, NMR spectrum
   Ute Becker             : All parallelization in ORCA, NUMFREQ, NUMCALC
   Giovanni Bistoni       : ED, misc. LED, open-shell LED, HFLD
   Martin Brehm           : Molecular dynamics
   Dmytro Bykov           : pre 5.0 version of the SCF Hessian
   Marcos Casanova-Páez   : Triplet and SCS-CIS(D). UHF-(DLPNO)-IP/EA/STEOM-CCSD. UHF-CVS-IP/STEOM-CCSD
   Vijay G. Chilkuri      : MRCI spin determinant printing, contributions to CSF-ICE
   Pauline Colinet        : FMM embedding
   Dipayan Datta          : RHF DLPNO-CCSD density
   Achintya Kumar Dutta   : EOM-CC, STEOM-CC
   Nicolas Foglia         : Exact transition moments, OPA infrastructure, MCD improvements
   Dmitry Ganyushin       : Spin-Orbit,Spin-Spin,Magnetic field MRCI
   Miquel Garcia          : C-PCM and meta-GGA Hessian, CCSD/C-PCM, Gaussian charge scheme
   Tiago L. C. Gouveia    : GS-ROHF, GS-ROCIS
   Yang Guo               : DLPNO-NEVPT2, F12-NEVPT2, CIM, IAO-localization
   Andreas Hansen         : Spin unrestricted coupled pair/coupled cluster methods
   Ingolf Harden          : AUTO-CI MPn and infrastructure 
   Benjamin Helmich-Paris : MC-RPA, TRAH-(SCF,CASSCF), AVAS, COSX integrals, SCF dyn. polar.
   Lee Huntington         : MR-EOM, pCC
   Robert Izsak           : Overlap fitted RIJCOSX, COSX-SCS-MP3, EOM
   Riya Kayal             : Wick's Theorem for AUTO-CI, AUTO-CI UHF-CCSDT
   Emily Kempfer          : AUTO-CI, RHF CISDT and CCSDT
   Christian Kollmar      : KDIIS, OOCD, Brueckner-CCSD(T), CCSD density, CASPT2, CASPT2-K, improved NEVPT2
   Axel Koslowski         : Symmetry handling
   Simone Kossmann        : Meta GGA functionals, TD-DFT gradient, OOMP2, (MP2 Hessian; deprecated post 5.0)
   Lucas Lang             : DCDCAS
   Marvin Lechner         : AUTO-CI (C++ implementation), FIC-MRCC
   Spencer Leger          : CASSCF response
   Dagmar Lenk            : GEPOL surface, SMD, ORCA-2-JSON
   Dimitrios Liakos       : Extrapolation schemes; Compound Job, initial MDCI parallelization
   Dimitrios Manganas     : Further ROCIS development; embedding schemes. LFT, Crystal Embedding
   Dimitrios Pantazis     : SARC Basis sets
   Anastasios Papadopoulos: AUTO-CI, single reference methods and gradients
   Taras Petrenko         : pre 6.0 DFT Hessian and TD-DFT gradient, (ASA, deprecated), ECA, 1-Electron XAS/XES, NRVS
   Peter Pinski           : DLPNO-MP2, DLPNO-MP2 Gradient
   Christoph Reimann      : Effective Core Potentials
   Marius Retegan         : Local ZFS, SOC
   Christoph Riplinger    : Optimizer, TS searches, QM/MM, DLPNO-CCSD(T), (RO)-DLPNO pert. Triples
   Michael Roemelt        : Original ROCIS implementation
   Masaaki Saitow         : Open-shell DLPNO-CCSD energy and density
   Barbara Sandhoefer     : DKH picture change effects
   Kantharuban Sivalingam : CASSCF convergence/infrastructure, NEVPT2 and variants, FIC-MRCI
   Bernardo de Souza      : ESD, SOC TD-DFT
   Georgi Stoychev        : AutoAux, RI-MP2 NMR, DLPNO-MP2 response, X2C
   Van Anh Tran           : RI-MP2 g-tensors
   Willem Van den Heuvel  : Paramagnetic NMR
   Zikuan Wang            : NOTCH, Electric field optimization 
   Frank Wennmohs         : Technical directorship and infrastructure
   Hang Xu                : AUTO-CI-Response properties 


 We gratefully acknowledge several colleagues who have allowed us to
 interface, adapt or use parts of their codes:
   Stefan Grimme, W. Hujo, H. Kruse, P. Pracht,  : VdW corrections, initial TS optimization,
                  C. Bannwarth, S. Ehlert,         DFT functionals, gCP, sTDA/sTD-DF
                  L. Wittmann, M. Mueller
   Ed Valeev, F. Pavosevic, A. Kumar             : LibInt (2-el integral package), F12 methods
   Garnet Chan, S. Sharma, J. Yang, R. Olivares  : DMRG
   Ulf Ekstrom                                   : XCFun DFT Library
   Mihaly Kallay                                 : mrcc  (arbitrary order and MRCC methods)
   Frank Weinhold                                : gennbo (NPA and NBO analysis)
   Simon Mueller                                 : openCOSMO-RS
   Christopher J. Cramer and Donald G. Truhlar   : smd solvation model
   Lars Goerigk                                  : TD-DFT with DH, B97 family of functionals
   V. Asgeirsson, H. Jonsson                     : NEB implementation
   FAccTs GmbH                                   : IRC, NEB, NEB-TS, DLPNO-Multilevel, CI-OPT
                                                   MM, QMMM, 2- and 3-layer-ONIOM, Crystal-QMMM,
                                                   LR-CPCM, SF, NACMEs, symmetry and pop. for TD-DFT,
                                                   nearIR, NL-DFT gradient (VV10), updates on ESD,
                                                   ML-optimized integration grids, MBIS, APM,
                                                   GOAT, DOCKER, SOLVATOR, interface openCOSMO-RS
   S Lehtola, MJT Oliveira, MAL Marques          : LibXC Library
   Liviu Ungur et al                             : ANISO software


 Your calculation uses the libint2 library for the computation of 2-el integrals
 For citations please refer to: http://libint.valeyev.net

 Your ORCA version has been built with support for libXC version: 6.2.2
 For citations please refer to: https://libxc.gitlab.io

 This ORCA versions uses:
   CBLAS   interface :  Fast vector & matrix operations
   LAPACKE interface :  Fast linear algebra routines
   SCALAPACK package :  Parallel linear algebra routines
   Shared memory     :  Shared parallel matrices
   BLAS/LAPACK       :  OpenBLAS 0.3.27  USE64BITINT DYNAMIC_ARCH NO_AFFINITY SkylakeX SINGLE_THREADED
        Core in use  :  SkylakeX
   Copyright (c) 2011-2014, The OpenBLAS Project


Your calculation utilizes the geometrical counterpoise correction gCP
Please cite in your paper:
H.Kruse, S. Grimme J.Chem.Phys., 136, (2012), 154101 
   

Your calculation utilizes the atom-pairwise dispersion correction
based on EEQ partial charges (D4)


================================================================================

----- Orbital basis set information -----
Your calculation utilizes the basis: def2-SV(P)
   F. Weigend and R. Ahlrichs, Phys. Chem. Chem. Phys. 7, 3297 (2005).

----- AuxJ basis set information -----
Your calculation utilizes the auxiliary basis: def2/J
   F. Weigend, Phys. Chem. Chem. Phys. 8, 1057 (2006).

================================================================================
                                        WARNINGS
                       Please study these warnings very carefully!
================================================================================


================================================================================
                                       INPUT FILE
================================================================================
NAME = sp.inp
|  1> ! pbe def2-sv(p) def2/J RI DEFGRID1 loosescf d4 GCP(DFT/SV(P)) printgap
|  2> %output
|  3>     printlevel normal
|  4> end
|  5> * xyz 0 1
|  6> C -3.3919295327 0.4993490727 0.6699328019
|  7> C -2.7791849996 -0.6158945892 -0.1696586324
|  8> C -1.3811277605 -0.28123838 -0.6884027599
|  9> C -0.3379767927 -0.202977739 0.4265346985
| 10> C 1.0209558134 0.1608926086 -0.1086674959
| 11> O 1.2274104079 0.8671453493 -1.0730443554
| 12> O 1.9871680454 -0.3804651292 0.6270440334
| 13> C 3.3515388215 -0.1148631626 0.2851309543
| 14> H -4.4185656601 0.252079492 0.9282344731
| 15> H -2.838892089 0.6466919291 1.5936451201
| 16> H -3.393693756 1.434426452 0.1143518256
| 17> H -2.7350875484 -1.5341001243 0.4190528313
| 18> H -3.4246049038 -0.8041502124 -1.0295647143
| 19> H -1.399097286 0.672278295 -1.2196622244
| 20> H -1.0717332556 -1.0466540347 -1.403306141
| 21> H -0.258665411 -1.1448939273 0.9689913582
| 22> H -0.6137678173 0.5783177076 1.1379977546
| 23> H 3.402813518 0.7253081898 -0.4082436389
| 24> H 3.7717332054 -1.0067459506 -0.1780097623
| 25> H 3.8715759569 0.1125466718 1.2123789667
| 26> *
| 27> 
| 28>                          ****END OF INPUT****
================================================================================

                       ****************************
                       * Single Point Calculation *
                       ****************************

---------------------------------
CARTESIAN COORDINATES (ANGSTROEM)
---------------------------------
  C     -3.391930    0.499349    0.669933
  C     -2.779185   -0.615895   -0.169659
  C     -1.381128   -0.281238   -0.688403
  C     -0.337977   -0.202978    0.426535
  C      1.020956    0.160893   -0.108667
  O      1.227410    0.867145   -1.073044
  O      1.987168   -0.380465    0.627044
  C      3.351539   -0.114863    0.285131
  H     -4.418566    0.252079    0.928234
  H     -2.838892    0.646692    1.593645
  H     -3.393694    1.434426    0.114352
  H     -2.735088   -1.534100    0.419053
  H     -3.424605   -0.804150   -1.029565
  H     -1.399097    0.672278   -1.219662
  H     -1.071733   -1.046654   -1.403306
  H     -0.258665   -1.144894    0.968991
  H     -0.613768    0.578318    1.137998
  H      3.402814    0.725308   -0.408244
  H      3.771733   -1.006746   -0.178010
  H      3.871576    0.112547    1.212379

----------------------------
CARTESIAN COORDINATES (A.U.)
----------------------------
  NO LB      ZA    FRAG     MASS         X           Y           Z
   0 C     6.0000    0    12.011   -6.409818    0.943633    1.265990
   1 C     6.0000    0    12.011   -5.251899   -1.163872   -0.320608
   2 C     6.0000    0    12.011   -2.609953   -0.531464   -1.300893
   3 C     6.0000    0    12.011   -0.638684   -0.383572    0.806034
   4 C     6.0000    0    12.011    1.929327    0.304043   -0.205352
   5 O     8.0000    0    15.999    2.319470    1.638667   -2.027760
   6 O     8.0000    0    15.999    3.755203   -0.718975    1.184941
   7 C     6.0000    0    12.011    6.333490   -0.217060    0.538819
   8 H     1.0000    0     1.008   -8.349879    0.476361    1.754109
   9 H     1.0000    0     1.008   -5.364729    1.222071    3.011553
  10 H     1.0000    0     1.008   -6.413152    2.710673    0.216094
  11 H     1.0000    0     1.008   -5.168566   -2.899029    0.791895
  12 H     1.0000    0     1.008   -6.471565   -1.519624   -1.945595
  13 H     1.0000    0     1.008   -2.643911    1.270422   -2.304828
  14 H     1.0000    0     1.008   -2.025282   -1.977889   -2.651864
  15 H     1.0000    0     1.008   -0.488807   -2.163536    1.831128
  16 H     1.0000    0     1.008   -1.159853    1.092862    2.150504
  17 H     1.0000    0     1.008    6.430386    1.370634   -0.771469
  18 H     1.0000    0     1.008    7.127543   -1.902474   -0.336390
  19 H     1.0000    0     1.008    7.316218    0.212682    2.291064

--------------------------------
INTERNAL COORDINATES (ANGSTROEM)
--------------------------------
 C      0   0   0     0.000000000000     0.00000000     0.00000000
 C      1   0   0     1.524512402312     0.00000000     0.00000000
 C      2   1   0     1.528284754871   113.22999307     0.00000000
 C      3   2   1     1.528847345452   112.82054460    67.96219401
 C      4   3   2     1.505171367876   111.65924107   181.39963950
 O      5   4   3     1.213028919884   125.24684021    31.54593510
 O      5   4   3     1.329626162456   111.15560692   210.69836492
 C      7   5   4     1.431417679434   119.00766064   181.50113964
 H      1   2   3     1.087126366605   110.12236811   174.35316186
 H      1   2   3     1.086648415202   111.27135260   294.11147507
 H      1   2   3     1.087677819480   110.38025961    54.72155451
 H      2   1   3     1.091616772216   109.54567826   122.26174478
 H      2   1   3     1.091533555184   108.80635963   239.73406696
 H      3   2   1     1.091674663978   109.96136389   306.37263702
 H      3   2   1     1.092095659011   109.14049459   188.85903286
 H      4   3   2     1.089842020066   111.61679677    59.53096852
 H      4   3   2     1.092091087924   109.84082699   299.51427010
 H      8   7   5     1.090543590321   109.85481460    14.59817631
 H      8   7   5     1.089273864170   108.50099593   254.29097331
 H      8   7   5     1.087171896011   106.91908084   135.15522197

---------------------------
INTERNAL COORDINATES (A.U.)
---------------------------
 C      0   0   0     0.000000000000     0.00000000     0.00000000
 C      1   0   0     2.880910928135     0.00000000     0.00000000
 C      2   1   0     2.888039641354   113.22999307     0.00000000
 C      3   2   1     2.889102783477   112.82054460    67.96219401
 C      4   3   2     2.844361669906   111.65924107   181.39963950
 O      5   4   3     2.292292451107   125.24684021    31.54593510
 O      5   4   3     2.512629307538   111.15560692   210.69836492
 C      7   5   4     2.704987397384   119.00766064   181.50113964
 H      1   2   3     2.054371105848   110.12236811   174.35316186
 H      1   2   3     2.053467908591   111.27135260   294.11147507
 H      1   2   3     2.055413200758   110.38025961    54.72155451
 H      2   1   3     2.062856742683   109.54567826   122.26174478
 H      2   1   3     2.062699485283   108.80635963   239.73406696
 H      3   2   1     2.062966142258   109.96136389   306.37263702
 H      3   2   1     2.063761707575   109.14049459   188.85903286
 H      4   3   2     2.059502947164   111.61679677    59.53096852
 H      4   3   2     2.063753069472   109.84082699   299.51427010
 H      8   7   5     2.060828722810   109.85481460    14.59817631
 H      8   7   5     2.058429288120   108.50099593   254.29097331
 H      8   7   5     2.054457143957   106.91908084   135.15522197

---------------------
BASIS SET INFORMATION
---------------------
There are 3 groups of distinct atoms

 Group   1 Type C   : 7s4p1d contracted to 3s2p1d pattern {511/31/1}
 Group   2 Type O   : 7s4p1d contracted to 3s2p1d pattern {511/31/1}
 Group   3 Type H   : 4s contracted to 2s pattern {31}

Atom   0C    basis set group =>   1
Atom   1C    basis set group =>   1
Atom   2C    basis set group =>   1
Atom   3C    basis set group =>   1
Atom   4C    basis set group =>   1
Atom   5O    basis set group =>   2
Atom   6O    basis set group =>   2
Atom   7C    basis set group =>   1
Atom   8H    basis set group =>   3
Atom   9H    basis set group =>   3
Atom  10H    basis set group =>   3
Atom  11H    basis set group =>   3
Atom  12H    basis set group =>   3
Atom  13H    basis set group =>   3
Atom  14H    basis set group =>   3
Atom  15H    basis set group =>   3
Atom  16H    basis set group =>   3
Atom  17H    basis set group =>   3
Atom  18H    basis set group =>   3
Atom  19H    basis set group =>   3
---------------------------------
AUXILIARY/J BASIS SET INFORMATION
---------------------------------
There are 3 groups of distinct atoms

 Group   1 Type C   : 12s5p4d2f1g contracted to 6s4p3d1f1g pattern {711111/2111/211/2/1}
 Group   2 Type O   : 12s5p4d2f1g contracted to 6s4p3d1f1g pattern {711111/2111/211/2/1}
 Group   3 Type H   : 5s2p1d contracted to 3s1p1d pattern {311/2/1}

Atom   0C    basis set group =>   1
Atom   1C    basis set group =>   1
Atom   2C    basis set group =>   1
Atom   3C    basis set group =>   1
Atom   4C    basis set group =>   1
Atom   5O    basis set group =>   2
Atom   6O    basis set group =>   2
Atom   7C    basis set group =>   1
Atom   8H    basis set group =>   3
Atom   9H    basis set group =>   3
Atom  10H    basis set group =>   3
Atom  11H    basis set group =>   3
Atom  12H    basis set group =>   3
Atom  13H    basis set group =>   3
Atom  14H    basis set group =>   3
Atom  15H    basis set group =>   3
Atom  16H    basis set group =>   3
Atom  17H    basis set group =>   3
Atom  18H    basis set group =>   3
Atom  19H    basis set group =>   3
------------------------------------------------------------------------------
                             ORCA STARTUP CALCULATIONS
                           -- RI-GTO INTEGRALS CHOSEN --
------------------------------------------------------------------------------
------------------------------------------------------------------------------
                   ___                                                        
                  /   \      - P O W E R E D   B Y -                         
                 /     \                                                     
                 |  |  |   _    _      __       _____    __    __             
                 |  |  |  | |  | |    /  \     |  _  \  |  |  /  |          
                  \  \/   | |  | |   /    \    | | | |  |  | /  /          
                 / \  \   | |__| |  /  /\  \   | |_| |  |  |/  /          
                |  |  |   |  __  | /  /__\  \  |    /   |      \           
                |  |  |   | |  | | |   __   |  |    \   |  |\   \          
                \     /   | |  | | |  |  |  |  | |\  \  |  | \   \       
                 \___/    |_|  |_| |__|  |__|  |_| \__\ |__|  \__/        
                                                                              
                      - O R C A' S   B I G   F R I E N D -                    
                                      &                                       
                       - I N T E G R A L  F E E D E R -                       
                                                                              
 v1 FN, 2020, v2 2021, v3 2022-2024                                           
------------------------------------------------------------------------------


----------------------
SHARK INTEGRAL PACKAGE
----------------------

Number of atoms                             ...     20
Number of basis functions                   ...    136
Number of shells                            ...     72
Maximum angular momentum                    ...      2
Integral batch strategy                     ... SHARK/LIBINT Hybrid
RI-J (if used) integral strategy            ... SPLIT-RIJ (Revised 2003 algorithm where possible)
Printlevel                                  ...      1
Contraction scheme used                     ... SEGMENTED contraction
Prescreening option                         ... SCHWARTZ
   Thresh                                   ... 1.000e-09
   Tcut                                     ... 1.000e-10
   Tpresel                                  ... 1.000e-10 
Coulomb Range Separation                    ... NOT USED
Exchange Range Separation                   ... NOT USED
Multipole approximations                    ... NOT USED
Finite Nucleus Model                        ... NOT USED
CABS basis                                  ... NOT available
Auxiliary Coulomb fitting basis             ... AVAILABLE
   # of basis functions in Aux-J            ...    524
   # of shells in Aux-J                     ...    180
   Maximum angular momentum in Aux-J        ...      4
Auxiliary J/K fitting basis                 ... NOT available
Auxiliary Correlation fitting basis         ... NOT available
Auxiliary 'external' fitting basis          ... NOT available

Checking pre-screening integrals            ... done (  0.0 sec) Dimension = 72
Check shell pair data                       ... done (  0.0 sec)
Shell pair information
Shell pair cut-off parameter TPreSel        ...   1.0e-10
Total number of shell pairs                 ...      2628
Shell pairs after pre-screening             ...      2361
Total number of primitive shell pairs       ...     10580
Primitive shell pairs kept                  ...      6609
          la=0 lb=0:   1047 shell pairs
          la=1 lb=0:    711 shell pairs
          la=1 lb=1:    131 shell pairs
          la=2 lb=0:    326 shell pairs
          la=2 lb=1:    117 shell pairs
          la=2 lb=2:     29 shell pairs

Calculating one electron integrals          ... done (  0.0 sec)
Calculating RI/J V-Matrix + Cholesky decomp.... done (  0.1 sec)
Calculating Nuclear repulsion               ... done (  0.0 sec) ENN=    384.189900889373 Eh

Diagonalization of the overlap matrix:
Smallest eigenvalue                        ... 1.374e-03
Time for diagonalization                   ...    0.002 sec
Threshold for overlap eigenvalues          ... 1.000e-07
Number of eigenvalues below threshold      ... 0
Time for construction of square roots      ...    0.017 sec
Total time needed                          ...    0.027 sec

-------------------
DFT GRID GENERATION
-------------------

General Integration Accuracy     IntAcc      ... 4.159
Radial Grid Type                 RadialGrid  ... OptM3 with GC (2021)
Angular Grid (max. ang.)         AngularGrid ... 3 (Lebedev-194)
Angular grid pruning method      GridPruning ... 4 (adaptive)
Weight generation scheme         WeightScheme... mBecke (2022)
Basis function cutoff            BFCut       ... 1.0000e-10
Integration weight cutoff        WCut        ... 1.0000e-14
Partially contracted basis set               ... off
Rotationally invariant grid construction     ... off
Angular grids for H and He will be reduced by one unit

Total number of grid points                  ...    43020
Total number of batches                      ...      681
Average number of points per batch           ...       63
Average number of grid points per atom       ...     2151
Initializing property integral containers    ... done (  0.0 sec)

SHARK setup successfully completed in   0.7 seconds

Maximum memory used throughout the entire STARTUP-calculation: 21.1 MB
-------------------------------------------------------------------------------
                                 ORCA GUESS
                   Start orbitals & Density for SCF / CASSCF
-------------------------------------------------------------------------------

------------
SCF SETTINGS
------------
Hamiltonian:
 Density Functional     Method          .... DFT(GTOs)
 Exchange Functional    Exchange        .... PBE
   PBE kappa parameter   XKappa         ....  0.804000
   PBE mue parameter    XMuePBE         ....  0.219520
 Correlation Functional Correlation     .... PBE
   PBE beta parameter  CBetaPBE         ....  0.066725
 LDA part of GGA corr.  LDAOpt          .... PW91-LDA
 Gradients option       PostSCFGGA      .... off
   NL short-range parameter             ....  6.400000
 RI-approximation to the Coulomb term is turned on
   Number of AuxJ basis functions       .... 524


General Settings:
 Integral files         IntName         .... sp
 Hartree-Fock type      HFTyp           .... RHF
 Total Charge           Charge          ....    0
 Multiplicity           Mult            ....    1
 Number of Electrons    NEL             ....   64
 Basis Dimension        Dim             ....  136
 Nuclear Repulsion      ENuc            ....    384.1899008894 Eh

Convergence Acceleration:
 AO-DIIS                CNVDIIS         .... on
   Start iteration      DIISMaxIt       ....    12
   Startup error        DIISStart       ....  0.200000
   # of expansion vecs  DIISMaxEq       ....     5
   Bias factor          DIISBfac        ....   1.050
   Max. coefficient     DIISMaxC        ....  10.000
 MO-DIIS                CNVKDIIS        .... off
 Trust-Rad. Augm. Hess. CNVTRAH         .... auto
   Auto Start mean grad. ratio tolernc. ....  1.125000
   Auto Start start iteration           ....    50
   Auto Start num. interpolation iter.  ....    10
   Max. Number of Micro iterations      ....    24
   Max. Number of Macro iterations      .... Maxiter - #DIIS iter
   Number of Davidson start vectors     ....     2
   Converg. threshold    (grad. norm)   ....   1.000e-04
   Grad. Scal. Fac. for Micro threshold ....   0.100
   Minimum threshold for Micro iter.    ....   1.000e-02
   NR start threshold (gradient norm)   ....   1.000e-04
   Initial trust radius                 ....   0.400
   Minimum AH scaling param. (alpha)    ....   1.000
   Maximum AH scaling param. (alpha)    .... 1000.000
   Quad. conv. algorithm                .... NR
   White noise on init. David. guess    .... on
   Maximum white noise                  ....   0.010
   Pseudo random numbers                .... off
   Inactive MOs                         .... canonical
   Orbital update algorithm             .... Taylor
   Preconditioner                       .... Diag
   Full preconditioner red. dimension   ....   250
 SOSCF                  CNVSOSCF        .... on
   Start iteration      SOSCFMaxIt      ....   150
   Startup grad/error   SOSCFStart      ....  0.003300
   Hessian update       SOSCFHessUp     .... L-BFGS
 Level Shifting         CNVShift        .... on
   Level shift para.    LevelShift      ....    0.2500
   Turn off err/grad.   ShiftErr        ....    0.0010
 Zerner damping         CNVZerner       .... off
 Static damping         CNVDamp         .... on
   Fraction old density DampFac         ....    0.7000
   Max. Damping (<1)    DampMax         ....    0.9800
   Min. Damping (>=0)   DampMin         ....    0.0000
   Turn off err/grad.   DampErr         ....    0.1000

SCF Procedure:
 Maximum # iterations   MaxIter         ....   125
 SCF integral mode      SCFMode         .... Direct
   Integral package                     .... SHARK and LIBINT hybrid scheme
 Reset frequency        DirectResetFreq ....    20
 Integral Threshold     Thresh          ....  1.000e-09 Eh
 Primitive CutOff       TCut            ....  1.000e-10 Eh

Convergence Tolerance:
 Convergence Check Mode ConvCheckMode   .... Total+1el-Energy
 Convergence forced     ConvForced      .... 0
 Energy Change          TolE            ....  1.000e-05 Eh
 1-El. energy change                    ....  1.000e-02 Eh
 Orbital Gradient       TolG            ....  1.000e-04
 Orbital Rotation angle TolX            ....  1.000e-04
 DIIS Error             TolErr          ....  5.000e-04

------------------------------
INITIAL GUESS: MODEL POTENTIAL
------------------------------
Loading Hartree-Fock densities                     ... done
Calculating cut-offs                               ... done
Initializing the effective Hamiltonian             ... done
Setting up the integral package (SHARK)            ... done
Starting the Coulomb interaction                   ... done (   0.1 sec)
Making the grid                                    ... done (   0.2 sec)
Mapping shells                                     ... done
Starting the XC term evaluation                    ... done (   0.2 sec)
  promolecular density results
     # of electrons  =     63.996891221
     EX              =    -50.544775979
     EC              =     -2.108035369
     EX+EC           =    -52.652811348
Transforming the Hamiltonian                       ... done (   0.0 sec)
Diagonalizing the Hamiltonian                      ... done (   0.0 sec)
Back transforming the eigenvectors                 ... done (   0.0 sec)
Now organizing SCF variables                       ... done
                      ------------------
                      INITIAL GUESS DONE (   0.5 sec)
                      ------------------
             **** ENERGY FILE WAS UPDATED (sp.en.tmp) ****
Finished Guess after   0.7 sec
Maximum memory used throughout the entire GUESS-calculation: 16.1 MB

-------------------------------------------------------------------------------------------
                                      ORCA LEAN-SCF
                              memory conserving SCF solver
-------------------------------------------------------------------------------------------

----------------------------------------D-I-I-S--------------------------------------------
Iteration    Energy (Eh)           Delta-E    RMSDP     MaxDP     DIISErr   Damp  Time(sec)
-------------------------------------------------------------------------------------------
               ***  Starting incremental Fock matrix formation  ***
    1    -385.2857096405362540     0.00e+00  5.08e-03  1.12e-01  2.40e-01  0.700   0.8
    2    -385.4077753992527846    -1.22e-01  3.16e-03  6.22e-02  7.11e-02  0.700   0.8
                               ***Turning on AO-DIIS***
    3    -385.4448954838592840    -3.71e-02  1.27e-03  1.40e-02  2.47e-02  0.700   0.8
    4    -385.4693686192529753    -2.45e-02  1.80e-03  2.14e-02  1.80e-02  0.000   0.8
    5    -385.5263687898887497    -5.70e-02  5.78e-04  7.26e-03  8.37e-03  0.000   0.8
    6    -385.5270872274798535    -7.18e-04  2.19e-04  2.55e-03  3.37e-03  0.000   0.7
                              *** Initializing SOSCF ***
---------------------------------------S-O-S-C-F--------------------------------------
Iteration    Energy (Eh)           Delta-E    RMSDP     MaxDP     MaxGrad    Time(sec)
--------------------------------------------------------------------------------------
    7    -385.5271456666792460    -5.84e-05  7.44e-05  1.04e-03  1.27e-03     0.7
               *** Restarting incremental Fock matrix formation ***
    8    -385.5271525662259933    -6.90e-06  4.96e-05  5.95e-04  1.06e-04     0.8
    9    -385.5271521882044112     3.78e-07  2.13e-05  4.90e-04  1.83e-04     0.7
                 **** Energy Check signals convergence ****

               *****************************************************
               *                     SUCCESS                       *
               *           SCF CONVERGED AFTER   9 CYCLES          *
               *****************************************************

             **** ENERGY FILE WAS UPDATED (sp.en.tmp) ****

----------------
TOTAL SCF ENERGY
----------------

Total Energy       :       -385.52715218820441 Eh          -10490.72715 eV

Components:
Nuclear Repulsion  :        384.18990088937295 Eh           10454.33869 eV
Electronic Energy  :       -769.71705307757736 Eh          -20945.06584 eV
One Electron Energy:      -1284.89865098605333 Eh          -34963.86982 eV
Two Electron Energy:        515.18159790847596 Eh           14018.80398 eV

Virial components:
Potential Energy   :       -767.91725311451535 Eh          -20896.09079 eV
Kinetic Energy     :        382.39010092631094 Eh           10405.36364 eV
Virial Ratio       :          2.00820379830517

DFT components:
N(Alpha)           :       31.999953036414 electrons
N(Beta)            :       31.999953036414 electrons
N(Total)           :       63.999906072828 electrons
E(X)               :      -51.602085215296 Eh       
E(C)               :       -2.124006064434 Eh       
E(XC)              :      -53.726091279730 Eh       

---------------
SCF CONVERGENCE
---------------

  Last Energy change         ...   -3.7802e-07  Tolerance :   1.0000e-05
  Last MAX-Density change    ...    4.9014e-04  Tolerance :   1.0000e-03
  Last RMS-Density change    ...    2.1338e-05  Tolerance :   1.0000e-04
  Last DIIS Error            ...    1.2733e-03  Tolerance :   5.0000e-04
  Last Orbital Gradient      ...    1.8336e-04  Tolerance :   1.0000e-04
  Last Orbital Rotation      ...    3.3319e-04  Tolerance :   1.0000e-04


----------------
ORBITAL ENERGIES
----------------

  NO   OCC          E(Eh)            E(eV) 
   0   2.0000     -18.797340      -511.5016 
   1   2.0000     -18.732810      -509.7457 
   2   2.0000     -10.003477      -272.2084 
   3   2.0000      -9.937924      -270.4247 
   4   2.0000      -9.895615      -269.2734 
   5   2.0000      -9.885563      -268.9998 
   6   2.0000      -9.885487      -268.9978 
   7   2.0000      -9.875615      -268.7292 
   8   2.0000      -1.002564       -27.2811 
   9   2.0000      -0.908482       -24.7211 
  10   2.0000      -0.729381       -19.8475 
  11   2.0000      -0.685106       -18.6427 
  12   2.0000      -0.644047       -17.5254 
  13   2.0000      -0.583903       -15.8888 
  14   2.0000      -0.517874       -14.0921 
  15   2.0000      -0.496258       -13.5039 
  16   2.0000      -0.450904       -12.2697 
  17   2.0000      -0.440914       -11.9979 
  18   2.0000      -0.415932       -11.3181 
  19   2.0000      -0.410169       -11.1613 
  20   2.0000      -0.395941       -10.7741 
  21   2.0000      -0.375248       -10.2110 
  22   2.0000      -0.364252        -9.9118 
  23   2.0000      -0.351446        -9.5633 
  24   2.0000      -0.332482        -9.0473 
  25   2.0000      -0.321397        -8.7456 
  26   2.0000      -0.301319        -8.1993 
  27   2.0000      -0.288697        -7.8559 
  28   2.0000      -0.286351        -7.7920 
  29   2.0000      -0.284125        -7.7314 
  30   2.0000      -0.254862        -6.9352 
  31   2.0000      -0.219679        -5.9778 
  32   0.0000      -0.016614        -0.4521 
  33   0.0000       0.038007         1.0342 
  34   0.0000       0.058044         1.5795 
  35   0.0000       0.067503         1.8368 
  36   0.0000       0.072955         1.9852 
  37   0.0000       0.084889         2.3100 
  38   0.0000       0.094458         2.5703 
  39   0.0000       0.106985         2.9112 
  40   0.0000       0.114175         3.1069 
  41   0.0000       0.115678         3.1477 
  42   0.0000       0.126067         3.4305 
*Only the first 10 virtual orbitals were printed.

                    ********************************
                    * MULLIKEN POPULATION ANALYSIS *
                    ********************************

-----------------------
MULLIKEN ATOMIC CHARGES
-----------------------
   0 C :   -0.298108
   1 C :   -0.149441
   2 C :   -0.185612
   3 C :   -0.176735
   4 C :    0.117835
   5 O :   -0.205180
   6 O :   -0.240874
   7 C :   -0.129419
   8 H :    0.104708
   9 H :    0.106702
  10 H :    0.102267
  11 H :    0.080683
  12 H :    0.087425
  13 H :    0.101883
  14 H :    0.090087
  15 H :    0.098345
  16 H :    0.120024
  17 H :    0.132333
  18 H :    0.121291
  19 H :    0.121786
Sum of atomic charges:    0.0000000

--------------------------------
MULLIKEN REDUCED ORBITAL CHARGES
--------------------------------
  0 C s       :     3.103111  s :     3.103111
      pz      :     1.058663  p :     3.165636
      px      :     1.060439
      py      :     1.046535
      dz2     :     0.005408  d :     0.029361
      dxz     :     0.005854
      dyz     :     0.006658
      dx2y2   :     0.008601
      dxy     :     0.002839

  1 C s       :     3.037876  s :     3.037876
      pz      :     1.017712  p :     3.074557
      px      :     1.012558
      py      :     1.044287
      dz2     :     0.004405  d :     0.037008
      dxz     :     0.009873
      dyz     :     0.008465
      dx2y2   :     0.008983
      dxy     :     0.005282

  2 C s       :     3.083217  s :     3.083217
      pz      :     1.031267  p :     3.066224
      px      :     0.984842
      py      :     1.050115
      dz2     :     0.003615  d :     0.036171
      dxz     :     0.008234
      dyz     :     0.010619
      dx2y2   :     0.008802
      dxy     :     0.004901

  3 C s       :     3.015842  s :     3.015842
      pz      :     1.082388  p :     3.127430
      px      :     0.998490
      py      :     1.046552
      dz2     :     0.004076  d :     0.033463
      dxz     :     0.005983
      dyz     :     0.010820
      dx2y2   :     0.008317
      dxy     :     0.004267

  4 C s       :     3.043854  s :     3.043854
      pz      :     0.876698  p :     2.707672
      px      :     0.955920
      py      :     0.875054
      dz2     :     0.028183  d :     0.130640
      dxz     :     0.039441
      dyz     :     0.018907
      dx2y2   :     0.018445
      dxy     :     0.025663

  5 O s       :     3.747062  s :     3.747062
      pz      :     1.347991  p :     4.440556
      px      :     1.716909
      py      :     1.375656
      dz2     :     0.005480  d :     0.017561
      dxz     :     0.002792
      dyz     :     0.005634
      dx2y2   :     0.002108
      dxy     :     0.001548

  6 O s       :     3.727944  s :     3.727944
      pz      :     1.636367  p :     4.496745
      px      :     1.189590
      py      :     1.670789
      dz2     :     0.002607  d :     0.016185
      dxz     :     0.004765
      dyz     :     0.002303
      dx2y2   :     0.002863
      dxy     :     0.003647

  7 C s       :     3.131079  s :     3.131079
      pz      :     1.082612  p :     2.947728
      px      :     0.759533
      py      :     1.105583
      dz2     :     0.006152  d :     0.050611
      dxz     :     0.012643
      dyz     :     0.007681
      dx2y2   :     0.013505
      dxy     :     0.010630

  8 H s       :     0.895292  s :     0.895292

  9 H s       :     0.893298  s :     0.893298

 10 H s       :     0.897733  s :     0.897733

 11 H s       :     0.919317  s :     0.919317

 12 H s       :     0.912575  s :     0.912575

 13 H s       :     0.898117  s :     0.898117

 14 H s       :     0.909913  s :     0.909913

 15 H s       :     0.901655  s :     0.901655

 16 H s       :     0.879976  s :     0.879976

 17 H s       :     0.867667  s :     0.867667

 18 H s       :     0.878709  s :     0.878709

 19 H s       :     0.878214  s :     0.878214


------------------------
MULLIKEN OVERLAP CHARGES
------------------------
B(  0-C ,  1-C ) :   0.9069 B(  0-C ,  2-C ) :  -0.1276 B(  0-C ,  8-H ) :   0.7273 
B(  0-C ,  9-H ) :   0.7624 B(  0-C , 10-H ) :   0.7566 B(  0-C , 11-H ) :  -0.0590 
B(  1-C ,  2-C ) :   0.8774 B(  1-C ,  3-C ) :  -0.1263 B(  1-C ,  9-H ) :  -0.0517 
B(  1-C , 10-H ) :  -0.0560 B(  1-C , 11-H ) :   0.7101 B(  1-C , 12-H ) :   0.7054 
B(  2-C ,  3-C ) :   0.7086 B(  2-C , 13-H ) :   0.6967 B(  2-C , 14-H ) :   0.7155 
B(  3-C ,  4-C ) :   0.4280 B(  3-C ,  5-O ) :  -0.2435 B(  3-C ,  6-O ) :  -0.2820 
B(  3-C , 13-H ) :  -0.0520 B(  3-C , 14-H ) :  -0.0681 B(  3-C , 15-H ) :   0.6020 
B(  3-C , 16-H ) :   0.6016 B(  4-C ,  5-O ) :   1.3966 B(  4-C ,  6-O ) :   0.7736 
B(  4-C ,  7-C ) :  -0.0809 B(  5-O ,  6-O ) :  -0.1636 B(  5-O , 17-H ) :   0.0790 
B(  6-O ,  7-C ) :   0.5526 B(  6-O , 17-H ) :  -0.0684 B(  6-O , 18-H ) :  -0.0558 
B(  6-O , 19-H ) :  -0.0553 B(  7-C , 17-H ) :   0.7223 B(  7-C , 18-H ) :   0.7799 
B(  7-C , 19-H ) :   0.7688 B(  9-H , 10-H ) :  -0.0557 B( 11-H , 12-H ) :  -0.0627 
B( 13-H , 14-H ) :  -0.0567 B( 17-H , 18-H ) :  -0.0513 B( 18-H , 19-H ) :  -0.0557 



                     *******************************
                     * LOEWDIN POPULATION ANALYSIS *
                     *******************************

----------------------
LOEWDIN ATOMIC CHARGES
----------------------
   0 C :   -0.343638
   1 C :   -0.233553
   2 C :   -0.222392
   3 C :   -0.249970
   4 C :    0.038580
   5 O :   -0.170006
   6 O :   -0.076994
   7 C :   -0.209125
   8 H :    0.120895
   9 H :    0.115354
  10 H :    0.118942
  11 H :    0.113492
  12 H :    0.118101
  13 H :    0.123185
  14 H :    0.119344
  15 H :    0.130830
  16 H :    0.143063
  17 H :    0.123759
  18 H :    0.119716
  19 H :    0.120415

-------------------------------
LOEWDIN REDUCED ORBITAL CHARGES
-------------------------------
  0 C s       :     2.944605  s :     2.944605
      pz      :     1.112461  p :     3.328137
      px      :     1.112190
      py      :     1.103486
      dz2     :     0.011825  d :     0.070897
      dxz     :     0.014426
      dyz     :     0.017245
      dx2y2   :     0.020293
      dxy     :     0.007107

  1 C s       :     2.905310  s :     2.905310
      pz      :     1.089411  p :     3.239110
      px      :     1.063240
      py      :     1.086460
      dz2     :     0.009437  d :     0.089132
      dxz     :     0.023642
      dyz     :     0.021545
      dx2y2   :     0.022171
      dxy     :     0.012338

  2 C s       :     2.908490  s :     2.908490
      pz      :     1.073912  p :     3.226026
      px      :     1.039596
      py      :     1.112518
      dz2     :     0.008293  d :     0.087876
      dxz     :     0.022756
      dyz     :     0.024384
      dx2y2   :     0.022414
      dxy     :     0.010029

  3 C s       :     2.914527  s :     2.914527
      pz      :     1.096005  p :     3.250821
      px      :     1.049842
      py      :     1.104974
      dz2     :     0.009194  d :     0.084622
      dxz     :     0.019197
      dyz     :     0.024822
      dx2y2   :     0.021949
      dxy     :     0.009460

  4 C s       :     2.846418  s :     2.846418
      pz      :     0.947794  p :     2.817513
      px      :     0.975619
      py      :     0.894100
      dz2     :     0.061192  d :     0.297489
      dxz     :     0.092247
      dyz     :     0.046848
      dx2y2   :     0.039484
      dxy     :     0.057718

  5 O s       :     3.550251  s :     3.550251
      pz      :     1.441345  p :     4.588767
      px      :     1.724487
      py      :     1.422935
      dz2     :     0.008523  d :     0.030988
      dxz     :     0.004658
      dyz     :     0.011996
      dx2y2   :     0.003254
      dxy     :     0.002558

  6 O s       :     3.450279  s :     3.450279
      pz      :     1.656921  p :     4.593793
      px      :     1.263186
      py      :     1.673686
      dz2     :     0.004276  d :     0.032922
      dxz     :     0.010407
      dyz     :     0.003503
      dx2y2   :     0.007037
      dxy     :     0.007700

  7 C s       :     2.966718  s :     2.966718
      pz      :     1.138979  p :     3.130469
      px      :     0.838795
      py      :     1.152695
      dz2     :     0.012949  d :     0.111938
      dxz     :     0.028155
      dyz     :     0.019144
      dx2y2   :     0.029035
      dxy     :     0.022656

  8 H s       :     0.879105  s :     0.879105

  9 H s       :     0.884646  s :     0.884646

 10 H s       :     0.881058  s :     0.881058

 11 H s       :     0.886508  s :     0.886508

 12 H s       :     0.881899  s :     0.881899

 13 H s       :     0.876815  s :     0.876815

 14 H s       :     0.880656  s :     0.880656

 15 H s       :     0.869170  s :     0.869170

 16 H s       :     0.856937  s :     0.856937

 17 H s       :     0.876241  s :     0.876241

 18 H s       :     0.880284  s :     0.880284

 19 H s       :     0.879585  s :     0.879585


---------------------------------
LOEWDIN BOND ORDERS (THRESH 0.050000)
---------------------------------
B(  0-C ,  1-C ) :   1.1319 B(  0-C ,  2-C ) :   0.0517 B(  0-C ,  8-H ) :   0.9389 
B(  0-C ,  9-H ) :   0.9387 B(  0-C , 10-H ) :   0.9400 B(  1-C ,  2-C ) :   1.0980 
B(  1-C ,  3-C ) :   0.0529 B(  1-C , 11-H ) :   0.9071 B(  1-C , 12-H ) :   0.9051 
B(  2-C ,  3-C ) :   1.0777 B(  2-C ,  4-C ) :   0.0619 B(  2-C , 13-H ) :   0.8997 
B(  2-C , 14-H ) :   0.9046 B(  3-C ,  4-C ) :   1.0595 B(  3-C ,  5-O ) :   0.0939 
B(  3-C ,  6-O ) :   0.0757 B(  3-C , 15-H ) :   0.8932 B(  3-C , 16-H ) :   0.8762 
B(  4-C ,  5-O ) :   2.1995 B(  4-C ,  6-O ) :   1.4020 B(  4-C ,  7-C ) :   0.0762 
B(  5-O ,  6-O ) :   0.2102 B(  6-O ,  7-C ) :   1.1042 B(  7-C , 17-H ) :   0.9338 
B(  7-C , 18-H ) :   0.9512 B(  7-C , 19-H ) :   0.9527 

------------------------------------------
LOEWDIN REDUCED ORBITAL POPULATIONS PER MO
-------------------------------------------
THRESHOLD FOR PRINTING IS 0.1%%
                      0         1         2         3         4         5   
                 -18.79734 -18.73281 -10.00348  -9.93792  -9.89561  -9.88556
                   2.00000   2.00000   2.00000   2.00000   2.00000   2.00000
                  --------  --------  --------  --------  --------  --------
 1 C  s               0.0       0.0       0.0       0.0       0.0       3.3
 2 C  s               0.0       0.0       0.0       0.0       0.0      96.3
 3 C  s               0.0       0.0       0.0       0.0      99.6       0.0
 4 C  s               0.0       0.0      99.3       0.0       0.0       0.0
 5 O  s               0.0      99.9       0.0       0.0       0.0       0.0
 5 O  pz              0.0       0.0       0.2       0.0       0.0       0.0
 6 O  s              99.9       0.0       0.0       0.0       0.0       0.0
 7 C  s               0.0       0.0       0.0      99.7       0.0       0.0

                      6         7         8         9        10        11   
                  -9.88549  -9.87562  -1.00256  -0.90848  -0.72938  -0.68511
                   2.00000   2.00000   2.00000   2.00000   2.00000   2.00000
                  --------  --------  --------  --------  --------  --------
 0 C  s               0.0      99.7       0.0       0.0       5.9       9.7
 0 C  pz              0.0       0.0       0.0       0.0       0.5       0.4
 0 C  px              0.0       0.0       0.0       0.0       0.5       0.2
 0 C  py              0.1       0.0       0.0       0.0       0.7       0.6
 1 C  s              96.3       0.0       0.0       0.0      14.4      10.9
 1 C  pz              0.0       0.0       0.0       0.0       0.0       0.2
 1 C  px              0.0       0.0       0.0       0.0       1.3       0.2
 1 C  py              0.0       0.1       0.0       0.0       0.6       0.5
 2 C  s               3.3       0.0       0.1       0.1      19.6       0.8
 2 C  pz              0.0       0.0       0.0       0.0       1.8       0.0
 2 C  px              0.1       0.0       0.1       0.1       0.0       3.9
 3 C  s               0.0       0.0       1.0       0.3      17.1       6.2
 3 C  pz              0.0       0.0       0.1       0.3       0.8       0.1
 3 C  px              0.0       0.0       1.7       0.1       0.5       2.8
 3 C  py              0.0       0.0       0.1       0.2       0.0       0.0
 4 C  s               0.0       0.0      18.6       5.1       1.8       4.8
 4 C  pz              0.0       0.0       0.1      15.2       1.6       3.9
 4 C  px              0.0       0.0       5.1       0.8       4.2       1.8
 4 C  py              0.0       0.0       0.0       8.2       0.9       1.9
 4 C  dz2             0.0       0.0       0.0       0.3       0.0       0.0
 4 C  dxz             0.0       0.0       0.2       0.5       0.0       0.0
 4 C  dyz             0.0       0.0       0.7       0.6       0.0       0.0
 4 C  dx2y2           0.0       0.0       0.0       0.3       0.1       0.0
 4 C  dxy             0.0       0.0       0.1       0.3       0.0       0.0
 5 O  s               0.0       0.0      11.3      41.6       1.0       1.2
 5 O  pz              0.0       0.0       1.8       2.7       0.0       0.2
 5 O  px              0.0       0.0       0.0       0.2       0.1       0.1
 5 O  py              0.0       0.0       1.0       1.4       0.0       0.1
 6 O  s               0.0       0.0      41.6      15.7       0.0       0.0
 6 O  pz              0.0       0.0       2.0       0.1       0.0       0.1
 6 O  px              0.0       0.0       0.1       0.5       2.2      15.1
 6 O  py              0.0       0.0       1.1       0.1       0.0       0.0
 7 C  s               0.0       0.0       4.7       2.3       1.2      12.6
 7 C  pz              0.0       0.0       0.1       0.2       0.0       0.1
 7 C  px              0.0       0.0       5.4       1.4       0.1       0.2
 7 C  py              0.0       0.0       0.1       0.1       0.0       0.0
 7 C  dx2y2           0.0       0.0       0.3       0.1       0.0       0.0
 8 H  s               0.0       0.1       0.0       0.0       0.9       1.9
 9 H  s               0.0       0.1       0.0       0.0       1.2       1.8
10 H  s               0.0       0.1       0.0       0.0       1.1       1.9
11 H  s               0.1       0.0       0.0       0.0       2.7       2.1
12 H  s               0.1       0.0       0.0       0.0       2.5       2.3
13 H  s               0.0       0.0       0.0       0.0       3.4       0.2
14 H  s               0.0       0.0       0.0       0.0       3.4       0.1
15 H  s               0.0       0.0       0.2       0.0       3.3       1.5
16 H  s               0.0       0.0       0.1       0.0       3.5       1.1
17 H  s               0.0       0.0       0.9       0.1       0.2       2.5
18 H  s               0.0       0.0       0.5       0.3       0.2       2.7
19 H  s               0.0       0.0       0.5       0.3       0.2       2.9

                     12        13        14        15        16        17   
                  -0.64405  -0.58390  -0.51787  -0.49626  -0.45090  -0.44091
                   2.00000   2.00000   2.00000   2.00000   2.00000   2.00000
                  --------  --------  --------  --------  --------  --------
 0 C  s              12.3      13.7       3.6       1.1       0.0       0.1
 0 C  pz              0.0       0.9       1.4       0.1       0.9       1.0
 0 C  px              0.0       0.4       0.1       0.2       1.6       0.4
 0 C  py              0.1       0.9       4.4       2.2       0.1       0.1
 1 C  s               3.3       3.3       9.5       2.6       0.3       0.0
 1 C  pz              1.0       4.1       0.1       0.6       2.0       1.1
 1 C  px              3.1       3.8       1.4       0.7       3.7       0.0
 1 C  py              0.5       1.8       4.5       2.2       0.1       1.5
 2 C  s               4.9       9.8       4.4       4.4       0.0       0.0
 2 C  pz              0.1       1.8       0.6       4.8       6.2       0.3
 2 C  px              3.2       2.6       3.2       0.2       0.2       1.5
 2 C  py              0.0       0.5       1.5       0.3       0.0       5.7
 2 C  dz2             0.0       0.0       0.0       0.0       0.1       0.0
 3 C  s               8.3       6.3       0.0       2.8       1.0       0.1
 3 C  pz              0.4       2.0       1.8       4.8       7.1       0.4
 3 C  px              1.0       2.4       3.5       0.2      13.2       0.1
 3 C  py              0.0       0.3       0.1       0.0       0.5      14.2
 3 C  dxz             0.0       0.1       0.1       0.0       0.1       0.0
 3 C  dx2y2           0.0       0.0       0.0       0.1       0.1       0.0
 4 C  s               0.5       0.9       2.1       1.6       2.0       0.2
 4 C  pz              0.5       0.6       1.4       0.6       0.1       5.3
 4 C  px              4.4       4.4       0.0       2.0      13.3       0.3
 4 C  py              0.2       0.0       0.3       1.2       1.0      10.5
 4 C  dxz             0.2       0.1       0.0       0.1       0.0       0.0
 5 O  s               0.0       0.2       0.4       1.4       0.4       0.3
 5 O  pz              0.0       0.0       0.4       0.4       0.0       3.0
 5 O  px              0.2       0.2       0.1       0.4       7.4       0.3
 5 O  py              0.0       0.0       0.1       0.6       0.5       2.1
 6 O  s               0.7       1.0       2.6       2.5       0.7       0.0
 6 O  pz              0.3       0.1       1.0       5.3       4.3       6.4
 6 O  px             10.4       0.1       5.9      11.2       0.1       0.0
 6 O  py              0.2       0.0       0.7       1.7       6.1      12.8
 7 C  s              15.8       4.3       4.1       2.9       0.0       0.0
 7 C  pz              0.0       0.0       1.4       4.3       4.4       5.7
 7 C  px              0.4       1.2       6.6       7.1       0.7       0.0
 7 C  py              0.0       0.0       0.8       1.7       5.1       8.5
 7 C  dxz             0.0       0.0       0.1       0.2       0.0       0.0
 7 C  dx2y2           0.0       0.0       0.2       0.2       0.0       0.0
 7 C  dxy             0.0       0.0       0.1       0.1       0.0       0.0
 8 H  s               3.1       4.7       1.3       0.5       0.4       0.4
 9 H  s               2.5       4.9       2.4       0.4       0.8       0.2
10 H  s               2.7       4.0       2.7       1.3       0.0       0.1
11 H  s               0.7       0.9       5.7       3.0       0.0       0.7
12 H  s               0.9       1.3       5.2       1.0       2.3       0.3
13 H  s               1.0       2.4       3.2       3.5       0.5       2.0
14 H  s               1.2       3.6       1.6       3.1       0.6       0.8
15 H  s               1.5       1.9       0.3       2.4       2.3       4.0
16 H  s               1.7       3.0       0.0       3.0       3.9       2.5
17 H  s               3.3       1.3       3.9       5.2       3.2       0.2
18 H  s               4.2       1.6       2.6       2.3       0.7       4.0
19 H  s               4.5       1.8       2.1       0.9       1.2       2.5

                     18        19        20        21        22        23   
                  -0.41593  -0.41017  -0.39594  -0.37525  -0.36425  -0.35145
                   2.00000   2.00000   2.00000   2.00000   2.00000   2.00000
                  --------  --------  --------  --------  --------  --------
 0 C  s               0.2       0.1       0.0       0.0       0.0       0.0
 0 C  pz              2.4       2.3       8.6       6.0       3.4       0.8
 0 C  px              1.0       2.2       9.8       4.0       2.1      14.8
 0 C  py              0.1       1.4       1.7       6.1       3.5       7.1
 0 C  dxz             0.0       0.0       0.1       0.0       0.0       0.1
 1 C  s               0.3       0.0       0.1       0.0       0.3       0.2
 1 C  pz              0.2       1.6      14.2       1.5       4.2       0.3
 1 C  px              0.5       0.6       6.9       1.9       1.2       3.7
 1 C  py              2.2       4.8       0.5       4.5       3.6       0.1
 2 C  s               0.2       0.0       0.1       0.1       0.1       0.3
 2 C  pz              0.6       0.0       3.0       2.2       3.0       0.8
 2 C  px              0.6       4.6       0.1       2.6       1.4       2.3
 2 C  py              8.7       3.5       0.3       0.8       7.7       3.7
 2 C  dxz             0.0       0.0       0.1       0.0       0.0       0.1
 2 C  dx2y2           0.0       0.0       0.0       0.1       0.0       0.0
 3 C  s               0.1       0.0       1.3       0.0       0.1       0.2
 3 C  pz              0.0       5.5       2.1       0.2       7.2       0.1
 3 C  px              0.1       0.1       0.7       0.0       0.0       9.6
 3 C  py             10.5       0.1       2.4       7.2       0.5       0.1
 3 C  dx2y2           0.0       0.0       0.1       0.0       0.1       0.0
 4 C  s               0.6       1.4       0.6       0.9       0.1       0.3
 4 C  pz              1.0       1.2       0.1       3.8       2.4       1.0
 4 C  px              0.2       0.4       0.0       0.6       1.2       6.9
 4 C  py              0.1       0.8       0.1       1.4       8.0       0.1
 4 C  dz2             0.1       0.1       0.0       0.0       0.0       0.0
 4 C  dyz             0.1       0.2       0.0       0.0       0.0       0.0
 4 C  dx2y2           0.1       0.2       0.0       0.0       0.1       0.0
 5 O  s               3.8       8.3       0.6       3.9       1.1       0.3
 5 O  pz              3.2       9.9       1.4       6.8      12.4       0.6
 5 O  px              0.3       0.5       1.1       0.0       0.0       1.4
 5 O  py              3.1       5.1       0.6      11.5       0.4       2.7
 5 O  dz2             0.0       0.0       0.0       0.0       0.1       0.0
 5 O  dyz             0.1       0.1       0.0       0.1       0.0       0.0
 6 O  s               0.4       1.0       0.2       0.3       0.1       0.0
 6 O  pz             11.4       2.2       0.6       0.1       0.1       0.6
 6 O  px              2.5       6.3       1.7       0.2       0.0       1.3
 6 O  py              1.1       7.5       0.6       0.0       0.3       0.0
 7 C  s               0.1       0.1       0.0       0.0       0.0       0.0
 7 C  pz             11.5       0.0       2.5       7.9       0.1       6.8
 7 C  px              2.6       5.9       3.5       0.2       0.6       3.3
 7 C  py              6.0       6.3       2.7       0.0      12.4       1.5
 7 C  dz2             0.2       0.0       0.0       0.0       0.0       0.0
 7 C  dxz             0.0       0.0       0.0       0.1       0.0       0.1
 7 C  dyz             0.0       0.1       0.1       0.0       0.1       0.1
 8 H  s               1.0       1.8       1.7       4.3       1.2       8.6
 9 H  s               0.5       0.1       5.6       0.3       1.0       5.0
10 H  s               0.0       0.9       3.0       5.0       0.3       2.0
11 H  s               0.5       2.3       3.2       2.0       0.0       0.1
12 H  s               0.4       0.0       7.4       0.0       0.4       0.1
13 H  s               0.9       1.3       0.0       1.5       0.8       1.2
14 H  s               3.8       1.3       0.8       0.6       4.5       0.7
15 H  s               3.1       0.4       4.1       3.0       0.2       0.0
16 H  s               2.4       1.2       0.1       1.1       2.9       0.9
17 H  s               0.1       0.7       2.1       1.7       3.6       3.9
18 H  s               2.8       4.4       1.2       0.8       6.1       0.2
19 H  s               8.1       0.5       2.0       3.8       0.3       4.9

                     24        25        26        27        28        29   
                  -0.33248  -0.32140  -0.30132  -0.28870  -0.28635  -0.28412
                   2.00000   2.00000   2.00000   2.00000   2.00000   2.00000
                  --------  --------  --------  --------  --------  --------
 0 C  s               0.1       0.1       0.1       0.1       0.2       0.2
 0 C  pz             12.8       0.5       0.6       1.6       3.2       8.2
 0 C  px              1.2       1.6       7.8       0.2       6.3       1.2
 0 C  py              0.1      16.8       0.1       5.9       1.4       2.0
 0 C  dz2             0.1       0.0       0.0       0.1       0.0       0.2
 0 C  dxz             0.1       0.0       0.1       0.0       0.0       0.2
 0 C  dyz             0.0       0.2       0.0       0.2       0.0       0.0
 0 C  dx2y2           0.1       0.1       0.2       0.3       0.1       0.0
 1 C  s               0.0       0.0       0.0       0.2       0.0       0.1
 1 C  pz              3.6       1.2       0.5       6.5       1.1      10.4
 1 C  px              0.3       0.6       6.2       1.4      10.1       5.4
 1 C  py              0.6      10.8       0.1      12.2       1.4       1.7
 1 C  dz2             0.2       0.0       0.0       0.0       0.0       0.1
 1 C  dxz             0.0       0.1       0.0       0.0       0.0       0.7
 1 C  dyz             0.0       0.1       0.1       0.4       0.2       0.0
 1 C  dx2y2           0.0       0.0       0.1       0.6       0.0       0.0
 1 C  dxy             0.1       0.0       0.0       0.0       0.1       0.2
 2 C  s               0.2       0.0       0.2       0.2       0.1       0.0
 2 C  pz              8.7       4.8       1.7       6.2       1.9       5.0
 2 C  px              1.9       0.8       5.8       1.9      10.8       3.8
 2 C  py              1.1       2.1       0.4      10.1       4.8       4.1
 2 C  dz2             0.0       0.0       0.0       0.0       0.1       0.0
 2 C  dxz             0.0       0.0       0.0       0.0       0.0       0.6
 2 C  dyz             0.0       0.1       0.1       0.3       0.5       0.1
 2 C  dx2y2           0.1       0.0       0.0       0.5       0.0       0.0
 2 C  dxy             0.0       0.2       0.0       0.0       0.1       0.0
 3 C  s               0.0       0.1       0.3       0.1       0.0       0.3
 3 C  pz              8.2       2.2       0.6       2.0       0.2       6.5
 3 C  px              0.8       2.8       0.3       0.1       3.9       4.0
 3 C  py              1.3      11.2       0.0       1.5       1.7       2.9
 3 C  dz2             0.0       0.0       0.0       0.0       0.2       0.0
 3 C  dxz             0.2       0.0       0.0       0.0       0.0       0.1
 3 C  dyz             0.0       0.4       0.0       0.2       0.2       0.1
 3 C  dx2y2           0.1       0.1       0.0       0.2       0.1       0.0
 3 C  dxy             0.1       0.0       0.0       0.0       0.0       0.0
 4 C  s               0.0       0.0       0.1       0.2       0.7       0.2
 4 C  pz              3.0       0.8       2.7       0.2       1.3       0.0
 4 C  px              0.1       0.0       0.5       0.5       0.8       0.4
 4 C  py              5.3       2.1       0.7       0.3       0.6       0.5
 4 C  dz2             0.1       0.0       0.3       0.0       0.2       0.0
 4 C  dxz             0.2       0.0       0.0       0.0       0.0       0.2
 4 C  dyz             0.0       0.1       0.2       0.0       0.0       0.0
 4 C  dx2y2           0.0       0.1       0.3       0.0       0.1       0.0
 4 C  dxy             0.0       0.2       0.0       0.0       0.0       0.0
 5 O  s               0.0       0.3       0.8       0.2       0.4       0.0
 5 O  pz              2.9       5.6       2.7       1.1       1.1       1.8
 5 O  px              0.1       0.0       2.1       0.0       0.1       0.0
 5 O  py              9.9       0.7       3.6       0.2       2.6       1.0
 6 O  s               0.1       0.1       2.9       0.0       1.9       0.4
 6 O  pz              2.4       1.3      13.0       0.5       8.1       1.8
 6 O  px              0.2       0.3       1.5       0.0       1.8       0.6
 6 O  py              1.6       0.4      12.4       0.0       3.6       0.0
 7 C  s               0.0       0.0       0.1       0.0       0.1       0.0
 7 C  pz              2.4       0.8       5.0       0.1       1.6       0.3
 7 C  px              0.1       0.2       0.3       0.0       1.1       0.4
 7 C  py              2.4       0.4       5.6       0.0       0.8       0.0
 7 C  dxz             0.1       0.1       0.1       0.0       0.0       0.0
 7 C  dyz             0.0       0.0       0.3       0.0       0.1       0.0
 7 C  dx2y2           0.0       0.0       0.2       0.0       0.1       0.0
 8 H  s               0.0       0.0       5.3       1.7       4.3       0.8
 9 H  s               8.4       0.3       0.6       0.5       0.0       7.4
10 H  s               2.9       8.5       0.1       7.1       0.0       0.3
11 H  s               0.1       2.8       0.0      16.2       0.6       0.6
12 H  s               2.4       0.6       0.6       0.8       0.5      15.0
13 H  s               2.1       3.6       0.1      13.2       2.3       0.2
14 H  s               0.4       0.0       2.1       0.2       9.4       5.5
15 H  s               0.2       9.3       0.2       3.7       0.9       0.4
16 H  s               5.2       2.9       0.0       0.1       3.7       3.0
17 H  s               0.0       0.0       8.0       0.0       1.9       0.1
18 H  s               3.0       0.5       0.6       0.0       0.0       0.3
19 H  s               1.9       1.0       1.4       0.0       0.3       0.1

                     30        31        32        33        34        35   
                  -0.25486  -0.21968  -0.01661   0.03801   0.05804   0.06750
                   2.00000   2.00000   0.00000   0.00000   0.00000   0.00000
                  --------  --------  --------  --------  --------  --------
 0 C  s               0.0       0.0       0.4       7.7       1.9       3.0
 0 C  pz              0.0       0.0       0.1       0.9       0.0       1.9
 0 C  px              0.0       0.0       0.1       0.3       0.3       1.8
 0 C  py              0.0       0.0       0.0       0.9       0.3       0.4
 0 C  dyz             0.0       0.0       0.0       0.1       0.0       0.1
 0 C  dx2y2           0.0       0.0       0.0       0.2       0.0       0.1
 1 C  s               0.0       0.0       0.0       5.9       1.3       4.2
 1 C  pz              0.0       0.0       0.0       0.0       0.4       0.9
 1 C  px              0.1       0.1       0.1       0.6       0.1       1.2
 1 C  py              0.0       0.0       0.0       2.3       0.1       0.4
 1 C  dz2             0.0       0.0       0.0       0.0       0.0       0.1
 1 C  dxz             0.0       0.0       0.0       0.2       0.0       0.1
 1 C  dyz             0.0       0.0       0.0       0.0       0.0       0.1
 1 C  dx2y2           0.0       0.0       0.0       0.0       0.0       0.1
 2 C  s               0.0       0.1       0.7       3.3       0.1       3.7
 2 C  pz              0.1       0.0       0.2       1.8       0.1       0.8
 2 C  px              0.1       0.1       0.6       0.1       0.1       0.8
 2 C  py              0.0       0.2       0.1       0.0       0.1       2.0
 2 C  dz2             0.0       0.0       0.0       0.0       0.0       0.3
 2 C  dyz             0.0       0.0       0.0       0.0       0.0       0.3
 2 C  dxy             0.0       0.0       0.0       0.1       0.1       0.0
 3 C  s               0.0       0.6       0.1       5.1       0.4       2.9
 3 C  pz              0.1       2.0       0.2       2.5       0.1       1.9
 3 C  px              0.0       4.4       0.1       0.0       0.1       1.1
 3 C  py              0.0       0.6       0.2       0.0       0.2       2.9
 3 C  dz2             0.0       0.0       0.1       0.3       0.0       0.1
 3 C  dxz             0.0       0.0       0.8       0.0       0.0       0.1
 3 C  dyz             0.0       0.0       0.3       0.0       0.0       0.2
 3 C  dxy             0.0       0.0       0.7       0.0       0.0       0.0
 4 C  s               0.0       0.4       0.1       0.8       1.0       0.1
 4 C  pz              0.2       0.4      16.1       0.5       0.2       0.2
 4 C  px              0.0       0.8       0.0       0.5       0.1       0.1
 4 C  py              0.4       0.2      30.7       1.0       0.2       0.5
 4 C  dz2             1.6       0.1       0.4       0.0       0.0       0.0
 4 C  dxz             0.1       2.7       0.2       0.0       0.0       0.0
 4 C  dyz             0.2       0.2       0.0       0.4       0.2       0.0
 4 C  dx2y2           0.5       0.1       0.2       0.1       0.0       0.0
 4 C  dxy             0.1       1.6       0.3       0.0       0.0       0.0
 5 O  s               0.0       0.0       0.0       0.3       0.5       0.0
 5 O  pz             12.9       0.9       8.6       0.5       0.1       0.1
 5 O  px              0.2      71.2       0.0       0.0       0.4       0.0
 5 O  py             22.6       1.1      16.7       0.2       0.0       0.2
 5 O  dz2             0.0       0.0       0.4       0.0       0.0       0.0
 5 O  dx2y2           0.0       0.0       0.1       0.0       0.0       0.0
 6 O  s               0.0       0.4       0.0       0.6       0.5       0.2
 6 O  pz             15.8       5.3       3.9       0.0       0.1       0.0
 6 O  px              0.0       0.8       0.0       0.0       0.4       0.1
 6 O  py             31.6       1.6       6.4       0.2       0.0       0.2
 6 O  dxz             0.0       0.0       0.1       0.0       0.0       0.0
 6 O  dx2y2           0.0       0.0       0.0       0.0       0.1       0.0
 6 O  dxy             0.0       0.0       0.2       0.0       0.0       0.0
 7 C  s               0.0       0.2       0.0       0.6      19.4       0.6
 7 C  pz              1.7       0.2       0.0       0.1       0.1       0.0
 7 C  px              0.0       0.7       0.0       1.2       6.0       0.2
 7 C  py              2.4       0.5       0.1       0.0       0.2       0.1
 7 C  dxz             0.4       0.0       0.2       0.0       0.0       0.0
 7 C  dxy             0.5       0.0       0.2       0.0       0.0       0.0
 8 H  s               0.0       0.0       0.2       6.8       2.2       0.2
 9 H  s               0.0       0.0       0.7       6.1       0.4      14.3
10 H  s               0.0       0.0       0.1       5.1       2.2       1.0
11 H  s               0.0       0.1       0.0       8.9       0.4       1.8
12 H  s               0.0       0.1       0.1       6.5       2.9      12.9
13 H  s               0.0       0.2       0.0       3.7       0.4       0.2
14 H  s               0.1       0.1       0.4       5.2       0.1      15.4
15 H  s               0.0       0.8       1.0       8.4       1.7       0.1
16 H  s               0.0       0.2       5.6       7.2       0.2      18.4
17 H  s               0.4       0.5       0.0       0.5       6.9       0.2
18 H  s               4.8       0.0       1.3       0.9      24.4       0.9
19 H  s               2.6       0.0       0.4       0.9      22.6       0.1

                     36        37        38        39        40        41   
                   0.07296   0.08489   0.09446   0.10699   0.11418   0.11568
                   0.00000   0.00000   0.00000   0.00000   0.00000   0.00000
                  --------  --------  --------  --------  --------  --------
 0 C  s               3.2       2.1       3.3       0.2       0.1       1.7
 0 C  pz              1.3       0.4       1.2       0.0       0.6       1.8
 0 C  px              0.4       0.4       2.7       0.0       4.5       2.8
 0 C  py              2.3       0.2       2.1       0.0       6.0       0.5
 0 C  dz2             0.1       0.1       0.0       0.0       0.5       0.1
 0 C  dxz             0.0       0.0       0.0       0.0       0.2       0.2
 0 C  dyz             0.1       0.0       0.0       0.0       0.3       0.0
 0 C  dx2y2           0.1       0.0       0.0       0.0       0.4       0.1
 1 C  s               0.0       0.4       0.8       0.0       3.4       2.9
 1 C  pz              4.2       0.5       0.3       0.0       1.0       0.0
 1 C  px              0.1       0.0       0.2       0.1       0.3       0.1
 1 C  py              1.9       1.2       1.2       0.0       1.2       0.6
 1 C  dz2             0.1       0.0       0.0       0.0       0.1       0.0
 1 C  dxz             0.0       0.1       0.0       0.0       0.4       0.0
 1 C  dyz             0.1       0.2       0.2       0.0       0.1       0.0
 1 C  dx2y2           0.4       0.0       0.0       0.0       0.1       0.0
 1 C  dxy             0.0       0.0       0.4       0.0       0.4       0.2
 2 C  s               0.1       0.2       7.4       0.2       0.4       0.0
 2 C  pz              0.3       2.8       1.7       0.1       1.1       0.4
 2 C  px              0.1       0.2       0.3       0.0       0.9       0.0
 2 C  py              3.4       0.1       1.5       0.0       2.7       0.3
 2 C  dz2             0.2       0.0       0.2       0.0       0.0       0.2
 2 C  dxz             0.0       0.2       0.0       0.0       0.9       0.1
 2 C  dyz             0.3       0.0       0.1       0.0       0.0       0.2
 2 C  dx2y2           0.1       0.2       0.0       0.0       0.0       0.0
 3 C  s               2.5       2.3       0.8       0.0       1.6       0.2
 3 C  pz              2.1       0.3       2.5       0.1       0.0       0.5
 3 C  px              0.1       1.1       0.3       0.1       1.2       1.6
 3 C  py              4.3       0.1       0.1       0.0       1.9       2.7
 3 C  dz2             0.0       0.0       0.1       0.0       0.0       0.0
 3 C  dxz             0.0       0.1       0.1       0.0       0.1       0.3
 3 C  dyz             0.2       0.0       0.0       0.0       0.0       0.1
 3 C  dx2y2           0.2       0.2       0.5       0.0       0.0       0.3
 3 C  dxy             0.1       0.0       0.0       0.0       0.1       0.1
 4 C  s               0.2       1.7       0.3       0.3       0.5       2.2
 4 C  pz              0.3       0.5       0.2       0.3       0.1       0.4
 4 C  px              0.0       1.2       0.1       0.0       0.3       0.0
 4 C  py              0.0       0.3       0.7       0.2       0.3       0.7
 4 C  dz2             0.0       0.2       0.2       0.0       0.0       0.0
 4 C  dyz             0.0       0.0       0.3       0.0       0.1       0.1
 4 C  dx2y2           0.1       1.0       0.1       0.1       0.0       0.2
 5 O  s               0.0       0.1       0.3       0.0       0.2       0.5
 5 O  pz              0.0       0.0       0.1       0.2       0.1       0.0
 5 O  px              0.2       0.4       0.8       0.0       0.0       0.6
 5 O  py              0.1       0.0       0.1       0.2       0.0       0.0
 6 O  s               0.1      10.1       1.5       0.1       0.2       0.3
 6 O  pz              0.0       1.3       0.2       0.4       0.2       0.1
 6 O  px              0.1       5.7       2.0       0.0       1.6       0.0
 6 O  py              0.2       0.9       0.1       0.6       0.0       0.0
 6 O  dz2             0.0       0.2       0.0       0.2       0.0       0.0
 6 O  dxz             0.0       0.0       0.0       0.2       0.0       0.1
 6 O  dx2y2           0.0       0.5       0.2       0.0       0.0       0.1
 6 O  dxy             0.0       0.0       0.0       0.0       0.1       0.2
 7 C  s               1.8       7.3       0.2       0.0       0.5       0.4
 7 C  pz              0.0       1.6       0.4      20.9       0.1       2.5
 7 C  px              0.8      27.8       9.7       0.2       4.3       0.0
 7 C  py              0.0       0.7       0.1       5.8       1.8      10.4
 7 C  dz2             0.0       0.9       0.3       0.6       0.1       0.0
 7 C  dxz             0.0       0.5       0.2       0.3       0.1       0.0
 7 C  dyz             0.0       0.0       0.1       0.0       0.3       0.9
 7 C  dx2y2           0.0       3.0       0.7       0.4       0.3       0.2
 7 C  dxy             0.0       0.4       0.1       0.1       0.1       0.0
 8 H  s               1.2       2.5      16.3       0.3      17.2       6.8
 9 H  s               0.1       2.0       1.2       0.2       0.8       2.3
10 H  s              14.6       0.7       1.4       0.0       8.3       6.4
11 H  s              12.0       4.6       2.8       0.0      10.6       4.9
12 H  s               3.9       0.3       1.8       0.0       0.2       2.4
13 H  s               9.1       0.9      16.9       0.4       1.0       0.3
14 H  s               1.0       3.7       4.7       0.2       7.0       0.7
15 H  s              20.4       0.5       2.7       0.1       0.7       5.7
16 H  s               0.1       1.1       2.2       0.1       5.4       0.3
17 H  s               1.4       1.7       0.4       2.3       4.7      25.8
18 H  s               1.3       0.6       0.2      26.6       2.1       5.5
19 H  s               2.3       1.2       2.4      37.6       0.2       0.4

                     42        43        44        45        46        47   
                   0.12607   0.13341   0.13502   0.16002   0.18721   0.19978
                   0.00000   0.00000   0.00000   0.00000   0.00000   0.00000
                  --------  --------  --------  --------  --------  --------
 0 C  s               4.3       0.3       1.7       0.3       0.7       0.1
 0 C  pz              2.2       2.7       0.2       5.7       8.9       0.2
 0 C  px              0.1       2.2      10.5       1.1       2.2       1.8
 0 C  py              0.8       0.7       0.5       1.9       4.3       1.4
 0 C  dz2             0.1       0.2       0.0       0.1       0.0       0.3
 0 C  dxz             0.2       0.0       0.2       0.1       1.3       0.1
 0 C  dyz             0.1       0.3       0.1       0.2       0.7       0.5
 0 C  dx2y2           0.4       0.0       0.2       0.2       0.1       0.0
 0 C  dxy             0.0       0.0       1.1       0.1       1.7       0.1
 1 C  s               3.5       0.1       1.3       2.3       5.4       0.2
 1 C  pz              2.2       1.2       8.3       0.0       1.1       0.1
 1 C  px              3.6       1.9       0.9       3.1       2.4       0.7
 1 C  py              0.2       0.3       0.7       0.4      16.4       3.1
 1 C  dz2             0.0       0.3       0.1       0.0       1.1       0.6
 1 C  dxz             0.0       0.0       0.3       0.6       1.6       0.4
 1 C  dyz             0.2       0.3       0.1       0.0       1.3       0.1
 1 C  dx2y2           0.0       0.1       0.5       0.1       0.1       0.2
 1 C  dxy             0.2       0.0       0.1       1.0       0.0       0.0
 2 C  s               0.3       2.8       0.6       5.1       1.4       2.4
 2 C  pz              0.2       2.3       0.7       1.3       3.9      14.7
 2 C  px              0.5       1.2       0.3       1.7       5.2       8.0
 2 C  py              1.1       1.6       5.3       5.0       0.0       0.8
 2 C  dz2             0.0       0.0       0.3       0.1       0.0       1.2
 2 C  dxz             0.0       0.1       0.5       0.1       0.6       2.6
 2 C  dyz             0.4       0.0       0.1       0.3       0.3       0.0
 2 C  dx2y2           0.0       0.0       0.1       0.1       2.4       0.6
[...]
 2 C  px              1.0       3.7       0.0       0.0       0.2       0.0
 2 C  dz2             0.0       2.7       0.1       0.0       0.8       0.1
 2 C  dxz             7.4      15.0       0.0       0.0       0.9       0.0
 2 C  dyz             0.3       0.5       0.0       0.0       0.0       0.0
 2 C  dx2y2           0.1       4.6       0.0       0.1       0.1       0.0
 2 C  dxy             0.0       0.9       0.0       0.0       0.1       0.0
 3 C  s               0.0       0.3       0.0       0.0       0.1       0.3
 3 C  pz              0.1       0.3       0.0       0.0       0.0       0.0
 3 C  px              1.6       0.9       0.0       0.0       0.2       0.2
 3 C  py              0.0       0.1       0.0       0.0       0.1       0.0
 3 C  dz2             2.1       0.0       0.1       0.2       0.6       0.5
 3 C  dxz             6.8       5.3       0.2       0.0       3.9       0.0
 3 C  dyz             0.4       0.0       0.1       0.4       0.6       0.0
 3 C  dx2y2           0.6       0.1       0.0       0.2       0.5       1.2
 3 C  dxy             0.4       0.0       0.1       0.8       0.2       0.0
 4 C  s               0.4       0.4       0.0       0.0       0.3       1.1
 4 C  pz              0.2       0.0       0.0       0.5       0.1       1.3
 4 C  px              1.0       0.1       0.0       0.0       0.3       1.4
 4 C  py              0.1       0.0       0.1       0.6       0.3       0.6
 4 C  dz2             0.1       0.0       0.1       0.7       2.2       0.1
 4 C  dxz             0.1       0.0       0.3       2.5       3.8       2.5
 4 C  dyz             1.5       0.3       0.1       0.0       0.8       1.5
 4 C  dx2y2           2.1       0.0       0.0       0.5       6.2       0.6
 4 C  dxy             0.1       0.1       0.6       9.1       0.0       1.3
 5 O  s               0.1       0.0       0.0       0.1       1.1       0.5
 5 O  pz              0.0       0.0       0.0       0.1       0.3       0.2
 5 O  px              0.0       0.0       0.0       0.0       0.2       0.6
 5 O  py              0.0       0.0       0.0       0.3       0.1       0.1
 5 O  dz2             5.9       1.3       2.4      12.9       0.1       0.4
 5 O  dxz             0.2       2.5       1.7       5.4       2.4      17.0
 5 O  dyz            12.0       4.9       0.2       2.8       1.0       0.0
 5 O  dx2y2          31.7      21.7       1.8       1.5       4.8       0.1
 5 O  dxy             1.5       0.3       2.8       2.6       5.0       9.9
 6 O  s               0.1       0.0       0.0       0.1       0.6       7.0
 6 O  pz              0.3       0.0       0.3       0.4       0.4       0.6
 6 O  px              0.1       0.0       0.0       0.2       1.5       0.1
 6 O  py              0.2       0.0       0.5       0.2       0.6       0.3
 6 O  dz2             2.3       0.2      21.6      25.1       0.1       2.6
 6 O  dxz             0.5       0.0      17.0       3.4      13.9       4.0
 6 O  dyz             8.8       0.5       2.2       0.1      37.7      12.3
 6 O  dx2y2           0.0       0.3       6.9       8.7       0.0      25.4
 6 O  dxy             0.5       0.4      28.7      18.8       0.7       1.6
 7 C  s               0.1       0.0       0.0       0.1       0.7       0.5
 7 C  pz              0.0       0.0       0.1       0.0       0.0       0.1
 7 C  px              0.1       0.0       0.0       0.1       0.8       0.7
 7 C  py              0.0       0.0       0.3       0.0       0.0       0.0
 7 C  dz2             0.0       0.0       0.3       0.0       1.5       0.2
 7 C  dxz             0.5       0.0       4.1       0.0       0.5       1.0
 7 C  dyz             0.1       0.0       0.0       0.1       0.0       0.4
 7 C  dx2y2           0.2       0.0       0.1       0.9       2.9       0.9
 7 C  dxy             0.1       0.1       6.7       0.2       0.1       0.6
 8 H  s               0.1       0.1       0.0       0.0       0.0       0.0
14 H  s               0.0       0.1       0.0       0.0       0.0       0.0
18 H  s               0.0       0.0       0.1       0.0       0.0       0.1

                    132       133       134       135   
                   3.11238   3.31330   3.49228   3.55749
                   0.00000   0.00000   0.00000   0.00000
                  --------  --------  --------  --------
 2 C  dz2             0.0       0.1       0.2       0.0
 2 C  dxz             0.1       0.1       0.0       0.1
 3 C  s               0.0       0.2       0.1       0.0
 3 C  px              0.0       0.1       0.3       0.1
 3 C  dz2             0.0       0.0       0.8       0.0
 3 C  dxz             0.5       0.6       0.0       0.6
 3 C  dx2y2           0.1       0.0       1.2       0.0
 3 C  dxy             0.3       0.2       0.0       0.1
 4 C  s               0.0       3.8       0.1       5.9
 4 C  pz              0.1       0.1       2.0       2.6
 4 C  px              0.0       1.5       0.6       0.3
 4 C  py              0.3       0.1       1.1       1.4
 4 C  dz2            14.3       2.0       0.0       3.4
 4 C  dxz             0.0       0.1      13.7       0.6
 4 C  dyz             1.7       0.4       0.2       6.6
 4 C  dx2y2           4.7       3.9       0.0       2.3
 4 C  dxy             0.0       0.1       7.1       0.3
 5 O  s               0.0       1.7       0.9       4.1
 5 O  pz              0.4       0.5       0.5       1.9
 5 O  px              0.0       0.1       0.4       0.5
 5 O  py              0.6       0.3       0.3       1.0
 5 O  dz2            38.8       3.9       4.6       7.4
 5 O  dxz             1.7       1.8       7.2      10.5
 5 O  dyz             4.8      11.8       8.3      26.8
 5 O  dx2y2          13.0       1.3       4.0       2.3
 5 O  dxy             1.6       1.0       4.1       5.7
 6 O  s               0.0       0.1       0.9       0.3
 6 O  pz              0.0       0.2       0.4       0.1
 6 O  px              0.0       2.2       2.9       0.1
 6 O  py              0.0       0.1       0.2       0.0
 6 O  dz2             1.1      10.8       0.1       3.6
 6 O  dxz             4.3      12.4      21.2       0.5
 6 O  dyz             0.3       5.3       1.4       0.4
 6 O  dx2y2           0.2      18.0       1.5       8.5
 6 O  dxy            10.0       7.0      11.6       0.3
 7 C  s               0.0       1.1       0.2       0.0
 7 C  pz              0.0       0.1       0.0       0.0
 7 C  px              0.0       1.5       0.3       0.1
 7 C  dz2             0.1       0.8       0.3       0.0
 7 C  dxz             0.2       1.2       0.1       0.4
 7 C  dyz             0.0       0.0       0.1       0.1
 7 C  dx2y2           0.1       2.6       0.6       0.1
 7 C  dxy             0.3       0.7       0.0       0.3


                      *****************************
                      * MAYER POPULATION ANALYSIS *
                      *****************************

  NA   - Mulliken gross atomic population
  ZA   - Total nuclear charge
  QA   - Mulliken gross atomic charge
  VA   - Mayer's total valence
  BVA  - Mayer's bonded valence
  FA   - Mayer's free valence

  ATOM       NA         ZA         QA         VA         BVA        FA
  0 C      6.2981     6.0000    -0.2981     4.0225     4.0225     0.0000
  1 C      6.1494     6.0000    -0.1494     4.1376     4.1376     0.0000
  2 C      6.1856     6.0000    -0.1856     4.1362     4.1362     0.0000
  3 C      6.1767     6.0000    -0.1767     3.9193     3.9193     0.0000
  4 C      5.8822     6.0000     0.1178     4.3860     4.3860    -0.0000
  5 O      8.2052     8.0000    -0.2052     2.3011     2.3011    -0.0000
  6 O      8.2409     8.0000    -0.2409     2.2686     2.2686     0.0000
  7 C      6.1294     6.0000    -0.1294     3.8431     3.8431     0.0000
  8 H      0.8953     1.0000     0.1047     0.9497     0.9497     0.0000
  9 H      0.8933     1.0000     0.1067     0.9564     0.9564    -0.0000
 10 H      0.8977     1.0000     0.1023     0.9572     0.9572    -0.0000
 11 H      0.9193     1.0000     0.0807     0.9476     0.9476    -0.0000
 12 H      0.9126     1.0000     0.0874     0.9435     0.9435     0.0000
 13 H      0.8981     1.0000     0.1019     0.9681     0.9681     0.0000
 14 H      0.9099     1.0000     0.0901     0.9458     0.9458     0.0000
 15 H      0.9017     1.0000     0.0983     0.9731     0.9731    -0.0000
 16 H      0.8800     1.0000     0.1200     0.9607     0.9607     0.0000
 17 H      0.8677     1.0000     0.1323     0.9952     0.9952     0.0000
 18 H      0.8787     1.0000     0.1213     0.9541     0.9541     0.0000
 19 H      0.8782     1.0000     0.1218     0.9555     0.9555    -0.0000

  Mayer bond orders larger than 0.100000
B(  0-C ,  1-C ) :   1.1523 B(  0-C ,  8-H ) :   0.9514 B(  0-C ,  9-H ) :   0.9510 
B(  0-C , 10-H ) :   0.9549 B(  1-C ,  2-C ) :   1.1249 B(  1-C , 11-H ) :   0.9233 
B(  1-C , 12-H ) :   0.9270 B(  2-C ,  3-C ) :   1.1243 B(  2-C , 13-H ) :   0.9147 
B(  2-C , 14-H ) :   0.9290 B(  3-C ,  4-C ) :   1.0146 B(  3-C , 15-H ) :   0.9088 
B(  3-C , 16-H ) :   0.8811 B(  4-C ,  5-O ) :   2.0625 B(  4-C ,  6-O ) :   1.2206 
B(  6-O ,  7-C ) :   0.9366 B(  7-C , 17-H ) :   0.9308 B(  7-C , 18-H ) :   0.9606 
B(  7-C , 19-H ) :   0.9612 

-------
TIMINGS
-------

Total SCF time: 0 days 0 hours 0 min 7 sec 

Total time                  ....       7.125 sec
Sum of individual times     ....       6.704 sec  ( 94.1%)

SCF preparation             ....       0.165 sec  (  2.3%)
Fock matrix formation       ....       5.794 sec  ( 81.3%)
  Startup                   ....       0.059 sec  (  1.0% of F)
  Split-RI-J                ....       1.994 sec  ( 34.4% of F)
  XC integration            ....       3.296 sec  ( 56.9% of F)
    Basis function eval.    ....       1.175 sec  ( 35.6% of XC)
    Density eval.           ....       0.408 sec  ( 12.4% of XC)
    XC-Functional eval.     ....       0.318 sec  (  9.7% of XC)
    XC-Potential eval.      ....       0.653 sec  ( 19.8% of XC)
Diagonalization             ....       0.000 sec  (  0.0%)
Density matrix formation    ....       0.159 sec  (  2.2%)
Total Energy calculation    ....       0.030 sec  (  0.4%)
Population analysis         ....       0.073 sec  (  1.0%)
Orbital Transformation      ....       0.048 sec  (  0.7%)
Orbital Orthonormalization  ....       0.000 sec  (  0.0%)
DIIS solution               ....       0.347 sec  (  4.9%)
  MO trafo                  ....       0.000 sec  (  0.0 % of DIIS)
  Orb grad                  ....       0.000 sec  (  0.0 % of DIIS)
  Energy W gradient         ....       0.000 sec  (  0.0 % of DIIS)
  DIIS error                ....       0.003 sec  (  0.9 % of DIIS)
  DIIS work                 ....       0.303 sec  ( 87.2 % of DIIS)
  Form Q                    ....       0.000 sec  (  0.0 % of DIIS)
  Form QpQm                 ....       0.000 sec  (  0.0 % of DIIS)
  Exp/Cayley                ....       0.000 sec  (  0.0 % of DIIS)
  Orb update                ....       0.000 sec  (  0.0 % of DIIS)
  Wake-sleep                ....       0.015 sec  (  4.2 % of DIIS)
SOSCF solution              ....       0.088 sec  (  1.2%)
  MO trafo                  ....       0.040 sec  ( 45.5 % of SOSCF)
  Orb grad                  ....       0.002 sec  (  2.5 % of SOSCF)
  Rot update                ....       0.022 sec  ( 25.2 % of SOSCF)
  Step                      ....       0.023 sec  ( 26.8 % of SOSCF)
Finished LeanSCF after   7.2 sec

Maximum memory used throughout the entire LEANSCF-calculation: 12.5 MB


-------------------------------------------------------------------------------
                          DFT DISPERSION CORRECTION                            
                                                                               
                                DFTD4 V3.4.0                                   
-------------------------------------------------------------------------------
The PBE functional is recognized
Active option DFTDOPT                   ...         5   

-------------------------   ----------------
Dispersion correction           -0.014745279
-------------------------   ----------------

------------------   -----------------
gCP correction             0.089991913
------------------   -----------------

-------------------------   --------------------
FINAL SINGLE POINT ENERGY      -385.451905554414
-------------------------   --------------------


------------------------------------------------------------------------------
                              ORCA PROPERTY CALCULATIONS
------------------------------------------------------------------------------

GBWName                                 ... sp.gbw
Number of atoms                         ...     20
Number of basis functions               ...    136
Max core memory                         ...   1024 MB

Electric properties:
Dipole moment                           ... YES
Quadrupole moment                       ...  NO
Static polarizability (Dipole/Dipole)   ...  NO
Static polarizability (Dipole/Quad.)    ...  NO
Static polarizability (Quad./Quad.)     ...  NO
Static polarizability (Velocity)        ...  NO

Atomic electric properties:
Dipole moment                           ...  NO
Quadrupole moment                       ...  NO
Static polarizability                   ...  NO

Choice of electric origin               ... Center of mass
Position of electric origin             ...    -0.000036    -0.000005     0.000006

General magnetic properties:
Magnetizability                         ...  NO

EPR properties:
g-Tensor (aka g-matrix)                 ...  NO
Zero-Field splitting spin-orbit         ...  NO
Zero-field splitting spin-spin          ...  NO
Hyperfine couplings                     ...  NO (   0 nuclei)
Quadrupole couplings                    ...  NO (   0 nuclei)
Contact density                         ...  NO (   0 nuclei)

NMR properties:
Chemical shifts                         ...  NO (   0 nuclei)
Spin-rotation constants                 ...  NO (   0 nuclei)
Spin-spin couplings                     ...  NO (   0 nuclei,    0 pairs)

Choice of magnetic origin               ... GIAO
Position of magnetic origin             ...     0.000000     0.000000     0.000000

Properties with geometric perturbations:
SCF Hessian                             ...  NO
IR spectrum                             ...  NO
VCD spectrum                            ...  NO
X-ray spectroscopy properties:
SCF XES/XAS/RIXS spectra                ...  NO


-------------
DIPOLE MOMENT
-------------

Method             : SCF
Type of density    : Electron Density
Multiplicity       :   1
Irrep              :   0
Energy             :  -385.5271521882044112 Eh
Relativity type    : 
Basis              : AO
                                X                 Y                 Z
Electronic contribution:      8.650453522       0.663827008      -1.467107867
Nuclear contribution   :     -8.497141959      -1.038741266       1.997184845
                        -----------------------------------------
Total Dipole Moment    :      0.153311563      -0.374914258       0.530076978
                        -----------------------------------------
Magnitude (a.u.)       :      0.667118235
Magnitude (Debye)      :      1.695679795



--------------------
Rotational spectrum 
--------------------
 
Rotational constants in cm-1:             0.196905             0.027083             0.025924 
Rotational constants in MHz :          5903.072834           811.920747           777.193537 

Dipole components along the rotational axes: 
x,y,z [a.u.] :     0.144280    -0.642030    -0.109668 
x,y,z [Debye]:     0.366732    -1.631911    -0.278753 

 

Dipole moment calculation done in   0.0 sec 

Maximum memory used throughout the entire PROP-calculation: 7.9 MB

--------------------------------
SUGGESTED CITATIONS FOR THIS RUN
--------------------------------

Below you find a list of papers that are relevant to this ORCA run
We neither can nor want to force you to cite these papers, but we appreciate if you do
You receive ORCA, which is the product of decades of hard work by many enthusiastic individuals, for free
The only thing we kindly ask in return is that you cite our papers,
We deeply appreciate it, if you show your appreciation for ORCA by not just citing the generic ORCA reference.

Please note that relegating all ORCA citations to the supporting information does *not* help us.
SI sections are not indexed - citations you put there will not count into any citation statistics
But we need these citations in order to attract the funding resources that allow us to do what we are doing

Therefore, if you are a happy ORCA user, please consider citing a few of the papers listed below in the main body of your paper

In addition to the list printed below, the program has created the file sp.bibtex that contains the list in bibtex format
You can import this file easily into all common literature databanks and citation aid programs


List of essential papers. We consider these as the minimum necessary citations

  1. Neese,F.
     Software update: the ORCA program system, version 5.0
     WIRES Comput. Molec. Sci., 2022 12(1)e1606
     doi.org/10.1002/wcms.1606

List of papers to cite with high priority. The work reported in these papers was absolutely
necessary for this run to complete.
Our perspective: the developers of density functionals and basis sets usually get cited in chemistry papers
Good! But without the algorithms to do something with them, the functionals or basis sets would not do anything.
Hence, in our opinion, the algorithm design and method developments papers are equally worthy of getting cited

  1. Neese,F.
     An improvement of the resolution of the identity approximation for the formation of the Coulomb matrix
     J. Comp. Chem., 2003 24(14)1740-1747
     doi.org/10.1002/jcc.10318
  2. Neese,F.
     The SHARK Integral Generation and Digestion System
     J. Comp. Chem., 2022  1-16
     doi.org/10.1002/jcc.26942
  3. Caldeweyher,E.; Bannwarth,C.; Grimme,S.
     Extension of the D3 dispersion coefficient model
     J. Chem. Phys., 2017 147 034112-XXXX
     doi.org/10.1063/1.4993215
  4. Caldeweyher,E.; Ehlert,S.; Hansen,A.; Neugebauer,H.; Spicher,S.; Bannwarth,C.; Grimme,S.
     A generally applicable atomic-charge dependent London dispersion correction
     J. Chem. Phys., 2019 150 154122-XXXX
     doi.org/10.1063/1.5090222
  5. Caldeweyher,E.; Mewes,J.; Ehlert,S.; Grimme,S.
     Extension and evaluation of the D4 London-dispersion model for periodic systems
     Phys. Chem. Chem. Phys., 2020 22(16)8499-8512
     doi.org/10.1039/D0CP00502A

List of suggested additional citations. These are papers that are important in the 'surrounding' of 
of this run, or papers that preceded the highly important papers. If you like your results we are grateful for a citation.

  1. Neese,F.
     The ORCA program system
     WIRES Comput. Molec. Sci., 2012 2(1)73-78
     doi.org/10.1002/wcms.81
  2. Neese,F.
     Software update: the ORCA program system, version 4.0
     WIRES Comput. Molec. Sci., 2018 8(1)1-6
     doi.org/10.1002/wcms.1327
  3. Neese,F.; Wennmohs,F.; Becker,U.; Riplinger,C.
     The ORCA quantum chemistry program package
     J. Chem. Phys., 2020 152 Art. No. L224108
     doi.org/10.1063/5.0004608

List of optional additional citations

  1. Neese,F.
     Approximate second-order SCF convergence for spin unrestricted wavefunctions
     Chem. Phys. Lett., 2000 325(1-3)93-98
     doi.org/10.1016/s0009-2614(00)00662-x

Timings for individual modules:

Sum of individual times          ...        8.764 sec (=   0.146 min)
Startup calculation              ...        0.708 sec (=   0.012 min)   8.1 %
SCF iterations                   ...        7.950 sec (=   0.132 min)  90.7 %
Property calculations            ...        0.106 sec (=   0.002 min)   1.2 %
                             ****ORCA TERMINATED NORMALLY****
TOTAL RUN TIME: 0 days 0 hours 0 minutes 9 seconds 485 msec
