 Entering Gaussian System
 *********************************************
 Gaussian 98:
 frequency output generated by the xtb code
 *********************************************
                         Standard orientation:
 --------------------------------------------------------------------
  Center     Atomic     Atomic              Coordinates (Angstroms)
  Number     Number      Type              X           Y           Z
 --------------------------------------------------------------------
    1          6             0       -3.890993   -0.843533   -0.509548
    2          6             0       -3.299904    0.003272    0.612400
    3          6             0       -1.797073   -0.217115    0.811525
    4          6             0       -1.000196    0.301423   -0.367171
    5         53             0        1.143328    0.089466   -0.053412
    6          1             0       -3.661968   -1.895324   -0.353964
    7          1             0       -4.971599   -0.729174   -0.531960
    8          1             0       -3.502151   -0.543957   -1.479362
    9          1             0       -3.801747   -0.249876    1.547858
   10          1             0       -3.487309    1.060153    0.411268
   11          1             0       -1.482260    0.302444    1.719358
   12          1             0       -1.602004   -1.282633    0.951377
   13          1             0       -1.169495    1.362700   -0.529589
   14          1             0       -1.210990   -0.250166   -1.278137
 --------------------------------------------------------------------
     1 basis functions        1 primitive gaussians
     1 alpha electrons        1 beta electrons
 
 Harmonic frequencies (cm**-1), IR intensities (km*mol⁻¹),
 Raman scattering activities (A**4/amu), Raman depolarization ratios,
 reduced masses (AMU), force constants (mDyne/A) and normal coordinates:
                      1                      2                      3
                        a                      a                      a 
 Frequencies --    67.2864               103.2315               178.6616
 Red. masses --    13.7294                10.2522                14.1885
 Frc consts  --     0.0000                 0.0000                 0.0000
 IR Inten    --     4.6496                 0.1883                 2.4134
 Raman Activ --     0.0000                 0.0000                 0.0000
 Depolar     --     0.0000                 0.0000                 0.0000
 Atom AN      X      Y      Z        X      Y      Z        X      Y      Z
   1   6    -0.20   0.31   0.00    -0.43  -0.11   0.25     0.06   0.03  -0.17
   2   6     0.04   0.03   0.09     0.00   0.08  -0.13    -0.14   0.09  -0.11
   3   6     0.02  -0.24  -0.04    -0.03  -0.28  -0.28    -0.22  -0.12   0.38
   4   6    -0.01  -0.63  -0.24     0.05   0.13  -0.05    -0.08  -0.21   0.45
   5  53     0.06   0.19   0.07     0.15   0.06   0.07     0.14   0.07  -0.18
   6   1    -0.09   0.07  -0.07    -0.34  -0.05   0.25    -0.20  -0.02   0.11
   7   1    -0.05   0.13   0.05    -0.10   0.18   0.01     0.04   0.20  -0.26
   8   1    -0.08   0.13   0.01    -0.02  -0.27   0.04     0.25  -0.17  -0.01
   9   1     0.02  -0.01   0.03     0.02   0.16   0.00    -0.15   0.10  -0.07
  10   1     0.06   0.03   0.08     0.08   0.02  -0.13     0.04   0.03  -0.11
  11   1     0.06  -0.03  -0.05     0.03  -0.21  -0.02    -0.11  -0.03   0.12
  12   1    -0.04  -0.07   0.05    -0.06  -0.11  -0.22    -0.11  -0.04   0.14
  13   1    -0.07  -0.22  -0.22     0.03   0.06   0.10    -0.04  -0.06   0.12
  14   1     0.05  -0.32   0.00     0.03   0.14  -0.08    -0.03  -0.07   0.14
                      4                      5                      6
                        a                      a                      a 
 Frequencies --   214.8459               272.7729               408.6776
 Red. masses --    27.8595                 8.8212                11.2831
 Frc consts  --     0.0000                 0.0000                 0.0000
 IR Inten    --     0.5968                 0.8913                 3.4303
 Raman Activ --     0.0000                 0.0000                 0.0000
 Depolar     --     0.0000                 0.0000                 0.0000
 Atom AN      X      Y      Z        X      Y      Z        X      Y      Z
   1   6     0.41   0.08   0.02     0.18  -0.02   0.07     0.33   0.01   0.13
   2   6     0.34   0.04   0.06     0.19   0.34  -0.21    -0.35   0.21   0.28
   3   6     0.30  -0.09  -0.05     0.04  -0.31   0.05    -0.33  -0.10  -0.24
   4   6     0.08  -0.01  -0.14     0.04  -0.11   0.17    -0.22  -0.01  -0.18
   5  53    -0.42  -0.01   0.05    -0.16   0.04  -0.02     0.16  -0.01   0.01
   6   1    -0.14  -0.01   0.16     0.35   0.05  -0.05     0.19   0.03   0.11
   7   1     0.15   0.26  -0.21     0.02  -0.28   0.22     0.09  -0.13  -0.16
   8   1     0.36  -0.17   0.04    -0.20   0.11  -0.04     0.24   0.01   0.10
   9   1     0.08   0.02   0.01    -0.03   0.29  -0.06    -0.07  -0.01   0.08
  10   1     0.13   0.02   0.01     0.20   0.09  -0.22    -0.14   0.06   0.11
  11   1     0.14  -0.05  -0.02     0.05  -0.21   0.07     0.04  -0.18  -0.03
  12   1     0.08  -0.03  -0.05    -0.10  -0.12  -0.09    -0.20  -0.07  -0.21
  13   1    -0.01  -0.01  -0.03    -0.01  -0.02   0.12    -0.04   0.00  -0.03
  14   1     0.02  -0.00  -0.04    -0.01   0.03   0.02     0.00   0.02  -0.08
                      7                      8                      9
                        a                      a                      a 
 Frequencies --   621.3148               761.3713               809.1989
 Red. masses --    14.1170                 2.5284                 3.0081
 Frc consts  --     0.0000                 0.0000                 0.0000
 IR Inten    --     0.3244                 7.1075                12.6382
 Raman Activ --     0.0000                 0.0000                 0.0000
 Depolar     --     0.0000                 0.0000                 0.0000
 Atom AN      X      Y      Z        X      Y      Z        X      Y      Z
   1   6    -0.03  -0.01   0.03     0.01   0.04   0.06     0.06   0.08  -0.04
   2   6    -0.18   0.06   0.05    -0.07  -0.04   0.07     0.16   0.18  -0.22
   3   6    -0.07   0.08  -0.16    -0.05  -0.14  -0.09    -0.02   0.02  -0.04
   4   6     0.79  -0.15   0.23     0.07  -0.24  -0.13    -0.15  -0.17   0.05
   5  53    -0.18   0.03  -0.06    -0.01   0.03   0.01     0.01   0.01   0.01
   6   1     0.04   0.01   0.04     0.03   0.01  -0.04     0.05   0.07   0.32
   7   1    -0.01  -0.06  -0.05     0.00  -0.01  -0.07     0.01  -0.03   0.17
   8   1     0.04  -0.00   0.03     0.08   0.09   0.07    -0.17  -0.31  -0.18
   9   1     0.05  -0.12   0.03    -0.03   0.13   0.05     0.15  -0.45  -0.13
  10   1    -0.16   0.01   0.11     0.08  -0.01  -0.09    -0.17   0.09   0.39
  11   1    -0.04  -0.06   0.01    -0.03   0.34  -0.23     0.01   0.04  -0.03
  12   1    -0.12  -0.00  -0.07     0.04   0.03   0.39    -0.12  -0.00   0.06
  13   1     0.22  -0.05   0.01     0.14   0.03   0.47     0.01  -0.01   0.21
  14   1     0.22  -0.03   0.05    -0.05   0.40  -0.30    -0.12   0.11  -0.06
                     10                     11                     12
                        a                      a                      a 
 Frequencies --   922.2882               932.4312              1013.9287
 Red. masses --     8.1873                 3.6191                 6.1682
 Frc consts  --     0.0000                 0.0000                 0.0000
 IR Inten    --     1.0239                 3.2786                 0.9237
 Raman Activ --     0.0000                 0.0000                 0.0000
 Depolar     --     0.0000                 0.0000                 0.0000
 Atom AN      X      Y      Z        X      Y      Z        X      Y      Z
   1   6    -0.27  -0.14  -0.30    -0.13   0.17  -0.00     0.23   0.12   0.00
   2   6    -0.22   0.23   0.20    -0.11   0.00  -0.03    -0.12  -0.16   0.06
   3   6     0.41   0.02   0.32     0.05  -0.31  -0.06    -0.23  -0.11   0.31
   4   6     0.06  -0.05  -0.22     0.06   0.25   0.04     0.23   0.12  -0.36
   5  53    -0.00   0.01   0.01    -0.00  -0.02  -0.01    -0.01   0.01  -0.00
   6   1     0.06   0.01   0.05     0.22   0.14   0.30    -0.07   0.02   0.12
   7   1    -0.09  -0.22  -0.23    -0.06  -0.26  -0.17     0.06   0.15   0.32
   8   1     0.00  -0.11  -0.07     0.07  -0.13  -0.01    -0.20  -0.16  -0.16
   9   1    -0.13   0.03   0.01    -0.08  -0.02  -0.04    -0.40  -0.02  -0.17
  10   1    -0.02   0.07   0.09     0.24   0.08   0.17     0.14  -0.02  -0.02
  11   1     0.32  -0.13   0.09    -0.20   0.19  -0.09    -0.05  -0.06   0.09
  12   1     0.03  -0.03  -0.05     0.31   0.01   0.21     0.02  -0.02   0.02
  13   1     0.10   0.02   0.06    -0.23   0.00  -0.17     0.18   0.05  -0.12
  14   1    -0.15   0.09  -0.08     0.24  -0.12   0.07     0.01   0.07  -0.11
                     13                     14                     15
                        a                      a                      a 
 Frequencies --  1063.7907              1113.1446              1128.3216
 Red. masses --     3.0714                 8.0199                 7.3472
 Frc consts  --     0.0000                 0.0000                 0.0000
 IR Inten    --     0.4437                 0.4286                 6.3512
 Raman Activ --     0.0000                 0.0000                 0.0000
 Depolar     --     0.0000                 0.0000                 0.0000
 Atom AN      X      Y      Z        X      Y      Z        X      Y      Z
   1   6    -0.08   0.18   0.13     0.03   0.18   0.37     0.19   0.11  -0.02
   2   6     0.03  -0.23  -0.12    -0.26  -0.08  -0.46    -0.39  -0.06   0.07
   3   6    -0.04   0.13  -0.06     0.29  -0.11   0.22     0.35   0.07  -0.32
   4   6    -0.06  -0.16   0.02     0.06   0.05  -0.16    -0.13  -0.14   0.31
   5  53     0.00   0.03   0.01     0.00  -0.01   0.01    -0.00   0.00  -0.00
   6   1     0.16   0.10   0.16     0.06   0.05   0.01    -0.06   0.02   0.10
   7   1    -0.03  -0.15  -0.16     0.01   0.03  -0.05     0.05   0.10   0.22
   8   1     0.11   0.01   0.07     0.14   0.19   0.19    -0.14  -0.10  -0.12
   9   1     0.01   0.02  -0.01    -0.01  -0.16  -0.12    -0.27   0.07  -0.06
  10   1     0.21  -0.02  -0.00    -0.38  -0.08  -0.13    -0.07  -0.04  -0.15
  11   1    -0.22  -0.08   0.12    -0.01  -0.07   0.10     0.19   0.06  -0.14
  12   1     0.22   0.05  -0.22    -0.03  -0.05   0.05     0.31   0.05  -0.14
  13   1     0.50   0.03  -0.04    -0.16  -0.00   0.04    -0.02  -0.04   0.09
  14   1    -0.47  -0.01   0.09    -0.05   0.01  -0.03    -0.02  -0.05   0.09
                     16                     17                     18
                        a                      a                      a 
 Frequencies --  1183.8470              1217.1626              1255.7546
 Red. masses --     5.2229                 3.1929                 2.8617
 Frc consts  --     0.0000                 0.0000                 0.0000
 IR Inten    --     0.9248                46.7265                 6.4153
 Raman Activ --     0.0000                 0.0000                 0.0000
 Depolar     --     0.0000                 0.0000                 0.0000
 Atom AN      X      Y      Z        X      Y      Z        X      Y      Z
   1   6    -0.12   0.24   0.01     0.02   0.10  -0.09    -0.02  -0.21   0.14
   2   6     0.14  -0.37  -0.02     0.01  -0.13   0.15     0.00   0.13  -0.09
   3   6    -0.08   0.34   0.08    -0.02   0.09  -0.11    -0.04   0.21  -0.00
   4   6    -0.08  -0.13   0.03     0.31   0.02  -0.10     0.07  -0.17  -0.04
   5  53    -0.00  -0.01  -0.01     0.02  -0.01   0.02     0.01  -0.01   0.00
   6   1     0.16   0.13   0.22     0.03   0.05   0.11    -0.06  -0.09  -0.19
   7   1    -0.05  -0.16  -0.07    -0.00  -0.05   0.01     0.01   0.08  -0.04
   8   1     0.07  -0.09  -0.00    -0.05  -0.11  -0.09     0.05   0.17   0.12
   9   1    -0.10   0.05  -0.04     0.03   0.12   0.09    -0.28  -0.14  -0.22
  10   1     0.11  -0.11  -0.15     0.01  -0.06  -0.11     0.32   0.16   0.30
  11   1     0.26  -0.10   0.02    -0.12  -0.03   0.04    -0.14  -0.07   0.11
  12   1    -0.21   0.02  -0.17    -0.16   0.00   0.03     0.28   0.07  -0.25
  13   1    -0.18  -0.03   0.14    -0.58  -0.06   0.15    -0.34  -0.06   0.19
  14   1     0.42   0.10  -0.17    -0.55  -0.02   0.13     0.03   0.09  -0.10
                     19                     20                     21
                        a                      a                      a 
 Frequencies --  1273.0947              1338.6589              1345.2694
 Red. masses --     2.1695                 4.0772                 4.5308
 Frc consts  --     0.0000                 0.0000                 0.0000
 IR Inten    --     6.8122                11.0107                 8.2791
 Raman Activ --     0.0000                 0.0000                 0.0000
 Depolar     --     0.0000                 0.0000                 0.0000
 Atom AN      X      Y      Z        X      Y      Z        X      Y      Z
   1   6    -0.07  -0.04   0.15     0.02  -0.01   0.01     0.12  -0.06  -0.05
   2   6     0.08  -0.07  -0.08    -0.05  -0.04   0.11    -0.43  -0.16  -0.26
   3   6    -0.05  -0.03  -0.13     0.44   0.09  -0.19     0.07   0.07   0.08
   4   6     0.05   0.14   0.12    -0.14   0.02  -0.03     0.00   0.03  -0.01
   5  53     0.00   0.00   0.00    -0.01   0.00  -0.00    -0.00  -0.00   0.00
   6   1     0.02  -0.02  -0.08    -0.04  -0.02  -0.03    -0.02  -0.00   0.09
   7   1    -0.01  -0.01  -0.09    -0.00  -0.03   0.00     0.04   0.13   0.16
   8   1     0.07   0.09   0.10    -0.02  -0.01  -0.01    -0.01   0.10   0.02
   9   1    -0.35  -0.15  -0.26    -0.21   0.01  -0.08     0.41   0.14   0.26
  10   1     0.21   0.04   0.11     0.15   0.02   0.05     0.46   0.13   0.27
  11   1     0.47   0.11  -0.27    -0.51  -0.03   0.19     0.17  -0.03  -0.00
  12   1    -0.35  -0.04   0.18    -0.52  -0.06   0.15    -0.17  -0.01   0.04
  13   1     0.07   0.02  -0.13     0.12   0.04   0.09    -0.01   0.01  -0.01
  14   1    -0.26  -0.09   0.17     0.14  -0.09   0.01     0.01  -0.00   0.00
                     22                     23                     24
                        a                      a                      a 
 Frequencies --  1414.1300              1436.7489              1481.8086
 Red. masses --     3.1697                 2.0939                 1.9077
 Frc consts  --     0.0000                 0.0000                 0.0000
 IR Inten    --     2.7932                 3.0935                 0.7032
 Raman Activ --     0.0000                 0.0000                 0.0000
 Depolar     --     0.0000                 0.0000                 0.0000
 Atom AN      X      Y      Z        X      Y      Z        X      Y      Z
   1   6     0.19   0.23   0.30     0.04   0.04   0.04     0.02   0.02  -0.02
   2   6    -0.09  -0.02  -0.05     0.00   0.00  -0.02     0.10  -0.12  -0.11
   3   6     0.00   0.01   0.04    -0.11   0.01   0.02     0.06  -0.10   0.17
   4   6     0.01  -0.02   0.04    -0.01   0.12  -0.26     0.02   0.00  -0.00
   5  53     0.00  -0.00   0.00    -0.01   0.00  -0.00    -0.00   0.00  -0.00
   6   1    -0.29  -0.11  -0.42    -0.08  -0.02  -0.04    -0.08  -0.02   0.01
   7   1    -0.01  -0.32  -0.36    -0.00  -0.08  -0.06    -0.00  -0.08   0.03
   8   1    -0.28  -0.34  -0.21    -0.05  -0.02  -0.03     0.02   0.01   0.01
   9   1     0.11  -0.04   0.05     0.03  -0.01   0.01    -0.13   0.43   0.04
  10   1     0.12   0.02  -0.00     0.01   0.00  -0.00    -0.25   0.02   0.39
  11   1     0.03   0.03  -0.02     0.10  -0.03  -0.02    -0.09   0.43  -0.21
  12   1    -0.02  -0.01  -0.04     0.10   0.02   0.00    -0.14  -0.10  -0.45
  13   1    -0.03  -0.02  -0.10     0.12   0.13   0.63     0.00   0.00   0.03
  14   1     0.01   0.10  -0.06     0.13  -0.56   0.30    -0.01  -0.03   0.02
                     25                     26                     27
                        a                      a                      a 
 Frequencies --  1486.5205              1499.4507              1506.5709
 Red. masses --     1.9265                 1.6048                 1.5408
 Frc consts  --     0.0000                 0.0000                 0.0000
 IR Inten    --     0.4016                 1.5321                 2.9232
 Raman Activ --     0.0000                 0.0000                 0.0000
 Depolar     --     0.0000                 0.0000                 0.0000
 Atom AN      X      Y      Z        X      Y      Z        X      Y      Z
   1   6     0.02  -0.02  -0.06    -0.17  -0.03   0.12    -0.09   0.17  -0.09
   2   6    -0.09   0.13   0.12    -0.07   0.01   0.03    -0.04   0.05  -0.01
   3   6     0.04  -0.08   0.17     0.03  -0.03   0.06    -0.00  -0.00  -0.01
   4   6     0.03   0.00  -0.01     0.01   0.01  -0.02     0.00   0.00  -0.01
   5  53    -0.00  -0.00   0.00    -0.00   0.00  -0.00     0.00   0.00   0.00
   6   1    -0.12  -0.00   0.15     0.58   0.07  -0.35    -0.14  -0.06  -0.30
   7   1    -0.01  -0.08   0.03     0.04   0.46  -0.03    -0.05  -0.33   0.54
   8   1    -0.00   0.16   0.04     0.06  -0.42  -0.09     0.57  -0.30   0.13
   9   1     0.15  -0.46  -0.03     0.05  -0.05   0.03     0.02  -0.05  -0.01
  10   1     0.26  -0.03  -0.41     0.06   0.00  -0.05     0.04   0.02  -0.01
  11   1    -0.10   0.38  -0.17    -0.04   0.14  -0.06     0.00  -0.02   0.01
  12   1    -0.14  -0.08  -0.40    -0.06  -0.03  -0.15     0.02   0.01   0.02
  13   1    -0.02   0.00   0.02     0.01   0.01   0.05    -0.00   0.00   0.01
  14   1    -0.01  -0.02   0.01     0.01  -0.05   0.03    -0.03  -0.01   0.01
                     28                     29                     30
                        a                      a                      a 
 Frequencies --  2967.9248              2972.3269              2984.4131
 Red. masses --     1.9100                 1.9509                 1.5240
 Frc consts  --     0.0000                 0.0000                 0.0000
 IR Inten    --    11.7444                54.1216                47.9783
 Raman Activ --     0.0000                 0.0000                 0.0000
 Depolar     --     0.0000                 0.0000                 0.0000
 Atom AN      X      Y      Z        X      Y      Z        X      Y      Z
   1   6    -0.00  -0.01   0.01    -0.00   0.02  -0.01     0.01  -0.01   0.00
   2   6     0.00   0.16  -0.09    -0.04  -0.17   0.13    -0.04   0.09   0.02
   3   6    -0.01  -0.20  -0.09    -0.04  -0.14  -0.12    -0.07   0.13  -0.12
   4   6     0.00   0.02   0.01    -0.00   0.02   0.00     0.00  -0.02   0.00
   5  53    -0.00   0.00   0.00     0.00   0.00   0.00     0.00  -0.00   0.00
   6   1    -0.01   0.03  -0.00     0.01  -0.06   0.01    -0.01   0.03  -0.01
   7   1     0.00  -0.00   0.00     0.00   0.00  -0.00    -0.03   0.00  -0.00
   8   1     0.01   0.01  -0.03    -0.02  -0.01   0.04     0.00  -0.00   0.01
   9   1    -0.11  -0.03   0.19     0.22   0.10  -0.40     0.09   0.07  -0.18
  10   1     0.10  -0.57   0.11    -0.09   0.50  -0.09     0.06  -0.36   0.08
  11   1     0.14   0.21   0.40     0.17   0.29   0.50     0.12   0.25   0.38
  12   1    -0.10   0.52  -0.08    -0.05   0.22  -0.05     0.12  -0.72   0.07
  13   1     0.01  -0.05   0.01     0.01  -0.07   0.01    -0.01   0.10  -0.01
  14   1    -0.01  -0.03  -0.05    -0.01  -0.02  -0.04    -0.00  -0.01  -0.02
                     31                     32                     33
                        a                      a                      a 
 Frequencies --  2989.7466              3014.5880              3028.1508
 Red. masses --     1.5363                 1.7373                 1.8337
 Frc consts  --     0.0000                 0.0000                 0.0000
 IR Inten    --    44.4286                21.9655                17.4141
 Raman Activ --     0.0000                 0.0000                 0.0000
 Depolar     --     0.0000                 0.0000                 0.0000
 Atom AN      X      Y      Z        X      Y      Z        X      Y      Z
   1   6     0.02   0.00  -0.01     0.00   0.01  -0.01     0.05   0.04  -0.08
   2   6    -0.11   0.05   0.16     0.00  -0.01   0.00     0.00   0.01  -0.01
   3   6     0.03  -0.01   0.09     0.01  -0.04   0.00     0.01   0.02   0.02
   4   6    -0.00  -0.00  -0.01     0.04  -0.25   0.05     0.04   0.15   0.20
   5  53    -0.00   0.00  -0.00     0.00  -0.00   0.00     0.00   0.00   0.00
   6   1     0.00   0.02  -0.00     0.01  -0.04   0.01     0.03  -0.08   0.00
   7   1    -0.07   0.01  -0.00    -0.00   0.00  -0.00    -0.10   0.02  -0.01
   8   1    -0.02  -0.02   0.06    -0.01  -0.01   0.03    -0.11  -0.09   0.27
   9   1     0.35   0.21  -0.67     0.01   0.00  -0.01    -0.01  -0.01   0.02
  10   1     0.05  -0.39   0.10    -0.01   0.04  -0.01     0.00  -0.01   0.00
  11   1    -0.10  -0.18  -0.28     0.00   0.00   0.01    -0.02  -0.04  -0.06
  12   1    -0.03   0.21  -0.01    -0.02   0.12  -0.01     0.01  -0.03   0.00
  13   1     0.00  -0.02   0.00    -0.14   0.94  -0.13     0.01  -0.05   0.03
  14   1     0.01   0.02   0.03    -0.01  -0.07  -0.05    -0.17  -0.47  -0.75
                     34                     35                     36
                        a                      a                      a 
 Frequencies --  3031.3931              3035.7334              3047.0890
 Red. masses --     1.8732                 1.9119                 1.3387
 Frc consts  --     0.0000                 0.0000                 0.0000
 IR Inten    --    67.5963                78.4661                36.4578
 Raman Activ --     0.0000                 0.0000                 0.0000
 Depolar     --     0.0000                 0.0000                 0.0000
 Atom AN      X      Y      Z        X      Y      Z        X      Y      Z
   1   6     0.08  -0.25   0.08    -0.22  -0.01   0.16    -0.13  -0.01  -0.11
   2   6     0.00  -0.03   0.01    -0.02  -0.00   0.03    -0.01   0.00  -0.00
   3   6     0.00  -0.00   0.00     0.00   0.01   0.01     0.00  -0.00  -0.00
   4   6     0.01   0.01   0.03     0.01   0.04   0.07    -0.00  -0.01  -0.02
   5  53     0.00   0.00   0.00     0.00   0.00   0.00    -0.00  -0.00  -0.00
   6   1    -0.20   0.88  -0.14    -0.01  -0.09   0.04    -0.08   0.28  -0.06
   7   1    -0.17  -0.01   0.01     0.55  -0.07   0.03     0.76  -0.09  -0.01
   8   1     0.09   0.02  -0.17     0.24   0.21  -0.63    -0.22  -0.16   0.48
   9   1     0.01   0.00  -0.02     0.05   0.03  -0.08     0.00   0.00  -0.01
  10   1    -0.01   0.08  -0.02     0.00  -0.01   0.01     0.00  -0.02   0.00
  11   1    -0.00  -0.00  -0.00    -0.01  -0.02  -0.03     0.00   0.00   0.00
  12   1    -0.01   0.02  -0.00     0.00  -0.01   0.00     0.00  -0.00  -0.00
  13   1    -0.00   0.03   0.00     0.00   0.01   0.01    -0.00   0.00  -0.00
  14   1    -0.03  -0.07  -0.11    -0.06  -0.16  -0.25     0.01   0.03   0.06
