20
 energy: -27.121314359663 gnorm: 0.035192788554 xtb: 6.7.1 (edcfbbe)
C           -3.54580383719046       -0.66006378321729        0.44671892770048
C           -2.17763288329217       -0.00119173540115        0.58059870879758
C           -1.22367057718295       -0.46405308454611       -0.53613175025363
C            0.10552548657721        0.21945997715769       -0.40945528433331
O            0.42441323735915        1.23735111657317       -1.00489560071773
O            0.89808253472294       -0.39520675864737        0.49018795393653
C            2.21086275518298        0.20022478505171        0.74383949473155
C            3.21516992395271       -0.25118987146817       -0.29146417458750
H           -4.21895597389224       -0.32727662967971        1.24288923341094
H           -4.00898800719401       -0.41056226149661       -0.51392878264602
H           -3.46223125464131       -1.75054160787528        0.50792442071383
H           -1.73711604306186       -0.24452839366232        1.55387991974140
H           -2.27951488572060        1.08943109543108        0.53485698402366
H           -1.64334721444881       -0.20869620121454       -1.51280451280138
H           -1.08875429945785       -1.54850436387389       -0.47752891819134
H            2.10545727742684        1.28758433174430        0.77154235000271
H            2.47437521205563       -0.16087591984595        1.73974369387808
H            2.94220041467281        0.09659326277080       -1.29132075890289
H            4.19686363811843        0.16276940507802       -0.03998893197721
H            3.29615113214476       -1.34197716496099       -0.30323333152281
20
 energy: -27.122439524288 gnorm: 0.014168086112 xtb: 6.7.1 (edcfbbe)
C           -3.53857148870851       -0.66065525527407        0.44470945998130
C           -2.17342288505232       -0.00173321047808        0.57861153659195
C           -1.22280724050156       -0.46543675900021       -0.53629915805790
C            0.10312971578137        0.22612400112970       -0.39932591015334
O            0.42195537164942        1.23492401295663       -0.99407458724245
O            0.89397220920482       -0.38400687849545        0.48783140005658
C            2.20104177962371        0.19327572748547        0.74221221247754
C            3.21584483891368       -0.25253848107573       -0.29007875250083
H           -4.20088026896630       -0.32342555397411        1.24001568773718
H           -3.99603760574079       -0.40854269082725       -0.51099228231960
H           -3.45082821186291       -1.74433947656778        0.50784878847231
H           -1.73350551677553       -0.25000083189332        1.54764723447247
H           -2.27964127650863        1.08534319784356        0.52707977837408
H           -1.64515583726465       -0.21007092586315       -1.50974879982937
H           -1.07849675701144       -1.54470052932590       -0.46669705017432
H            2.09574871506417        1.28126777252693        0.75125261024367
H            2.45982352249465       -0.16805517690737        1.73869668884616
H            2.93329291483193        0.09919096419131       -1.28101525821551
H            4.19127524622781        0.16071360236468       -0.03960891398530
H            3.28634941073232       -1.33858731089847       -0.30663504377169
20
 energy: -27.122655941543 gnorm: 0.005003057560 xtb: 6.7.1 (edcfbbe)
C           -3.53331790546806       -0.66070888999145        0.44614432188162
C           -2.16683852408422       -0.00256057308507        0.57826104629946
C           -1.22007308024701       -0.46721853925749       -0.53832827918892
C            0.10748559186463        0.22623340470905       -0.40402508166919
O            0.41922548084884        1.24210548466310       -0.98741480703193
O            0.89296774012164       -0.38006114194244        0.47868741500790
C            2.18956555530710        0.19087171671466        0.74318014024655
C            3.21143522078055       -0.25526060998425       -0.28836282960104
H           -4.19022386344422       -0.32148819696315        1.24153990629874
H           -3.98749840091338       -0.40685953000460       -0.50744550345819
H           -3.44312292977561       -1.74121033082729        0.50900201894927
H           -1.72615497441577       -0.25325825629561        1.54452801580782
H           -2.27377605050804        1.08277376778796        0.52463506907221
H           -1.64534735579374       -0.21124120971287       -1.50859418356111
H           -1.07011378334029       -1.54338457167409       -0.46407844028148
H            2.09012404734390        1.28032259879019        0.74192969559957
H            2.44465563755688       -0.17025371569140        1.73982822408411
H            2.92608149259746        0.10237986906655       -1.27470308449131
H            4.18197835245525        0.15688057458730       -0.03350087845921
H            3.27603438524530       -1.33931565297170       -0.30985312450193
20
 energy: -27.122687672100 gnorm: 0.001697703927 xtb: 6.7.1 (edcfbbe)
C           -3.53137560605825       -0.66103354887354        0.44732291757524
C           -2.16398656941693       -0.00244936752266        0.57714071336503
C           -1.21946999127434       -0.46858549017390       -0.54076738083185
C            0.10552348413868        0.23084430199888       -0.40256658574333
O            0.41527404830804        1.24843368999398       -0.98655572097446
O            0.89172517358565       -0.37885085605344        0.47490700804376
C            2.18504622536021        0.19015521803443        0.74312630551807
C            3.20987676021173       -0.25676083680062       -0.28769424236307
H           -4.18674539151266       -0.32090381331342        1.24377764565422
H           -3.98628054027392       -0.40727649238060       -0.50612438476718
H           -3.44054472902264       -1.74163125915992        0.51069040924948
H           -1.72197681587034       -0.25266185538016        1.54291301206211
H           -2.27030952754656        1.08287334270648        0.52309248118586
H           -1.64498102640676       -0.21531608162439       -1.51138273603063
H           -1.06568178966033       -1.54397717531628       -0.46389657835586
H            2.09047626024102        1.28026952142574        0.74177651248514
H            2.43956792239423       -0.17048899281845        1.73978500555715
H            2.92558419046159        0.10419654191298       -1.27337863528520
H            4.18039020242228        0.15296487061703       -0.02960071255831
H            3.27097435605055       -1.34105551935478       -0.31113539278325
20
 energy: -27.122699283780 gnorm: 0.002122531829 xtb: 6.7.1 (edcfbbe)
C           -3.52975237456134       -0.66125351592341        0.45026847278655
C           -2.16119364047782       -0.00272461883150        0.57511573185399
C           -1.21913250990405       -0.46913296658762       -0.54496361974226
C            0.10457675481372        0.23352807269299       -0.40692724552536
O            0.40762144167190        1.25859247233958       -0.98404448578594
O            0.89104176995537       -0.37871150004549        0.46801065222959
C            2.18101239905093        0.19012393172275        0.74291484618037
C            3.20938212920386       -0.25831365561098       -0.28560682213176
H           -4.18350794975999       -0.32085543029583        1.24873715551313
H           -3.98764859228285       -0.40829187949900       -0.50270000523632
H           -3.43840403460159       -1.74248576571694        0.51402732242640
H           -1.71626245447102       -0.25232130761786        1.54008448794754
H           -2.26678221526900        1.08296591665615        0.52137974277909
H           -1.64683989934420       -0.21898152737573       -1.51534557729624
H           -1.06202707639778       -1.54407898728718       -0.46691784057044
H            2.09084667011606        1.28073471527335        0.74272897685351
H            2.43384047076938       -0.16963524073725        1.74042980752958
H            2.92967357679487        0.10643623458352       -1.27169324544839
H            4.18122218871106        0.14642953700570       -0.02262623371017
H            3.26541998211370       -1.34327828682787       -0.31144247964993
20
 energy: -27.122703444170 gnorm: 0.001280158730 xtb: 6.7.1 (edcfbbe)
C           -3.52960175001018       -0.66155033980419        0.45087708243413
C           -2.16143238868708       -0.00265075422061        0.57445337899472
C           -1.21941629465356       -0.46888126214635       -0.54569957785352
C            0.10358691006976        0.23469224293237       -0.40707750532914
O            0.40577433449034        1.26031683459169       -0.98286874811497
O            0.89110567714337       -0.37871763059511        0.46655548189253
C            2.18126336472910        0.19028819665466        0.74212706860168
C            3.21022651587183       -0.25866563999176       -0.28506266340788
H           -4.18271781492806       -0.32116806914053        1.24985639625531
H           -3.98880418862394       -0.40913247204606       -0.50159986355840
H           -3.43816167166730       -1.74276350998574        0.51494925762334
H           -1.71576403765259       -0.25182748425548        1.53925399259514
H           -2.26731913227251        1.08306216814367        0.52056861382968
H           -1.64741915811780       -0.21926663042170       -1.51614058873650
H           -1.06201004845665       -1.54385309097883       -0.46757821805972
H            2.09042033741918        1.28081488914320        0.74213618089438
H            2.43299473078660       -0.16948090224249        1.74006656360700
H            2.93288980324104        0.10679048739297       -1.27151147118157
H            4.18239032848759        0.14442228838908       -0.02056109196851
H            3.26508111896209       -1.34368312350143       -0.31131464751478
20
 energy: -27.122710944158 gnorm: 0.001617354419 xtb: 6.7.1 (edcfbbe)
C           -3.52881319581255       -0.66334009929591        0.45420843343314
C           -2.16237697464281       -0.00209424013246        0.57164018666942
C           -1.22091563274124       -0.46780390492666       -0.54917292005676
C            0.09947986981957        0.23950691227511       -0.40901990789298
O            0.39662214392951        1.27054148518951       -0.97519643459331
O            0.89164023205621       -0.37989912957043        0.45737974826127
C            2.18136066710826        0.19046219880930        0.73773701829268
C            3.21486778235447       -0.26065730431122       -0.28206053188109
H           -4.17865599491085       -0.32273686351026        1.25549535856993
H           -3.99340865507219       -0.41352751508320       -0.49610861150568
H           -3.43594404956156       -1.74414608651545        0.51991519506777
H           -1.71330041478530       -0.24861264963981        1.53563112277221
H           -2.27025748405440        1.08341202335207        0.51605209600740
H           -1.65031952821041       -0.21986649672809       -1.51948515510732
H           -1.06183430751715       -1.54256702129902       -0.47052192044696
H            2.08767666475157        1.28072616945486        0.73641468429569
H            2.42715360096644       -0.16838362239799        1.73794537588636
H            2.94936724344882        0.10927228420662       -1.26994338346321
H            4.18786456946208        0.13428434952468       -0.00836789868693
H            3.26288009954276       -1.34582429148432       -0.31111281461870
20
 energy: -27.122713974150 gnorm: 0.000798928046 xtb: 6.7.1 (edcfbbe)
C           -3.52876610107170       -0.66414799532210        0.45513387737992
C           -2.16256584062172       -0.00146502904943        0.57136266676857
C           -1.22146709628092       -0.46737440761980       -0.54981062567228
C            0.09892867101914        0.24018041581558       -0.40960807685831
O            0.39484606114461        1.27358904241336       -0.97279954438514
O            0.89203344222945       -0.38099130404874        0.45423765136168
C            2.18068881937578        0.19016002688654        0.73658919895949
C            3.21621557257521       -0.26153276812981       -0.28132464489916
H           -4.17836281700115       -0.32368287793640        1.25670604088179
H           -3.99381160129027       -0.41503564132815       -0.49513023061493
H           -3.43457289550605       -1.74481581799493        0.52122458263648
H           -1.71285770067679       -0.24684734172692        1.53529075285232
H           -2.27137634187134        1.08383757331155        0.51486860657177
H           -1.65105430794480       -0.21927171122897       -1.51994129877583
H           -1.06186223076779       -1.54192617004961       -0.47095492699742
H            2.08704468909637        1.28043751604426        0.73359183245552
H            2.42517456331443       -0.16742748287603        1.73738780708660
H            2.95332137617696        0.10972198224218       -1.26938722930335
H            4.18880093367480        0.13205420664788       -0.00465571588990
H            3.26272944055703       -1.34671601813311       -0.31135108255487
20
 energy: -27.122716722980 gnorm: 0.000311036418 xtb: 6.7.1 (edcfbbe)
C           -3.52904090110931       -0.66632391713867        0.45695239320164
C           -2.16406748096960        0.00035209877740        0.57077044184324
C           -1.22303487694268       -0.46559611233025       -0.55061708416580
C            0.09737098658657        0.24203629784212       -0.41019181011898
O            0.39073609076491        1.27991992260716       -0.96740475471270
O            0.89335843281020       -0.38347334245332        0.44749017504706
C            2.18027121172503        0.18954276938165        0.73349731890583
C            3.22021555022235       -0.26365341463295       -0.27977645506050
H           -4.17872380512384       -0.32659915553699        1.25884125187296
H           -3.99541765180647       -0.41959633595245       -0.49333027736567
H           -3.43140235775170       -1.74665287932005        0.52433237146162
H           -1.71306979271798       -0.24193515430763        1.53484826304378
H           -2.27571120185611        1.08517879506029        0.51204433874361
H           -1.65276612286297       -0.21719636015531       -1.52053884279260
H           -1.06293713545212       -1.53994149898270       -0.47163009050681
H            2.08606076118178        1.27971425147686        0.72675314494508
H            2.42181721897791       -0.16488912684400        1.73593480719849
H            2.96345808831153        0.10975309847758       -1.26869121849606
H            4.19214870192996        0.12704247169605        0.00322283646146
H            3.26382092021376       -1.34893620974747       -0.31107716850269
20
 energy: -27.122717302721 gnorm: 0.000245381855 xtb: 6.7.1 (edcfbbe)
C           -3.52914850056883       -0.66735143676505        0.45720156937463
C           -2.16505480887515        0.00117439505356        0.57066513767079
C           -1.22349802870140       -0.46459874701221       -0.55033317124700
C            0.09694417202016        0.24299338620879       -0.40981931940378
O            0.38955269219192        1.28173471012564       -0.96576618507431
O            0.89393843724171       -0.38364234151182        0.44595413411005
C            2.18057777036999        0.18954883399274        0.73240261657480
C            3.22150732877445       -0.26469570338567       -0.27944619014739
H           -4.17935033946632       -0.32792641537604        1.25877460725193
H           -3.99572696293913       -0.42185977988812       -0.49326774951192
H           -3.43014961430693       -1.74749285905428        0.52528984905428
H           -1.71395757403863       -0.23987522798913        1.53499059492553
H           -2.27803014052477        1.08580415674531        0.51115646030851
H           -1.65298553998479       -0.21612364205335       -1.52034528913753
H           -1.06347110483532       -1.53898252493478       -0.47137568511849
H            2.08638297582334        1.27971192072966        0.72435989143642
H            2.42138101281673       -0.16380639208322        1.73540112383012
H            2.96623115055161        0.10838907858382       -1.26878044320631
H            4.19315893570356        0.12571924864330        0.00461746684304
H            3.26478477487902       -1.34997446211185       -0.31024977753043
20
 energy: -27.122717880283 gnorm: 0.000109593569 xtb: 6.7.1 (edcfbbe)
C           -3.52924257235223       -0.66857599573148        0.45734402482172
C           -2.16626718514753        0.00208188476481        0.57045768208051
C           -1.22392491194457       -0.46334372706882       -0.54996063065698
C            0.09643112963044        0.24438556848297       -0.40918457745300
O            0.38804696784681        1.28407933091784       -0.96377861466508
O            0.89454340791369       -0.38350876076758        0.44461356519548
C            2.18117233004526        0.18960334872734        0.73127716466382
C            3.22278526482458       -0.26595822985173       -0.27917987772799
H           -4.18023977791926       -0.32935544823742        1.25837319255044
H           -3.99607214068887       -0.42493251107907       -0.49349381030748
H           -3.42862852897844       -1.74848720379663        0.52666495010155
H           -1.71499789029201       -0.23735788161519        1.53514112714810
H           -2.28085096772704        1.08649044249860        0.50994693474367
H           -1.65302832083339       -0.21491047348106       -1.52019166367615
H           -1.06396276338764       -1.53779833631939       -0.47106323532013
H            2.08722376985230        1.27976708483395        0.72206299010482
H            2.42127421270451       -0.16268713842953        1.73489185733981
H            2.96852158740264        0.10587440924187       -1.26923692172573
H            4.19427828444576        0.12466547560939        0.00527256051565
H            3.26602474073624       -1.35128564078157       -0.30852707673010
20
 energy: -27.122718343297 gnorm: 0.000122418098 xtb: 6.7.1 (edcfbbe)
C           -3.52922311935793       -0.66974344406514        0.45740640044416
C           -2.16726924688572        0.00292819327785        0.57012262866393
C           -1.22409967085657       -0.46222767436447       -0.54968335211376
C            0.09606061060830        0.24582825815463       -0.40846932765703
O            0.38678531213075        1.28642956948714       -0.96172182178055
O            0.89494998729290       -0.38306531930778        0.44382543939912
C            2.18170397686696        0.18975316649067        0.73052482417606
C            3.22352323873132       -0.26725646460539       -0.27901867894097
H           -4.18102905462987       -0.33040647013718        1.25772761474586
H           -3.99606147948330       -0.42795524803178       -0.49389071275574
H           -3.42725754243950       -1.74944049290880        0.52813039915318
H           -1.71590181209064       -0.23513412047122        1.53511175920227
H           -2.28325143516928        1.08714864417129        0.50874769302682
H           -1.65282588755384       -0.21395066197148       -1.52013649637636
H           -1.06393317516251       -1.53666891167907       -0.47074015563728
H            2.08815060185772        1.27995066658108        0.72043022034273
H            2.42131343022568       -0.16178786050941        1.73456509950453
H            2.96933035260271        0.10275310211700       -1.26977102530185
H            4.19487055742819        0.12420659384871        0.00478992695362
H            3.26725099201588       -1.35261532815935       -0.30652079404580
20
 energy: -27.122718766516 gnorm: 0.000134459347 xtb: 6.7.1 (edcfbbe)
C           -3.52913039596360       -0.67080064523168        0.45732418366710
C           -2.16804146048828        0.00362864466590        0.56978954656093
C           -1.22410512829911       -0.46121409635495       -0.54948993117660
C            0.09572973424022        0.24736517665292       -0.40764127608346
O            0.38569728332834        1.28894130104089       -0.95943198605086
O            0.89520725406565       -0.38252192630801        0.44334829138181
C            2.18217707947577        0.18988000204028        0.73002684043115
C            3.22385818290329       -0.26852354956031       -0.27897719652718
H           -4.18170764158661       -0.33114221372914        1.25688168851139
H           -3.99588149680475       -0.43103688550954       -0.49454179512922
H           -3.42580626323324       -1.75025408699395        0.52970786605461
H           -1.71655537442442       -0.23303053705526        1.53508807392356
H           -2.28536011435259        1.08763924114643        0.50744549947560
H           -1.65243937716460       -0.21322264031921       -1.52019471304572
H           -1.06351732867059       -1.53557050979302       -0.47032807888278
H            2.08919290107238        1.28011510096710        0.71905572875327
H            2.42142357888529       -0.16098929811749        1.73440432741352
H            2.96901764900178        0.09925582588748       -1.27041799996017
H            4.19510583912426        0.12414182965270        0.00359833247665
H            3.26822171502204       -1.35391453516385       -0.30421776079064
20
 energy: -27.122719051075 gnorm: 0.000078713486 xtb: 6.7.1 (edcfbbe)
C           -3.52897959483796       -0.67173789479510        0.45722280320283
C           -2.16862600464376        0.00429216423657        0.56939940548412
C           -1.22394967008982       -0.46046617670740       -0.54929956585908
C            0.09548552298391        0.24869966434242       -0.40680392280385
O            0.38490235798267        1.29115069173333       -0.95726882563608
O            0.89538294145428       -0.38197691188964        0.44322744641581
C            2.18255743883914        0.19012278153332        0.72974465540531
C            3.22386729549951       -0.26967661873606       -0.27901183232172
H           -4.18227852035733       -0.33170121184902        1.25602818219770
H           -3.99543246666095       -0.43356942727733       -0.49517443979464
H           -3.42462591147798       -1.75101093116398        0.53097432045194
H           -1.71712486075821       -0.23131104942445        1.53493244518218
H           -2.28694455408181        1.08815178385813        0.50631251958207
H           -1.65195197878693       -0.21284342187071       -1.52023160033713
H           -1.06281897312729       -1.53470435173133       -0.46982460417914
H            2.09004650053798        1.28038703709258        0.71797609712155
H            2.42160749795566       -0.16013799544455        1.73436125407565
H            2.96810746122927        0.09613560660007       -1.27096871387709
H            4.19511492368081        0.12404308668837        0.00213743574895
H            3.26874723079006       -1.35510062727795       -0.30230341905644
20
 energy: -27.122719144692 gnorm: 0.000117274165 xtb: 6.7.1 (edcfbbe)
C           -3.52882879371232       -0.67267514435853        0.45712142273857
C           -2.16921054879924        0.00495568380724        0.56900926440730
C           -1.22379421188053       -0.45971825705986       -0.54910920054155
C            0.09524131172759        0.25003415203193       -0.40596656952424
O            0.38410743263701        1.29336008242578       -0.95510566522129
O            0.89555862884291       -0.38143189747126        0.44310660144981
C            2.18293779820250        0.19036556102636        0.72946247037947
C            3.22387640809573       -0.27082968791182       -0.27904646811626
H           -4.18284939912806       -0.33226020996890        1.25517467588401
H           -3.99498343651715       -0.43610196904511       -0.49580708446006
H           -3.42344555972273       -1.75176777533402        0.53224077484927
H           -1.71769434709200       -0.22959156179364        1.53477681644080
H           -2.28852899381104        1.08866432656982        0.50517953968854
H           -1.65146458040926       -0.21246420342221       -1.52026848762853
H           -1.06212061758399       -1.53383819366963       -0.46932112947550
H            2.09090010000357        1.28065897321806        0.71689646548983
H            2.42179141702603       -0.15928669277160        1.73431818073778
H            2.96719727345677        0.09301538731266       -1.27151942779402
H            4.19512400823737        0.12394434372405        0.00067653902126
H            3.26927274655808       -1.35628671939206       -0.30038907732224
