 Entering Gaussian System
 *********************************************
 Gaussian 98:
 frequency output generated by the xtb code
 *********************************************
                         Standard orientation:
 --------------------------------------------------------------------
  Center     Atomic     Atomic              Coordinates (Angstroms)
  Number     Number      Type              X           Y           Z
 --------------------------------------------------------------------
    1          6             0        1.957723   -0.688412   -0.176979
    2          6             0        1.082375    0.260844    0.632951
    3          6             0        0.028579    0.974224   -0.214404
    4          6             0       -1.091087    0.049652   -0.692756
    5          7             0       -1.809645   -0.521054    0.439439
    6          1             0        2.735181   -1.112192    0.453893
    7          1             0        1.369377   -1.506438   -0.583007
    8          1             0        2.433135   -0.161032   -1.001620
    9          1             0        0.575055   -0.294872    1.421812
   10          1             0        1.718330    1.015145    1.101692
   11          1             0       -0.417528    1.776374    0.379106
   12          1             0        0.503388    1.428050   -1.086709
   13          1             0       -0.669903   -0.779239   -1.266539
   14          1             0       -1.748538    0.622300   -1.371661
   15          1             0       -2.556494   -1.119502    0.106283
   16          1             0       -2.232017    0.224288    0.983659
 --------------------------------------------------------------------
     1 basis functions        1 primitive gaussians
     1 alpha electrons        1 beta electrons
 
 Harmonic frequencies (cm**-1), IR intensities (km*mol⁻¹),
 Raman scattering activities (A**4/amu), Raman depolarization ratios,
 reduced masses (AMU), force constants (mDyne/A) and normal coordinates:
                      1                      2                      3
                        a                      a                      a 
 Frequencies --    67.5468               135.0902               228.5519
 Red. masses --     8.6152                 5.7792                 3.6290
 Frc consts  --     0.0000                 0.0000                 0.0000
 IR Inten    --     1.1300                 3.4198                24.8560
 Raman Activ --     0.0000                 0.0000                 0.0000
 Depolar     --     0.0000                 0.0000                 0.0000
 Atom AN      X      Y      Z        X      Y      Z        X      Y      Z
   1   6     0.40   0.26  -0.12    -0.06  -0.05  -0.13    -0.27  -0.03  -0.12
   2   6    -0.01  -0.23   0.01     0.27   0.15   0.01    -0.04   0.05   0.01
   3   6     0.01  -0.20   0.00    -0.04  -0.01   0.27    -0.02   0.13   0.06
   4   6    -0.03  -0.18   0.05     0.18  -0.16   0.06     0.23  -0.15   0.02
   5   7    -0.39   0.33   0.09    -0.35   0.08  -0.15     0.13   0.13   0.09
   6   1     0.07   0.02  -0.02     0.17   0.17  -0.14    -0.26  -0.28   0.00
   7   1     0.19   0.11  -0.21    -0.03  -0.15   0.24    -0.17   0.18  -0.27
   8   1     0.18   0.21   0.08    -0.26  -0.11  -0.24     0.15   0.05   0.13
   9   1    -0.02  -0.17  -0.08     0.18   0.10   0.11    -0.03   0.02  -0.00
  10   1    -0.08  -0.07   0.12     0.13   0.08  -0.13     0.03  -0.02   0.01
  11   1     0.01  -0.05  -0.01    -0.06  -0.08   0.14    -0.05  -0.00   0.03
  12   1     0.01  -0.07  -0.00    -0.06   0.09   0.10    -0.01   0.07   0.04
  13   1    -0.01  -0.13   0.12     0.12  -0.08   0.12     0.15  -0.07   0.11
  14   1     0.06  -0.09  -0.08     0.13  -0.09  -0.10     0.08  -0.15  -0.09
  15   1    -0.10   0.08   0.04    -0.03  -0.03  -0.10     0.30  -0.31   0.05
  16   1    -0.11   0.16  -0.08    -0.20   0.05  -0.16    -0.32   0.04  -0.26
                      4                      5                      6
                        a                      a                      a 
 Frequencies --   248.7344               280.8512               392.1298
 Red. masses --     5.5208                 4.5893                 6.6131
 Frc consts  --     0.0000                 0.0000                 0.0000
 IR Inten    --     8.0780                25.9490                 2.9122
 Raman Activ --     0.0000                 0.0000                 0.0000
 Depolar     --     0.0000                 0.0000                 0.0000
 Atom AN      X      Y      Z        X      Y      Z        X      Y      Z
   1   6     0.09  -0.08   0.06     0.29  -0.11   0.13    -0.23   0.21  -0.11
   2   6     0.33   0.27  -0.10     0.10  -0.03  -0.14     0.06   0.06   0.31
   3   6    -0.01  -0.04   0.05     0.03   0.01  -0.06     0.37  -0.13  -0.18
   4   6    -0.10   0.00   0.10    -0.28   0.27   0.07     0.03   0.03   0.18
   5   7    -0.31  -0.21  -0.11    -0.12  -0.04   0.03    -0.19  -0.17  -0.03
   6   1    -0.21  -0.30   0.12     0.09   0.06   0.09     0.01  -0.01  -0.18
   7   1    -0.10   0.18  -0.21     0.13  -0.09   0.10    -0.14   0.11  -0.03
   8   1     0.33  -0.03   0.18     0.07  -0.08   0.00    -0.17   0.13  -0.05
   9   1     0.18   0.16   0.09     0.03   0.01  -0.03    -0.01   0.02   0.07
  10   1     0.14   0.13  -0.18     0.02   0.01  -0.05     0.02   0.01   0.09
  11   1     0.01  -0.01   0.03     0.09   0.03   0.00     0.19   0.18  -0.28
  12   1    -0.07  -0.00  -0.02    -0.02  -0.03  -0.05     0.19  -0.33  -0.15
  13   1    -0.06   0.02  -0.02    -0.13   0.12  -0.07    -0.06   0.01   0.00
  14   1    -0.01   0.05   0.05    -0.11   0.15   0.11     0.03   0.07   0.08
  15   1    -0.20   0.13  -0.11     0.29  -0.41  -0.01     0.00  -0.06  -0.11
  16   1     0.06  -0.07   0.10    -0.46  -0.10  -0.20    -0.13  -0.08  -0.02
                      7                      8                      9
                        a                      a                      a 
 Frequencies --   474.3041               779.7056               839.0901
 Red. masses --     8.0058                 3.2133                 5.5020
 Frc consts  --     0.0000                 0.0000                 0.0000
 IR Inten    --     2.9108                13.3580                28.7890
 Raman Activ --     0.0000                 0.0000                 0.0000
 Depolar     --     0.0000                 0.0000                 0.0000
 Atom AN      X      Y      Z        X      Y      Z        X      Y      Z
   1   6    -0.06   0.11   0.01     0.01   0.08   0.05     0.20  -0.11  -0.07
   2   6     0.16   0.03   0.26     0.21   0.19  -0.01     0.22   0.06   0.25
   3   6    -0.08  -0.45   0.11     0.20   0.00  -0.14    -0.19   0.24   0.07
   4   6    -0.24  -0.03  -0.35     0.02  -0.14  -0.07    -0.31   0.02  -0.14
   5   7     0.22   0.24  -0.04    -0.10  -0.06   0.11     0.01   0.04  -0.13
   6   1     0.01  -0.06  -0.09    -0.03  -0.11  -0.04     0.05  -0.17  -0.11
   7   1    -0.09   0.10  -0.03    -0.26   0.12   0.19    -0.15   0.06   0.09
   8   1    -0.06   0.08   0.01     0.00  -0.19  -0.12     0.04  -0.16  -0.11
   9   1     0.18   0.06   0.20    -0.19  -0.18  -0.32     0.05  -0.16  -0.06
  10   1     0.04   0.13  -0.10    -0.12  -0.06   0.41    -0.02  -0.03   0.24
  11   1    -0.09  -0.17   0.04    -0.11  -0.21   0.13     0.04   0.23  -0.14
  12   1     0.03  -0.05   0.10    -0.09   0.28   0.03     0.02  -0.15  -0.06
  13   1    -0.21  -0.00  -0.22    -0.19  -0.03  -0.16     0.15  -0.04   0.18
  14   1    -0.06   0.14   0.02    -0.03   0.11   0.14    -0.05  -0.22  -0.26
  15   1     0.10  -0.09   0.18    -0.05   0.02   0.01     0.03  -0.15   0.20
  16   1     0.05   0.10  -0.07    -0.04   0.05  -0.07     0.11  -0.08   0.16
                     10                     11                     12
                        a                      a                      a 
 Frequencies --   893.0266               923.3418               972.7581
 Red. masses --     6.0247                 4.0251                 5.4510
 Frc consts  --     0.0000                 0.0000                 0.0000
 IR Inten    --    12.4719                89.9755                21.0723
 Raman Activ --     0.0000                 0.0000                 0.0000
 Depolar     --     0.0000                 0.0000                 0.0000
 Atom AN      X      Y      Z        X      Y      Z        X      Y      Z
   1   6     0.05  -0.17   0.09    -0.13   0.12   0.12    -0.23   0.13  -0.08
   2   6     0.08  -0.09   0.22     0.02  -0.04  -0.14     0.04   0.01  -0.11
   3   6     0.16   0.33  -0.25     0.21  -0.20  -0.12     0.30   0.17   0.22
   4   6    -0.12  -0.05  -0.24    -0.07   0.13   0.12    -0.09  -0.18  -0.24
   5   7    -0.13  -0.13   0.18    -0.06   0.15  -0.20    -0.20  -0.08   0.02
   6   1     0.19  -0.07  -0.22    -0.01   0.03   0.00    -0.18   0.27   0.29
   7   1     0.12  -0.01  -0.18    -0.04   0.04   0.01     0.16  -0.13   0.00
   8   1    -0.18   0.29   0.12    -0.07   0.07   0.04     0.13  -0.06   0.03
   9   1    -0.11   0.22   0.15    -0.07   0.05  -0.04     0.05  -0.04  -0.04
  10   1     0.17  -0.06  -0.07    -0.02   0.01  -0.04     0.17  -0.14  -0.00
  11   1    -0.04  -0.08   0.10     0.05  -0.22   0.19     0.09   0.10  -0.01
  12   1     0.03   0.32   0.05    -0.06   0.17   0.03     0.19  -0.02   0.08
  13   1    -0.03  -0.05  -0.01    -0.03  -0.15   0.28    -0.04  -0.01  -0.12
  14   1    -0.12  -0.12  -0.05     0.15  -0.04  -0.21     0.01   0.04  -0.02
  15   1    -0.07  -0.00   0.06     0.16  -0.22   0.08    -0.07  -0.20   0.39
  16   1    -0.03   0.00   0.00     0.07  -0.32   0.48     0.12   0.05   0.03
                     13                     14                     15
                        a                      a                      a 
 Frequencies --  1003.1166              1040.8610              1078.6066
 Red. masses --     5.6985                 4.7815                 4.7466
 Frc consts  --     0.0000                 0.0000                 0.0000
 IR Inten    --    48.6805                 1.6738                 2.4368
 Raman Activ --     0.0000                 0.0000                 0.0000
 Depolar     --     0.0000                 0.0000                 0.0000
 Atom AN      X      Y      Z        X      Y      Z        X      Y      Z
   1   6     0.06  -0.22  -0.03     0.15  -0.16  -0.29     0.23  -0.02   0.06
   2   6    -0.01   0.16   0.06    -0.21   0.16   0.25    -0.31  -0.02  -0.15
   3   6    -0.10   0.08   0.05    -0.02   0.05  -0.07     0.06   0.00   0.06
   4   6     0.09  -0.26   0.29     0.18   0.03  -0.09     0.25   0.05  -0.08
   5   7    -0.02   0.17  -0.33    -0.09   0.05   0.12    -0.24  -0.09   0.07
   6   1     0.11  -0.01  -0.09    -0.04   0.03   0.08     0.10  -0.23  -0.20
   7   1     0.14  -0.07  -0.14     0.10  -0.11  -0.02    -0.21   0.16   0.07
   8   1    -0.07   0.14   0.06     0.17  -0.17  -0.08    -0.07  -0.04  -0.08
   9   1    -0.22   0.13  -0.06     0.08  -0.02   0.11     0.00   0.07   0.06
  10   1     0.10  -0.10   0.11    -0.05   0.07   0.01    -0.26   0.23  -0.18
  11   1    -0.11   0.05  -0.10    -0.37  -0.05  -0.21     0.10   0.03   0.05
  12   1    -0.25  -0.07  -0.16     0.26   0.09   0.17     0.13  -0.01   0.07
  13   1    -0.14   0.02  -0.16    -0.24  -0.15   0.00     0.15   0.14  -0.14
  14   1     0.12   0.24   0.20     0.09   0.12   0.03     0.10   0.11   0.03
  15   1     0.06  -0.18   0.23     0.08  -0.03  -0.12    -0.06  -0.20   0.37
  16   1     0.17   0.02   0.06    -0.09  -0.21   0.28     0.12   0.05   0.04
                     16                     17                     18
                        a                      a                      a 
 Frequencies --  1135.8467              1148.8291              1174.6197
 Red. masses --     7.3685                 8.1882                 6.0630
 Frc consts  --     0.0000                 0.0000                 0.0000
 IR Inten    --    14.1115                12.7536                13.5335
 Raman Activ --     0.0000                 0.0000                 0.0000
 Depolar     --     0.0000                 0.0000                 0.0000
 Atom AN      X      Y      Z        X      Y      Z        X      Y      Z
   1   6     0.01  -0.23  -0.17     0.15  -0.04  -0.16     0.03  -0.04   0.24
   2   6    -0.07   0.43   0.03    -0.30   0.12   0.05    -0.01   0.07  -0.39
   3   6     0.09  -0.34   0.19     0.32   0.07   0.10     0.01   0.10   0.39
   4   6    -0.05   0.23  -0.21    -0.36  -0.24   0.25    -0.05  -0.15  -0.19
   5   7     0.01  -0.13   0.18     0.19   0.05  -0.26     0.08   0.04   0.09
   6   1     0.04   0.05  -0.01    -0.01  -0.05  -0.01     0.13  -0.09  -0.16
   7   1     0.18  -0.13  -0.14    -0.03   0.00   0.02    -0.08   0.11  -0.05
   8   1     0.02   0.04   0.03     0.08  -0.13  -0.09    -0.18   0.16   0.05
   9   1    -0.34   0.19  -0.14    -0.10   0.15   0.08    -0.06   0.01  -0.15
  10   1    -0.06   0.04   0.18    -0.13   0.14  -0.07     0.03  -0.06  -0.01
  11   1     0.12  -0.05   0.07     0.19  -0.02   0.17    -0.01   0.17  -0.12
  12   1    -0.08  -0.11  -0.02     0.18   0.10   0.13     0.20  -0.18   0.09
  13   1     0.18   0.05   0.10    -0.13  -0.11   0.10    -0.30  -0.24   0.02
  14   1     0.10   0.00  -0.19    -0.15  -0.14   0.04     0.09   0.08  -0.05
  15   1    -0.07   0.05   0.03     0.00   0.07  -0.08     0.05   0.10  -0.22
  16   1    -0.05   0.02  -0.05     0.04   0.09  -0.17    -0.11  -0.11   0.09
                     19                     20                     21
                        a                      a                      a 
 Frequencies --  1242.7478              1264.5999              1282.1237
 Red. masses --     3.5427                 3.4317                 2.2129
 Frc consts  --     0.0000                 0.0000                 0.0000
 IR Inten    --     5.1626                17.1992                 1.9320
 Raman Activ --     0.0000                 0.0000                 0.0000
 Depolar     --     0.0000                 0.0000                 0.0000
 Atom AN      X      Y      Z        X      Y      Z        X      Y      Z
   1   6    -0.17  -0.21   0.11     0.01   0.01   0.06     0.10   0.13   0.04
   2   6     0.13   0.22  -0.13    -0.02  -0.03  -0.04    -0.00  -0.01  -0.12
   3   6    -0.01  -0.07  -0.08     0.03   0.01  -0.08    -0.04  -0.19   0.02
   4   6    -0.03   0.02   0.18    -0.15   0.22   0.19    -0.04   0.08   0.12
   5   7    -0.03   0.03  -0.11     0.11  -0.26  -0.06    -0.03   0.04  -0.06
   6   1     0.09   0.06  -0.06     0.02  -0.02  -0.02    -0.01  -0.07  -0.02
   7   1     0.15  -0.09  -0.19    -0.02   0.03  -0.00    -0.10   0.08   0.09
   8   1    -0.11   0.20   0.14    -0.03   0.01  -0.00     0.01  -0.07  -0.07
   9   1     0.25  -0.31  -0.15     0.08  -0.07   0.00    -0.31   0.25  -0.05
  10   1    -0.25   0.19   0.13     0.06  -0.06  -0.03     0.36  -0.31  -0.03
  11   1    -0.12  -0.05  -0.07    -0.30  -0.06  -0.16    -0.33  -0.08  -0.19
  12   1     0.36   0.07   0.22     0.06   0.08   0.05     0.32  -0.02   0.20
  13   1     0.15   0.12  -0.01    -0.14  -0.16   0.29     0.24   0.19  -0.02
  14   1    -0.20  -0.14   0.10     0.39   0.23  -0.23    -0.21  -0.16   0.07
  15   1     0.01  -0.05   0.05    -0.16   0.01   0.24     0.01  -0.02   0.02
  16   1     0.07   0.05  -0.03     0.06   0.22  -0.34     0.04   0.01   0.01
                     22                     23                     24
                        a                      a                      a 
 Frequencies --  1342.2567              1356.2794              1362.0181
 Red. masses --     3.9621                 4.9038                 4.5582
 Frc consts  --     0.0000                 0.0000                 0.0000
 IR Inten    --    14.3662                 7.9178                15.4865
 Raman Activ --     0.0000                 0.0000                 0.0000
 Depolar     --     0.0000                 0.0000                 0.0000
 Atom AN      X      Y      Z        X      Y      Z        X      Y      Z
   1   6     0.03   0.02   0.09    -0.05   0.02  -0.09    -0.00  -0.01  -0.02
   2   6    -0.27   0.27   0.03     0.33  -0.18   0.04     0.01  -0.10  -0.03
   3   6    -0.14  -0.05  -0.20    -0.38   0.04  -0.17     0.28   0.07   0.09
   4   6    -0.11  -0.16   0.02    -0.05  -0.14   0.08    -0.35  -0.26   0.01
   5   7     0.02   0.03   0.07     0.02   0.00   0.03     0.05   0.09   0.11
   6   1     0.08  -0.11  -0.13    -0.05   0.09   0.08    -0.03   0.01   0.03
   7   1     0.06  -0.00  -0.05    -0.01  -0.02   0.05    -0.03   0.00   0.03
   8   1     0.01  -0.09  -0.05     0.05   0.04   0.04    -0.02   0.05   0.02
   9   1     0.27  -0.21   0.02    -0.30   0.24  -0.03     0.03  -0.01   0.02
  10   1     0.36  -0.32   0.05    -0.17   0.15   0.04    -0.15   0.13  -0.05
  11   1     0.30  -0.03   0.22     0.25   0.09   0.11    -0.29  -0.02  -0.19
  12   1     0.14   0.05   0.08     0.38   0.04   0.23    -0.14   0.07  -0.07
  13   1     0.16   0.12  -0.08     0.03   0.03  -0.04     0.41   0.31  -0.17
  14   1     0.24   0.20  -0.06     0.27   0.23  -0.05     0.27   0.20  -0.12
  15   1     0.04   0.03  -0.09     0.02   0.01  -0.04     0.05   0.08  -0.17
  16   1    -0.03  -0.03   0.05    -0.00  -0.00   0.01    -0.08  -0.08   0.10
                     25                     26                     27
                        a                      a                      a 
 Frequencies --  1408.8590              1473.7248              1478.4977
 Red. masses --     3.2514                 1.9180                 1.8960
 Frc consts  --     0.0000                 0.0000                 0.0000
 IR Inten    --     0.8169                 0.2139                 4.4967
 Raman Activ --     0.0000                 0.0000                 0.0000
 Depolar     --     0.0000                 0.0000                 0.0000
 Atom AN      X      Y      Z        X      Y      Z        X      Y      Z
   1   6     0.26  -0.27  -0.21     0.03  -0.00   0.01     0.02   0.06   0.02
   2   6    -0.09   0.08  -0.02     0.00   0.04   0.19    -0.00  -0.05  -0.18
   3   6    -0.02  -0.04  -0.03    -0.01  -0.20   0.05    -0.01  -0.17   0.03
   4   6     0.01   0.01   0.02     0.01  -0.01   0.01    -0.01  -0.03  -0.11
   5   7    -0.01  -0.00   0.00    -0.02  -0.00   0.00    -0.01   0.00  -0.02
   6   1    -0.15   0.25   0.38    -0.04  -0.02   0.04    -0.09  -0.12   0.03
   7   1    -0.42   0.19   0.19    -0.00   0.01  -0.01     0.10  -0.05  -0.04
   8   1    -0.24   0.43   0.13    -0.06   0.01  -0.03    -0.10  -0.03  -0.08
   9   1     0.12  -0.02   0.06    -0.19  -0.28  -0.31     0.19   0.25   0.29
  10   1     0.07  -0.11   0.09     0.16   0.13  -0.42    -0.14  -0.13   0.39
  11   1     0.06   0.01   0.02     0.19   0.33  -0.30     0.13   0.26  -0.27
  12   1     0.00   0.03   0.02    -0.15   0.44   0.16    -0.13   0.36   0.12
  13   1    -0.01   0.02  -0.03    -0.02  -0.01  -0.01     0.13  -0.09   0.23
  14   1     0.01  -0.04  -0.03    -0.01  -0.02  -0.00    -0.09   0.16   0.23
  15   1     0.00  -0.01  -0.00     0.03  -0.02  -0.03     0.01  -0.01  -0.00
  16   1     0.01   0.01  -0.00     0.04   0.03  -0.00     0.02   0.01  -0.01
                     28                     29                     30
                        a                      a                      a 
 Frequencies --  1487.4895              1499.3607              1508.5087
 Red. masses --     1.8576                 1.5896                 1.5864
 Frc consts  --     0.0000                 0.0000                 0.0000
 IR Inten    --     3.1838                 1.1368                 1.7546
 Raman Activ --     0.0000                 0.0000                 0.0000
 Depolar     --     0.0000                 0.0000                 0.0000
 Atom AN      X      Y      Z        X      Y      Z        X      Y      Z
   1   6    -0.05  -0.02   0.06    -0.16  -0.05  -0.12    -0.04  -0.15   0.12
   2   6    -0.01  -0.03  -0.08    -0.06   0.00  -0.04     0.00  -0.04   0.04
   3   6     0.00  -0.09   0.03     0.01  -0.05   0.02     0.00   0.01  -0.01
   4   6     0.04   0.07   0.21    -0.00  -0.00  -0.02    -0.02  -0.03  -0.09
   5   7    -0.03  -0.02   0.05     0.00   0.00  -0.01     0.01   0.01  -0.02
   6   1     0.12   0.16  -0.04     0.31   0.13  -0.32     0.27   0.52   0.02
   7   1    -0.03   0.11  -0.17    -0.19  -0.08   0.40    -0.24   0.38  -0.42
   8   1     0.08  -0.15  -0.04     0.55   0.15   0.41     0.11  -0.28  -0.10
   9   1     0.08   0.15   0.15     0.03   0.01   0.03    -0.03   0.00  -0.00
  10   1    -0.07  -0.07   0.19     0.02  -0.05   0.02     0.01   0.01  -0.04
  11   1     0.06   0.13  -0.13     0.03   0.08  -0.08    -0.00  -0.00   0.00
  12   1    -0.06   0.17   0.07    -0.05   0.11   0.03    -0.01   0.00  -0.01
  13   1    -0.28   0.17  -0.44     0.02  -0.03   0.06     0.14  -0.05   0.18
  14   1     0.13  -0.34  -0.44    -0.02   0.03   0.05    -0.05   0.14   0.18
  15   1     0.05  -0.03  -0.06    -0.00  -0.00   0.00    -0.02   0.01   0.02
  16   1     0.07   0.05  -0.01     0.00   0.00  -0.00    -0.03  -0.02   0.01
                     31                     32                     33
                        a                      a                      a 
 Frequencies --  1544.8771              2783.7370              2953.3748
 Red. masses --     2.0727                 1.7252                 1.8576
 Frc consts  --     0.0000                 0.0000                 0.0000
 IR Inten    --    41.7710               213.1172                44.8317
 Raman Activ --     0.0000                 0.0000                 0.0000
 Depolar     --     0.0000                 0.0000                 0.0000
 Atom AN      X      Y      Z        X      Y      Z        X      Y      Z
   1   6     0.00   0.00   0.00    -0.00  -0.00   0.00    -0.00  -0.00   0.00
   2   6    -0.00   0.00  -0.00    -0.00  -0.00   0.00     0.04   0.03   0.02
   3   6    -0.02  -0.03  -0.01    -0.01  -0.00  -0.00     0.13  -0.12  -0.20
   4   6     0.06  -0.04   0.06    -0.17   0.15  -0.12    -0.02   0.04   0.03
   5   7     0.22   0.06  -0.15     0.01   0.01  -0.02    -0.00   0.00   0.00
   6   1    -0.00  -0.01   0.00    -0.00   0.00  -0.00    -0.00   0.00  -0.00
   7   1     0.01  -0.00  -0.00     0.00  -0.00  -0.00     0.00   0.01   0.00
   8   1    -0.00  -0.00  -0.00     0.00   0.00  -0.00     0.00   0.01  -0.01
   9   1     0.01  -0.00   0.00     0.00  -0.00   0.00     0.02   0.02  -0.02
  10   1     0.00  -0.01   0.01     0.00   0.01   0.00    -0.13  -0.15  -0.09
  11   1     0.04   0.05  -0.04    -0.01   0.01   0.01    -0.34   0.61   0.45
  12   1     0.00   0.07   0.03     0.01   0.01  -0.02    -0.14  -0.17   0.27
  13   1    -0.01   0.06  -0.10     0.01  -0.05  -0.08     0.10  -0.19  -0.13
  14   1    -0.01  -0.06  -0.01     0.58  -0.51   0.57    -0.02   0.02  -0.01
  15   1    -0.41   0.28   0.43     0.00  -0.01   0.00    -0.00  -0.00  -0.00
  16   1    -0.57  -0.36   0.05     0.00  -0.00   0.01    -0.00  -0.00   0.00
                     34                     35                     36
                        a                      a                      a 
 Frequencies --  2963.9444              2969.7169              2975.6722
 Red. masses --     1.7989                 1.7122                 1.5523
 Frc consts  --     0.0000                 0.0000                 0.0000
 IR Inten    --    51.4797               132.0582               100.2413
 Raman Activ --     0.0000                 0.0000                 0.0000
 Depolar     --     0.0000                 0.0000                 0.0000
 Atom AN      X      Y      Z        X      Y      Z        X      Y      Z
   1   6    -0.01  -0.00  -0.00    -0.01  -0.01  -0.01    -0.01  -0.00   0.00
   2   6     0.15   0.18   0.06     0.02   0.03   0.01     0.05   0.06   0.03
   3   6    -0.04  -0.03   0.08    -0.04   0.03   0.07     0.05   0.17  -0.11
   4   6     0.01  -0.04  -0.02    -0.08   0.17   0.13    -0.00   0.00  -0.01
   5   7     0.00  -0.00  -0.00    -0.00  -0.00   0.01     0.00   0.00   0.00
   6   1     0.02  -0.02   0.02     0.01  -0.00   0.01     0.01  -0.01   0.01
   7   1     0.02   0.04   0.02     0.02   0.03   0.01     0.01   0.01   0.01
   8   1     0.01   0.01  -0.03     0.00   0.00  -0.00     0.01   0.01  -0.02
   9   1    -0.06  -0.07   0.14    -0.02  -0.02   0.03     0.01   0.02  -0.01
  10   1    -0.50  -0.59  -0.36    -0.07  -0.08  -0.05    -0.19  -0.22  -0.14
  11   1    -0.00  -0.02   0.00     0.10  -0.17  -0.13     0.19  -0.29  -0.26
  12   1     0.16   0.14  -0.29     0.06   0.07  -0.11    -0.36  -0.31   0.65
  13   1    -0.08   0.14   0.09     0.37  -0.70  -0.46    -0.01   0.02   0.01
  14   1     0.01  -0.02   0.01    -0.06   0.08  -0.03     0.02  -0.01   0.02
  15   1     0.00   0.00   0.00     0.00  -0.00   0.00     0.00   0.00  -0.00
  16   1     0.00  -0.00  -0.00    -0.01   0.01   0.01     0.00  -0.00  -0.00
                     37                     38                     39
                        a                      a                      a 
 Frequencies --  3002.3413              3021.6132              3032.5084
 Red. masses --     1.6623                 1.8431                 1.8355
 Frc consts  --     0.0000                 0.0000                 0.0000
 IR Inten    --    28.8738               109.1821                78.5471
 Raman Activ --     0.0000                 0.0000                 0.0000
 Depolar     --     0.0000                 0.0000                 0.0000
 Atom AN      X      Y      Z        X      Y      Z        X      Y      Z
   1   6     0.01   0.04  -0.05     0.07   0.15  -0.20     0.24   0.01   0.14
   2   6    -0.09  -0.10   0.19     0.03   0.04  -0.05     0.01   0.01   0.02
   3   6    -0.01  -0.01   0.03     0.00   0.00  -0.01    -0.00   0.00   0.00
   4   6    -0.00  -0.00   0.00    -0.00   0.00  -0.00    -0.00   0.00   0.00
   5   7    -0.00  -0.00  -0.00     0.00   0.00   0.00     0.00  -0.00  -0.00
   6   1     0.07  -0.03   0.05     0.16  -0.06   0.10    -0.60   0.35  -0.52
   7   1    -0.02  -0.01  -0.02    -0.03  -0.03  -0.06    -0.19  -0.29  -0.12
   8   1    -0.10  -0.11   0.17    -0.39  -0.45   0.68    -0.04  -0.09   0.16
   9   1     0.43   0.48  -0.65    -0.12  -0.13   0.17     0.01   0.01  -0.02
  10   1    -0.11  -0.12  -0.04     0.01   0.01  -0.00    -0.04  -0.05  -0.03
  11   1     0.01  -0.02  -0.01    -0.00   0.01   0.00     0.01  -0.01  -0.01
  12   1     0.04   0.03  -0.07    -0.01  -0.01   0.03     0.00   0.00  -0.00
  13   1    -0.00   0.00   0.00     0.00  -0.00  -0.00     0.00  -0.01  -0.01
  14   1    -0.00   0.00   0.00     0.00  -0.00   0.00    -0.00   0.00  -0.00
  15   1     0.00   0.00   0.00    -0.00  -0.00  -0.00    -0.00  -0.00   0.00
  16   1     0.00   0.00   0.00    -0.00  -0.00  -0.00    -0.00   0.00   0.00
                     40                     41                     42
                        a                      a                      a 
 Frequencies --  3046.9067              3390.8446              3429.0580
 Red. masses --     1.4590                 1.5519                 2.0416
 Frc consts  --     0.0000                 0.0000                 0.0000
 IR Inten    --    50.7995                10.5097                 5.9450
 Raman Activ --     0.0000                 0.0000                 0.0000
 Depolar     --     0.0000                 0.0000                 0.0000
 Atom AN      X      Y      Z        X      Y      Z        X      Y      Z
   1   6    -0.04  -0.19  -0.06    -0.00  -0.00  -0.00    -0.00  -0.00  -0.00
   2   6    -0.01  -0.01   0.00    -0.00  -0.00  -0.00     0.00  -0.00  -0.00
   3   6     0.00   0.00  -0.00    -0.00   0.00  -0.00     0.00   0.00   0.00
   4   6     0.00  -0.00  -0.00     0.01  -0.01  -0.00    -0.00  -0.00  -0.01
   5   7    -0.00   0.00  -0.00     0.17  -0.08  -0.09    -0.11  -0.22  -0.13
   6   1    -0.27   0.11  -0.23     0.00  -0.00   0.00    -0.00   0.00   0.00
   7   1     0.50   0.65   0.33     0.00   0.00   0.00    -0.00   0.00   0.00
   8   1    -0.08  -0.10   0.11    -0.00  -0.00   0.00    -0.00   0.00   0.00
   9   1     0.01   0.01  -0.02     0.00   0.00  -0.00     0.00  -0.00   0.00
  10   1     0.02   0.02   0.01    -0.00  -0.00   0.00     0.00   0.00   0.00
  11   1    -0.00  -0.00   0.00     0.00  -0.00  -0.00    -0.00   0.00   0.00
  12   1    -0.00  -0.00   0.00    -0.00  -0.00   0.00    -0.00  -0.00   0.00
  13   1    -0.01   0.02   0.01    -0.00   0.01   0.00    -0.00   0.01   0.00
  14   1     0.00  -0.00   0.00    -0.00   0.00   0.00     0.00  -0.00   0.00
  15   1     0.00   0.00   0.00    -0.32  -0.31  -0.16     0.62   0.51   0.27
  16   1     0.00  -0.00  -0.00    -0.32   0.63   0.48    -0.20   0.33   0.24
