22
 energy: -23.418969385296 gnorm: 0.030607586676 xtb: 6.7.1 (edcfbbe)
C            2.30652222694352        0.91997564709218       -0.72150940577265
C            1.16895997621753        0.44970205750640        0.17911660063810
C            1.62998698543588       -0.72894238109231        1.04170801201820
N           -0.00456565833912        0.16042074160701       -0.67425927908220
C           -1.17458626261191       -0.41878016399104        0.01960543567260
C           -2.22925306024479       -0.76540853562017       -1.02548857003767
C           -1.73490397273869        0.55030854754093        1.05363134420859
H            2.00979639024091        1.78816193140379       -1.31825268169223
H            3.18142646779803        1.19636151015264       -0.12517976665278
H            2.60735593566839        0.11837231930429       -1.40824700114921
H            0.89640649967500        1.27930744494867        0.84439877922773
H            1.86215964238406       -1.59592611236623        0.40979121389731
H            0.87158439007042       -1.03002306854962        1.77089829157528
H            2.53493670088190       -0.46176471565429        1.59820458088817
H            0.30161904758835       -0.53587158238037       -1.35295464336386
H           -0.90835389996015       -1.35393051995692        0.54223893418692
H           -1.82193289618555       -1.44267349390889       -1.78497122756712
H           -3.08427485675624       -1.26204970734911       -0.55640607349183
H           -2.59074893142339        0.13759802952321       -1.52998580576994
H           -2.63824800423361        0.12925721483220        1.50620268973280
H           -2.00066501664969        1.50567438266626        0.58551906871735
H           -1.02336270207760        0.74952636204805        1.86068475705260
22
 energy: -23.420253857216 gnorm: 0.013143593953 xtb: 6.7.1 (edcfbbe)
C            2.29872682867844        0.91533061052181       -0.72287012933270
C            1.16803343579459        0.44473707762451        0.18675015010932
C            1.64586002377701       -0.73334272887962        1.04154546223660
N           -0.00008526005348        0.14372907891538       -0.65123089339520
C           -1.17384359398806       -0.42494574136915        0.02711821617103
C           -2.22630825770192       -0.75724931228592       -1.02641172756366
C           -1.74292225523200        0.55242357865975        1.04940917731028
H            1.98214339905292        1.77141114167885       -1.31495291765005
H            3.16505069587644        1.20336711863129       -0.12923314904791
H            2.60042263738215        0.11850744038812       -1.40418658536057
H            0.88552624192416        1.27386278508138        0.84621108308150
H            1.87371589422810       -1.59595034094344        0.41264968874429
H            0.89257529043944       -1.02662331092177        1.77104313587883
H            2.54728948487602       -0.45643238233412        1.58592677159746
H            0.29840152785286       -0.52986079511035       -1.35498401902459
H           -0.91483754532022       -1.36364198582488        0.54862959794105
H           -1.81964080213978       -1.43300578838093       -1.77859874905316
H           -3.08287993270208       -1.24219451427560       -0.56019620150960
H           -2.56621412078094        0.14797405512451       -1.52686797451609
H           -2.64916909030311        0.13780780714124        1.48931713647346
H           -1.98722949270068        1.50066932421098        0.57199764477055
H           -1.03475610727663        0.74272279010468        1.85367953537529
22
 energy: -23.420709092169 gnorm: 0.004271333984 xtb: 6.7.1 (edcfbbe)
C            2.28539167250034        0.91629953542020       -0.72640171768083
C            1.16556504942498        0.43254451831801        0.19279098303421
C            1.66473841639140       -0.73971953342394        1.04876106338757
N            0.00209961256827        0.12637673774352       -0.63210640024973
C           -1.17319974055250       -0.43170859032117        0.03393100000178
C           -2.22113832404384       -0.75088581459879       -1.03143124190403
C           -1.74709450563263        0.55607050789142        1.04683650802689
H            1.94665425591695        1.76019060637197       -1.31858438752090
H            3.14569877802213        1.21998861160640       -0.13727704109837
H            2.59032404788322        0.11967214213613       -1.39983995880724
H            0.87916338440526        1.25892688566549        0.85237089848600
H            1.88831554804137       -1.59639294625832        0.41719048366628
H            0.91950223473326       -1.03267540505020        1.78288895153527
H            2.56786743669318       -0.45320469869754        1.57848941199453
H            0.29046932475396       -0.52359946953861       -1.36113061494476
H           -0.92999084102990       -1.37371695770078        0.56111075579971
H           -1.81668027046679       -1.43089661464734       -1.77618858027280
H           -3.08599189540958       -1.21851928737266       -0.56977975726131
H           -2.53434880196458        0.16099707522862       -1.52974778002519
H           -2.66253590782105        0.15260243740736        1.47009637265205
H           -1.96744069563465        1.49891637318760        0.55605539032769
H           -1.04750977709556        0.73802979438937        1.85671091408928
22
 energy: -23.420843851296 gnorm: 0.003407816985 xtb: 6.7.1 (edcfbbe)
C            2.27618773621330        0.91906010546155       -0.72772702727514
C            1.16417361130500        0.42580620342019        0.19799396268391
C            1.67806537000606       -0.74509865186070        1.05111512027899
N            0.00299268976155        0.11434434105945       -0.62138638989795
C           -1.17439966561933       -0.43696610874352        0.03834902419897
C           -2.21860593663118       -0.74819430769656       -1.03474182377979
C           -1.74980387815540        0.55911745241050        1.04456348385431
H            1.92068852962614        1.75435633148426       -1.32283100754647
H            3.13449983781206        1.23879712573386       -0.14411759837791
H            2.58800206405385        0.12184926834374       -1.39757017528338
H            0.87714596185474        1.24884523748783        0.86209431625125
H            1.90132254949773       -1.60093216022286        0.41812941987780
H            0.93989377297523       -1.04116996876723        1.79145364659336
H            2.58387700413829       -0.45139379362715        1.57231562921386
H            0.28665900199843       -0.52399395288650       -1.36072786356400
H           -0.94325493873369       -1.37987563515719        0.57216199329129
H           -1.81583419614491       -1.43638702128542       -1.77299179218365
H           -3.09501014411112       -1.20093559211875       -0.57969266266732
H           -2.51156208414689        0.16813938557925       -1.53819917389402
H           -2.67596075912110        0.16747388133259        1.45580424609594
H           -1.95099087352901        1.50323406573026        0.54742870712280
H           -1.05822665136655        0.73321970207921        1.86332121824322
22
 energy: -23.420925690500 gnorm: 0.002859289046 xtb: 6.7.1 (edcfbbe)
C            2.26826189907038        0.92354794640672       -0.72794615084400
C            1.16405866981951        0.41994297054816        0.20221492573776
C            1.68905465464632       -0.75081186016366        1.05065356763887
N            0.00301858261303        0.10568543538659       -0.61398110182058
C           -1.17696089486166       -0.43942139231877        0.04239079757491
C           -2.21577222978604       -0.74780576149070       -1.03689352086159
C           -1.75290611558903        0.56326865390643        1.04273019987341
H            1.89871321470117        1.75021624710898       -1.32786380553611
H            3.12461499586960        1.26004073548961       -0.14978689970695
H            2.58990839593856        0.12598462637297       -1.39440851127720
H            0.87730496700803        1.23826102515908        0.87295877189467
H            1.91191222239695       -1.60618217997381        0.41537547611712
H            0.95747344190300       -1.05169053603869        1.79675841741665
H            2.59807529951957       -0.45346986775218        1.56563798569888
H            0.28406982123978       -0.52651409514927       -1.35729725613528
H           -0.95454758875306       -1.38162602921188        0.58254991306397
H           -1.81485406468077       -1.44769276268231       -1.76657621512252
H           -3.10404767259000       -1.18519857695206       -0.58838052461540
H           -2.49125948528730        0.16914582037571       -1.55083830775635
H           -2.69052932877651        0.18429440170662        1.44173333179952
H           -1.93531410203322        1.51109566819134        0.54354776110052
H           -1.07041568068511        0.72822543883795        1.87216639899574
22
 energy: -23.420979627771 gnorm: 0.003167302385 xtb: 6.7.1 (edcfbbe)
C            2.26134856126381        0.92897875370515       -0.72661210238657
C            1.16460842259868        0.41490616918307        0.20616139775445
C            1.69869985084055       -0.75691484325219        1.04745794032595
N            0.00290054852504        0.09936284369635       -0.60857420443581
C           -1.18014288261458       -0.44016132446968        0.04607422218988
C           -2.21356043525020       -0.74875166956239       -1.03761025806947
C           -1.75592336873173        0.56858476758802        1.04026819335651
H            1.87953871588133        1.74680011802346       -1.33177073179956
H            3.11416167556072        1.28194779921977       -0.15231458880001
H            2.59471357389349        0.13199425917080       -1.38940919739353
H            0.87691232422675        1.22780034884135        0.88352476592559
H            1.92163035803747       -1.61076318464458        0.40895328487765
H            0.97270115084329       -1.06351221049276        1.79743671043081
H            2.61011508044709       -0.45816402952548        1.55847338115713
H            0.28297891652234       -0.53144404720871       -1.35203491892150
H           -0.96351311561372       -1.38057262950672        0.59198086854092
H           -1.81495900520523       -1.46237061389071       -1.75652811975902
H           -3.11224335906188       -1.17038959292335       -0.59385776547453
H           -2.47351023593684        0.16571131307033       -1.56518312109716
H           -2.70431094891882        0.20228857635675        1.42691211746845
H           -1.91967886972727        1.52067106991568        0.54137990481975
H           -1.08260795589710        0.72329403446268        1.88001747452609
22
 energy: -23.421026335508 gnorm: 0.003360596795 xtb: 6.7.1 (edcfbbe)
C            2.25508887484215        0.93592936232891       -0.72354765929161
C            1.16536983695927        0.40992700645770        0.20986440618854
C            1.70771180596513       -0.76386017524101        1.04191789768489
N            0.00299175537441        0.09353553199574       -0.60475302386447
C           -1.18359616681581       -0.43996800570140        0.04958132889567
C           -2.21221926876313       -0.75089517194721       -1.03706138407370
C           -1.75846517202117        0.57534691613047        1.03693526349312
H            1.86134442491967        1.74424879328599       -1.33395100338940
H            3.10207381033233        1.30575931231589       -0.15109069853220
H            2.60218206309656        0.14073129147913       -1.38214057888905
H            0.87479118465392        1.21651929273168        0.89355989754338
H            1.93179772949765       -1.61415251401997        0.39850281953729
H            0.98655802595372       -1.07789554334959        1.79377720425778
H            2.62047621639483       -0.46453436292673        1.55071614235762
H            0.28329321970270       -0.54048307366038       -1.34502563402259
H           -0.97105567551168       -1.37781399592627        0.60105797785130
H           -1.81724895871105       -1.47995860718492       -1.74318085775784
H           -3.12019871978496       -1.15510250038021       -0.59593799623849
H           -2.45671584891696        0.15903055065479       -1.58014036243960
H           -2.71737569120707        0.22270292497082        1.41049116721016
H           -1.90221680239353        1.53122733497650        0.53861809517554
H           -1.09472764188380        0.71900154076698        1.88655225153965
22
 energy: -23.421069874408 gnorm: 0.002645622867 xtb: 6.7.1 (edcfbbe)
C            2.25054121761123        0.94388277814935       -0.71884535120013
C            1.16571419523451        0.40572751200511        0.21257542264116
C            1.71445864109204       -0.77090274796522        1.03456799607297
N            0.00341096585043        0.08843470546861       -0.60352444819522
C           -1.18623255446415       -0.43924194506867        0.05240835860338
C           -2.21217385250905       -0.75424041324394       -1.03497433433337
C           -1.75962107137559        0.58296656790598        1.03283603206123
H            1.84713176816606        1.74399223940753       -1.33301092623415
H            3.08999117243130        1.32778847368084       -0.14523153110773
H            2.61127456607566        0.15198226438238       -1.37382154919345
H            0.87050796863518        1.20589722377152        0.90143890000223
H            1.94098852417721       -1.61556827983365        0.38467661576974
H            0.99640958062196       -1.09366500756091        1.78551812127216
H            2.62702652800489       -0.47173400338104        1.54368155130419
H            0.28509880336662       -0.55353572517040       -1.33717080613634
H           -0.97572039496291       -1.37407222715713        0.60890357370190
H           -1.82190102413272       -1.49762829742694       -1.72843742213041
H           -3.12665315725514       -1.14202708956021       -0.59352999083672
H           -2.44367072386651        0.14999188016682       -1.59236748062728
H           -2.72707063991142        0.24305891614035        1.39479536520587
H           -1.88513632246144        1.54079434861122        0.53404568093524
H           -1.10451518864501        0.71739473443530        1.89021147566073
22
 energy: -23.421101606027 gnorm: 0.001476396017 xtb: 6.7.1 (edcfbbe)
C            2.24770617756861        0.95231307982103       -0.71329988586193
C            1.16527698829959        0.40219411370447        0.21403297507150
C            1.71892919049898       -0.77765741077899        1.02675300815500
N            0.00423551349934        0.08325984750971       -0.60429819418948
C           -1.18746966068493       -0.43872072300960        0.05450752535871
C           -2.21332201518991       -0.75832615524083       -1.03174735718322
C           -1.75920974755301        0.59077321700815        1.02819257644977
H            1.83705082417355        1.74689954818877       -1.32886354392443
H            3.07926401609892        1.34605741334119       -0.13582656818166
H            2.62022408265183        0.16499731901104       -1.36619355908961
H            0.86449438339261        1.19638389744104        0.90675510626772
H            1.94903894929835       -1.61529132459181        0.36954339153374
H            1.00205420988444       -1.10974049045149        1.77435633143804
H            2.62986448885425       -0.47880496408644        1.53837932825574
H            0.28764887097071       -0.56874489542974       -1.32983024293997
H           -0.97803668669764       -1.37054283231319        0.61580425791463
H           -1.82794374543718       -1.51335265122955       -1.71423928106131
H           -3.13160538416137       -1.13225379376248       -0.58743250479439
H           -2.43482491047754        0.14059336467360       -1.60042244598364
H           -2.73317009943098        0.26181962254697        1.38099127014540
H           -1.86932367590228        1.54840939916145        0.52654510975262
H           -1.11102276797321        0.71903032624366        1.89103795610277
22
 energy: -23.421118847880 gnorm: 0.001158945746 xtb: 6.7.1 (edcfbbe)
C            2.24515849087628        0.96159987461431       -0.70710725714921
C            1.16391135005430        0.39813534383535        0.21473334117352
C            1.72313102348396       -0.78487083500676        1.01895477647194
N            0.00540151511984        0.07627080264598       -0.60580219214974
C           -1.18780587586285       -0.43883906681962        0.05624484507350
C           -2.21532078650179       -0.76312682446830       -1.02792193346961
C           -1.75745511082438        0.59945207157676        1.02250327934440
H            1.82835608751509        1.75357075910260       -1.32138694084532
H            3.06904351583204        1.36198101293830       -0.12379051827439
H            2.62825793708012        0.18050112670263       -1.36021092828809
H            0.85707792401551        1.18615967691352        0.91119791931185
H            1.95870349781360       -1.61431614607929        0.35389717019535
H            1.00617160293985       -1.12763465548441        1.76137681597686
H            2.63108153460012       -0.48552954297849        1.53495778560748
H            0.28996513724971       -0.58512729110322       -1.32350682332579
H           -0.98037873658655       -1.36757687484192        0.62336439388195
H           -1.83493876104449       -1.52851048714526       -1.70054106575283
H           -3.13621321631479       -1.12456282350293       -0.57917513816288
H           -2.42850924574334        0.13117277297168       -1.60609349604099
H           -2.73727541481742        0.28117461448900        1.36776216106599
H           -1.85324148812886        1.55533114837171        0.51534933588424
H           -1.11526197907279        0.72404125102534        1.88993972270774
22
 energy: -23.421126927846 gnorm: 0.000964673831 xtb: 6.7.1 (edcfbbe)
C            2.24419213002495        0.96436811526351       -0.70504084773547
C            1.16327257766947        0.39622442482752        0.21466220774749
C            1.72494318300170       -0.78728410840090        1.01711291957368
N            0.00584613355547        0.07308454220791       -0.60613874038111
C           -1.18785434195180       -0.43897317602365        0.05648016755795
C           -2.21625607089954       -0.76502602798670       -1.02665132703683
C           -1.75657684311054        0.60276344353664        1.01987979079667
H            1.82700335357163        1.75872733218927       -1.31613251342644
H            3.06725886936310        1.36304381172402       -0.11947502929481
H            2.62834068350776        0.18653750186003       -1.36119396377581
H            0.85504217037751        1.18218586689327        0.91270135091489
H            1.96438146119309       -1.61404452197836        0.35017358428299
H            1.00726909561713       -1.13429882853135        1.75691550935704
H            2.63083551306108       -0.48660745283580        1.53600794679020
H            0.28992785938135       -0.58897867117315       -1.32294741042535
H           -0.98208274155104       -1.36660131524535        0.62628035473517
H           -1.83676642881180       -1.53186358432049       -1.69787075692690
H           -3.13683429725307       -1.12521449314850       -0.57650797543938
H           -2.42966156328196        0.12814493254313       -1.60628041703296
H           -2.73704419364316        0.28705144712201        1.36514318449602
H           -1.85026154105736        1.55715336355219        0.50994002157326
H           -1.11511600708083        0.72890330568172        1.88768719688566
22
 energy: -23.421138604846 gnorm: 0.000712391591 xtb: 6.7.1 (edcfbbe)
C            2.24299801020660        0.96690333358136       -0.70281143981312
C            1.16298697935977        0.39355570202486        0.21460003365160
C            1.72773460888128       -0.79003077653712        1.01549193172567
N            0.00640942914847        0.06905544972768       -0.60587073180900
C           -1.18823044063892       -0.43894449493801        0.05692538214624
C           -2.21728388290087       -0.76747507324479       -1.02496683014986
C           -1.75628749611436        0.60706385580826        1.01612255547360
H            1.82687260440235        1.76809339521639       -1.30631855451701
H            3.06816341506152        1.35850274428097       -0.11505718424806
H            2.62410362708152        0.19409784446917       -1.36669544915153
H            0.85342679435982        1.17710122070373        0.91467317747680
H            1.97503606349497       -1.61331595315586        0.34700145061474
H            1.00822006112287       -1.14338350239985        1.75063324544555
H            2.62937764814109       -0.48606002354727        1.54009757052499
H            0.28935687626584       -0.59205369473334       -1.32332022069673
H           -0.98510079584545       -1.36503677068347        0.63047155598926
H           -1.83697253689704       -1.53380369770621       -1.69649125095221
H           -3.13653489496871       -1.12966412109790       -0.57325142037316
H           -2.43399215988484        0.12511198470841       -1.60483255938000
H           -2.73672937474864        0.29310702820213        1.36363324302802
H           -1.84972511117621        1.55930478496724        0.50162616214998
H           -1.11397042266794        0.73716667211059        1.88308458610018
22
 energy: -23.421148119689 gnorm: 0.000835427204 xtb: 6.7.1 (edcfbbe)
C            2.24156544019438        0.96924690969372       -0.70045987654906
C            1.16310857475431        0.39084796462476        0.21521522909042
C            1.73099006609097       -0.79320911243168        1.01343545703619
N            0.00680895324051        0.06614923376343       -0.60546695371167
C           -1.18900140162732       -0.43799999665813        0.05769414799663
C           -2.21770652218963       -0.77061916936492       -1.02320171143699
C           -1.75681715251447        0.61269554719076        1.01181549068887
H            1.82738676566289        1.77922076161024       -1.29384391019851
H            3.07098771909963        1.35050655074716       -0.11161056671575
H            2.61674949579433        0.20211854531691       -1.37449226110798
H            0.85243396044080        1.17173808937058        0.91772476871777
H            1.98830777909928       -1.61167882379742        0.34257013831919
H            1.00912246998660       -1.15517339407738        1.74230381803922
H            2.62719029340667       -0.48588982579068        1.54566272805780
H            0.28895793928647       -0.59575401737127       -1.32220837243695
H           -0.98751433116554       -1.36181301493461        0.63552209097181
H           -1.83549747492330       -1.53506776756904       -1.69579305435413
H           -3.13464205115387       -1.13706926508225       -0.57034839475567
H           -2.43997059790347        0.12088726533744       -1.60253097202691
H           -2.73602099016010        0.29946171977772        1.36265943035061
H           -1.85273177356546        1.56179266626293        0.49270708227936
H           -1.11384816017052        0.74890504113875        1.87739094498166
22
 energy: -23.421155700764 gnorm: 0.000885238893 xtb: 6.7.1 (edcfbbe)
C            2.23977911561422        0.97139170571573       -0.69911003451911
C            1.16385840529587        0.38862750535671        0.21666482000827
C            1.73486285747486       -0.79630602201154        1.01122380715603
N            0.00723589354041        0.06390803524561       -0.60346980030347
C           -1.18991551606149       -0.43715285737087        0.05957442205186
C           -2.21710017605759       -0.77286811316122       -1.02168124201501
C           -1.75918491692186        0.61735578493471        1.00859307961407
H            1.82500231781222        1.78694267021215       -1.28460775609255
H            3.07326919127740        1.34585950364155       -0.11127887212522
H            2.60965894424118        0.20822366511220       -1.38070735335940
H            0.85255546091429        1.16701287189839        0.92168242326521
H            1.99988256066261       -1.61000556546997        0.33760479049926
H            1.01185195965394       -1.16596249344461        1.73510346009685
H            2.62683940749690       -0.48657790750489        1.54905530732753
H            0.28873137054794       -0.59908806601004       -1.31940623829240
H           -0.99014984370320       -1.35891368818953        0.64141607059356
H           -1.83235552270261       -1.53728058976709       -1.69333546571899
H           -3.13391510149494       -1.14099068182301       -0.56913579741764
H           -2.44076650107280        0.11794549295186       -1.60232911846750
H           -2.73973766477071        0.30601310160404        1.35909267735443
H           -1.85330655087985        1.56486192459152        0.48501009903049
H           -1.11723668918365        0.75629963124534        1.87478597454966
22
 energy: -23.421162765697 gnorm: 0.000482710867 xtb: 6.7.1 (edcfbbe)
C            2.23817262882877        0.97284767730267       -0.69813246417336
C            1.16472743581571        0.38717631871396        0.21855844247076
C            1.73819008712312       -0.79914105854123        1.00878268529286
N            0.00732758684274        0.06338600268102       -0.60124573519463
C           -1.19094463961020       -0.43571306996718        0.06163943111136
C           -2.21573904355811       -0.77503175670293       -1.02057188164604
C           -1.76201016895941        0.62172801837488        1.00618164611468
H            1.82243838638940        1.79193935588187       -1.27750798593427
H            3.07507375267315        1.34249187833630       -0.11210222301985
H            2.60340075055882        0.21244486947976       -1.38534198574188
H            0.85354448090989        1.16339758642088        0.92597755855841
H            2.00872129405613       -1.60825660257924        0.33196927482462
H            1.01468661111642       -1.17542849303974        1.72860222018433
H            2.62712089217576       -0.48835082023870        1.55090509042290
H            0.28851261615351       -0.60166792966899       -1.31571098712497
H           -0.99172756149888       -1.35542450073255        0.64673376415481
H           -1.82853778469987       -1.53965446531952       -1.69065053538502
H           -3.13267556553582       -1.14414382820370       -0.56909972777221
H           -2.43991476778697        0.11454058748138       -1.60282088909109
H           -2.74311527820371        0.31129200523202        1.35544173591213
H           -1.85533514104736        1.56761320023839        0.47991591831592
H           -1.12205757005997        0.76325093260769        1.87322190095647
22
 energy: -23.421168624799 gnorm: 0.000282929838 xtb: 6.7.1 (edcfbbe)
C            2.23640613096931        0.97473006087263       -0.69719509671907
C            1.16560644040920        0.38576923379290        0.22064352702116
C            1.74149265466731       -0.80235120204819        1.00592927193442
N            0.00732559772216        0.06319723928522       -0.59872276866739
C           -1.19185698860536       -0.43436068907218        0.06409254153668
C           -2.21403590752754       -0.77715678027191       -1.01939804822611
C           -1.76510931770408        0.62591840662475        1.00412539046684
H            1.81854601233472        1.79533298114401       -1.27251290238407
H            3.07523052408397        1.34239598573094       -0.11287279790671
H            2.59922100090856        0.21636108528385       -1.38791825808704
H            0.85467304710909        1.15972186988969        0.93063341931935
H            2.01563516598042       -1.60699388930623        0.32539522337625
H            1.01819767488497       -1.18462566191427        1.72269791062620
H            2.62859672864830       -0.49146489457622        1.55088689427788
H            0.28818169145185       -0.60368825974272       -1.31192043025187
H           -0.99313167014544       -1.35204243895369        0.65240389850408
H           -1.82499736599512       -1.54370107677524       -1.68617565472860
H           -3.13196813462602       -1.14509566924117       -0.56927971387202
H           -2.43666274225924        0.11053674060779       -1.60483209133483
H           -2.74795099405405        0.31750992348604        1.35032724055368
H           -1.85531752506894        1.57072451958404        0.47534634953447
H           -1.12822302150094        0.76857842335701        1.87309134826259
22
 energy: -23.421172530032 gnorm: 0.000379273670 xtb: 6.7.1 (edcfbbe)
C            2.23542688723540        0.97637220548668       -0.69598247094925
C            1.16604875337199        0.38484645072119        0.22193905048875
C            1.74359061858265       -0.80485079617863        1.00336310542633
N            0.00718742637222        0.06326291182215       -0.59715006000499
C           -1.19247075965944       -0.43339694115295        0.06564114074062
C           -2.21308571700391       -0.77919159680347       -1.01832495997182
C           -1.76700417172603        0.62898536774542        1.00252893015769
H            1.81587598203205        1.79743674191231       -1.26925410797149
H            3.07468827297022        1.34382632855212       -0.11219602683071
H            2.59779520254032        0.21947456282510       -1.38853617421394
H            0.85533544361487        1.15695965634122        0.93401966484019
H            2.01921765169474       -1.60661203668532        0.32013828041614
H            1.02069804794533       -1.19071491428065        1.71847850614134
H            2.62998759307406       -0.49448407078292        1.54973256051352
H            0.28765873066744       -0.60432864710952       -1.30996083226577
H           -0.99389208946105       -1.34953259694855        0.65628904707004