
                                 *****************
                                 * O   R   C   A *
                                 *****************

                                            #,                                       
                                            ###                                      
                                            ####                                     
                                            #####                                    
                                            ######                                   
                                           ########,                                 
                                     ,,################,,,,,                         
                               ,,#################################,,                 
                          ,,##########################################,,             
                       ,#########################################, ''#####,          
                    ,#############################################,,   '####,        
                  ,##################################################,,,,####,       
                ,###########''''           ''''###############################       
              ,#####''   ,,,,##########,,,,          '''####'''          '####       
            ,##' ,,,,###########################,,,                        '##       
           ' ,,###''''                  '''############,,,                           
         ,,##''                                '''############,,,,        ,,,,,,###''
      ,#''                                            '''#######################'''  
     '                                                          ''''####''''         
             ,#######,   #######,   ,#######,      ##                                
            ,#'     '#,  ##    ##  ,#'     '#,    #''#        ,####,   ,####,        
            ##       ##  ##   ,#'  ##            #'  '#       #'       #'  '#        
            ##       ##  #######   ##           ,######,      #####,   #    #        
            '#,     ,#'  ##    ##  '#,     ,#' ,#      #,     #,   #   #,  ,#        
             '#######'   ##     ##  '#######'  #'      '#     '####' # '####'        



                #########################################################
                #                        -***-                          #
                #          Department of theory and spectroscopy        #
                #                                                       #
                #                      Frank Neese                      #
                #                                                       #
                #     Directorship, Architecture, Infrastructure        #
                #                    SHARK, DRIVERS                     #
                #        Core code/Algorithms in most modules           #
                #                                                       #
                #        Max Planck Institute fuer Kohlenforschung      #
                #                Kaiser Wilhelm Platz 1                 #
                #                 D-45470 Muelheim/Ruhr                 #
                #                      Germany                          #
                #                                                       #
                #                  All rights reserved                  #
                #                        -***-                          #
                #########################################################


                         Program Version 6.0.0  -   RELEASE  -


 With contributions from (in alphabetic order):
   Daniel Aravena         : Magnetic Suceptibility
   Michael Atanasov       : Ab Initio Ligand Field Theory (pilot matlab implementation)
   Alexander A. Auer      : GIAO ZORA, VPT2 properties, NMR spectrum
   Ute Becker             : All parallelization in ORCA, NUMFREQ, NUMCALC
   Giovanni Bistoni       : ED, misc. LED, open-shell LED, HFLD
   Martin Brehm           : Molecular dynamics
   Dmytro Bykov           : pre 5.0 version of the SCF Hessian
   Marcos Casanova-Páez   : Triplet and SCS-CIS(D). UHF-(DLPNO)-IP/EA/STEOM-CCSD. UHF-CVS-IP/STEOM-CCSD
   Vijay G. Chilkuri      : MRCI spin determinant printing, contributions to CSF-ICE
   Pauline Colinet        : FMM embedding
   Dipayan Datta          : RHF DLPNO-CCSD density
   Achintya Kumar Dutta   : EOM-CC, STEOM-CC
   Nicolas Foglia         : Exact transition moments, OPA infrastructure, MCD improvements
   Dmitry Ganyushin       : Spin-Orbit,Spin-Spin,Magnetic field MRCI
   Miquel Garcia          : C-PCM and meta-GGA Hessian, CCSD/C-PCM, Gaussian charge scheme
   Tiago L. C. Gouveia    : GS-ROHF, GS-ROCIS
   Yang Guo               : DLPNO-NEVPT2, F12-NEVPT2, CIM, IAO-localization
   Andreas Hansen         : Spin unrestricted coupled pair/coupled cluster methods
   Ingolf Harden          : AUTO-CI MPn and infrastructure 
   Benjamin Helmich-Paris : MC-RPA, TRAH-(SCF,CASSCF), AVAS, COSX integrals, SCF dyn. polar.
   Lee Huntington         : MR-EOM, pCC
   Robert Izsak           : Overlap fitted RIJCOSX, COSX-SCS-MP3, EOM
   Riya Kayal             : Wick's Theorem for AUTO-CI, AUTO-CI UHF-CCSDT
   Emily Kempfer          : AUTO-CI, RHF CISDT and CCSDT
   Christian Kollmar      : KDIIS, OOCD, Brueckner-CCSD(T), CCSD density, CASPT2, CASPT2-K, improved NEVPT2
   Axel Koslowski         : Symmetry handling
   Simone Kossmann        : Meta GGA functionals, TD-DFT gradient, OOMP2, (MP2 Hessian; deprecated post 5.0)
   Lucas Lang             : DCDCAS
   Marvin Lechner         : AUTO-CI (C++ implementation), FIC-MRCC
   Spencer Leger          : CASSCF response
   Dagmar Lenk            : GEPOL surface, SMD, ORCA-2-JSON
   Dimitrios Liakos       : Extrapolation schemes; Compound Job, initial MDCI parallelization
   Dimitrios Manganas     : Further ROCIS development; embedding schemes. LFT, Crystal Embedding
   Dimitrios Pantazis     : SARC Basis sets
   Anastasios Papadopoulos: AUTO-CI, single reference methods and gradients
   Taras Petrenko         : pre 6.0 DFT Hessian and TD-DFT gradient, (ASA, deprecated), ECA, 1-Electron XAS/XES, NRVS
   Peter Pinski           : DLPNO-MP2, DLPNO-MP2 Gradient
   Christoph Reimann      : Effective Core Potentials
   Marius Retegan         : Local ZFS, SOC
   Christoph Riplinger    : Optimizer, TS searches, QM/MM, DLPNO-CCSD(T), (RO)-DLPNO pert. Triples
   Michael Roemelt        : Original ROCIS implementation
   Masaaki Saitow         : Open-shell DLPNO-CCSD energy and density
   Barbara Sandhoefer     : DKH picture change effects
   Kantharuban Sivalingam : CASSCF convergence/infrastructure, NEVPT2 and variants, FIC-MRCI
   Bernardo de Souza      : ESD, SOC TD-DFT
   Georgi Stoychev        : AutoAux, RI-MP2 NMR, DLPNO-MP2 response, X2C
   Van Anh Tran           : RI-MP2 g-tensors
   Willem Van den Heuvel  : Paramagnetic NMR
   Zikuan Wang            : NOTCH, Electric field optimization 
   Frank Wennmohs         : Technical directorship and infrastructure
   Hang Xu                : AUTO-CI-Response properties 


 We gratefully acknowledge several colleagues who have allowed us to
 interface, adapt or use parts of their codes:
   Stefan Grimme, W. Hujo, H. Kruse, P. Pracht,  : VdW corrections, initial TS optimization,
                  C. Bannwarth, S. Ehlert,         DFT functionals, gCP, sTDA/sTD-DF
                  L. Wittmann, M. Mueller
   Ed Valeev, F. Pavosevic, A. Kumar             : LibInt (2-el integral package), F12 methods
   Garnet Chan, S. Sharma, J. Yang, R. Olivares  : DMRG
   Ulf Ekstrom                                   : XCFun DFT Library
   Mihaly Kallay                                 : mrcc  (arbitrary order and MRCC methods)
   Frank Weinhold                                : gennbo (NPA and NBO analysis)
   Simon Mueller                                 : openCOSMO-RS
   Christopher J. Cramer and Donald G. Truhlar   : smd solvation model
   Lars Goerigk                                  : TD-DFT with DH, B97 family of functionals
   V. Asgeirsson, H. Jonsson                     : NEB implementation
   FAccTs GmbH                                   : IRC, NEB, NEB-TS, DLPNO-Multilevel, CI-OPT
                                                   MM, QMMM, 2- and 3-layer-ONIOM, Crystal-QMMM,
                                                   LR-CPCM, SF, NACMEs, symmetry and pop. for TD-DFT,
                                                   nearIR, NL-DFT gradient (VV10), updates on ESD,
                                                   ML-optimized integration grids, MBIS, APM,
                                                   GOAT, DOCKER, SOLVATOR, interface openCOSMO-RS
   S Lehtola, MJT Oliveira, MAL Marques          : LibXC Library
   Liviu Ungur et al                             : ANISO software


 Your calculation uses the libint2 library for the computation of 2-el integrals
 For citations please refer to: http://libint.valeyev.net

 Your ORCA version has been built with support for libXC version: 6.2.2
 For citations please refer to: https://libxc.gitlab.io

 This ORCA versions uses:
   CBLAS   interface :  Fast vector & matrix operations
   LAPACKE interface :  Fast linear algebra routines
   SCALAPACK package :  Parallel linear algebra routines
   Shared memory     :  Shared parallel matrices
   BLAS/LAPACK       :  OpenBLAS 0.3.27  USE64BITINT DYNAMIC_ARCH NO_AFFINITY SkylakeX SINGLE_THREADED
        Core in use  :  SkylakeX
   Copyright (c) 2011-2014, The OpenBLAS Project


Your calculation utilizes the geometrical counterpoise correction gCP
Please cite in your paper:
H.Kruse, S. Grimme J.Chem.Phys., 136, (2012), 154101 
   

Your calculation utilizes the atom-pairwise dispersion correction
based on EEQ partial charges (D4)


Your calculation utilizes the SMD solvation module
Please cite in your paper:
A.V. Marenich, C.J. Cramer, D.G. Truhlar J. Phys. Chem. B, 113, (2009), 6378 

================================================================================

----- Orbital basis set information -----
Your calculation utilizes the basis: def2-mTZVPP
   Stefan Grimme, Andreas Hansen, Sebastian Ehlert, and Jan-Michael Mewes 
   J. Chem. Phys. 154, 064103 (2021). DOI: 10.1063/5.0040021

----- AuxJ basis set information -----
Your calculation utilizes the auxiliary basis: def2/J
   F. Weigend, Phys. Chem. Chem. Phys. 8, 1057 (2006).

================================================================================
                                        WARNINGS
                       Please study these warnings very carefully!
================================================================================

Using LibXC functional ID 497 : Re-regularized SCAN exchange by Furness et al
[ 1]  J. W. Furness, A. D. Kaplan, J. Ning, J. P. Perdew, and J. Sun.,  J. Phys. Chem. Lett. 11, 8208-8215 (2020)
[ 2]  J. W. Furness, A. D. Kaplan, J. Ning, J. P. Perdew, and J. Sun.,  J. Phys. Chem. Lett. 11, 9248-9248 (2020)
Using LibXC functional ID 498 : Re-regularized SCAN correlation by Furness et al
[ 1]  J. W. Furness, A. D. Kaplan, J. Ning, J. P. Perdew, and J. Sun.,  J. Phys. Chem. Lett. 11, 8208-8215 (2020)
[ 2]  J. W. Furness, A. D. Kaplan, J. Ning, J. P. Perdew, and J. Sun.,  J. Phys. Chem. Lett. 11, 9248-9248 (2020)
Using LibXC functional ID 497 : Re-regularized SCAN exchange by Furness et al
[ 1]  J. W. Furness, A. D. Kaplan, J. Ning, J. P. Perdew, and J. Sun.,  J. Phys. Chem. Lett. 11, 8208-8215 (2020)
[ 2]  J. W. Furness, A. D. Kaplan, J. Ning, J. P. Perdew, and J. Sun.,  J. Phys. Chem. Lett. 11, 9248-9248 (2020)
Using LibXC functional ID 498 : Re-regularized SCAN correlation by Furness et al
[ 1]  J. W. Furness, A. D. Kaplan, J. Ning, J. P. Perdew, and J. Sun.,  J. Phys. Chem. Lett. 11, 8208-8215 (2020)
[ 2]  J. W. Furness, A. D. Kaplan, J. Ning, J. P. Perdew, and J. Sun.,  J. Phys. Chem. Lett. 11, 9248-9248 (2020)

================================================================================
                                       INPUT FILE
================================================================================
NAME = sp_solv.inp
|  1> ! r2scan-3c def2/J RI DEFGRID2 scfconv6 printgap
|  2> %output
|  3>     printlevel normal
|  4> end
|  5> %cpcm
|  6>     smd true
|  7>     smdsolvent "water"
|  8> end
|  9> * xyz 0 1
| 10> C -3.3666491619 -1.0549580422 0.2749466844
| 11> C -1.9978697315 -0.4616305974 0.5824178082
| 12> C -1.3265227681 0.0727623841 -0.6918896062
| 13> C 0.0019991256 0.6814314429 -0.3351216528
| 14> O 0.1889068181 1.8589749575 -0.1020853963
| 15> O 0.9575693042 -0.2328639425 -0.2614341857
| 16> C 2.2724755802 0.1971741381 0.1303193062
| 17> C 3.1270667131 -1.0349048223 0.3563340459
| 18> H -4.0215133272 -0.3003360706 -0.1529763363
| 19> H -3.2755684151 -1.875075862 -0.4323318095
| 20> H -3.8237075622 -1.4320721472 1.1856412413
| 21> H -1.3560985357 -1.2237334899 1.0278787383
| 22> H -2.1013057769 0.3559650854 1.2990544825
| 23> H -1.9521985266 0.8410029519 -1.1451605993
| 24> H -1.1670402966 -0.7463377825 -1.3918153592
| 25> H 2.6773186566 0.8297694567 -0.6663418699
| 26> H 2.1826383384 0.8058552521 1.0360869228
| 27> H 2.703618579 -1.6429871005 1.1501578082
| 28> H 3.1714512344 -1.6269063131 -0.5528571394
| 29> H 4.1300386752 -0.7295563548 0.6354500107
| 30> *
| 31> 
| 32>                          ****END OF INPUT****
================================================================================

                       ****************************
                       * Single Point Calculation *
                       ****************************

---------------------------------
CARTESIAN COORDINATES (ANGSTROEM)
---------------------------------
  C     -3.366649   -1.054958    0.274947
  C     -1.997870   -0.461631    0.582418
  C     -1.326523    0.072762   -0.691890
  C      0.001999    0.681431   -0.335122
  O      0.188907    1.858975   -0.102085
  O      0.957569   -0.232864   -0.261434
  C      2.272476    0.197174    0.130319
  C      3.127067   -1.034905    0.356334
  H     -4.021513   -0.300336   -0.152976
  H     -3.275568   -1.875076   -0.432332
  H     -3.823708   -1.432072    1.185641
  H     -1.356099   -1.223733    1.027879
  H     -2.101306    0.355965    1.299054
  H     -1.952199    0.841003   -1.145161
  H     -1.167040   -0.746338   -1.391815
  H      2.677319    0.829769   -0.666342
  H      2.182638    0.805855    1.036087
  H      2.703619   -1.642987    1.150158
  H      3.171451   -1.626906   -0.552857
  H      4.130039   -0.729556    0.635450

----------------------------
CARTESIAN COORDINATES (A.U.)
----------------------------
  NO LB      ZA    FRAG     MASS         X           Y           Z
   0 C     6.0000    0    12.011   -6.362045   -1.993582    0.519574
   1 C     6.0000    0    12.011   -3.775427   -0.872355    1.100610
   2 C     6.0000    0    12.011   -2.506765    0.137501   -1.307482
   3 C     6.0000    0    12.011    0.003778    1.287719   -0.633288
   4 O     8.0000    0    15.999    0.356982    3.512954   -0.192913
   5 O     8.0000    0    15.999    1.809544   -0.440049   -0.494039
   6 C     6.0000    0    12.011    4.294356    0.372605    0.246268
   7 C     6.0000    0    12.011    5.909300   -1.955687    0.673374
   8 H     1.0000    0     1.008   -7.599559   -0.567553   -0.289083
   9 H     1.0000    0     1.008   -6.189927   -3.543380   -0.816989
  10 H     1.0000    0     1.008   -7.225760   -2.706224    2.240537
  11 H     1.0000    0     1.008   -2.562655   -2.312521    1.942409
  12 H     1.0000    0     1.008   -3.970892    0.672677    2.454857
  13 H     1.0000    0     1.008   -3.689121    1.589265   -2.164040
  14 H     1.0000    0     1.008   -2.205387   -1.410374   -2.630150
  15 H     1.0000    0     1.008    5.059399    1.568037   -1.259204
  16 H     1.0000    0     1.008    4.124589    1.522846    1.957921
  17 H     1.0000    0     1.008    5.109099   -3.104796    2.173483
  18 H     1.0000    0     1.008    5.993174   -3.074407   -1.044749
  19 H     1.0000    0     1.008    7.804642   -1.378662    1.200826

--------------------------------
INTERNAL COORDINATES (ANGSTROEM)
--------------------------------
 C      0   0   0     0.000000000000     0.00000000     0.00000000
 C      1   0   0     1.523198305478     0.00000000     0.00000000
 C      2   1   0     1.536275362797   111.14651090     0.00000000
 C      3   2   1     1.504237952504   109.26695643   178.45788755
 O      4   3   2     1.214845303376   125.00084740   265.84539169
 O      4   3   2     1.324567952504   111.77969558    83.88203878
 C      6   4   3     1.437839373451   117.93373699   182.71436853
 C      7   6   4     1.516386240921   108.23924137   171.13939129
 H      1   2   3     1.086931233639   110.51452696   299.58028666
 H      1   2   3     1.086798881452   110.48742951    59.74399629
 H      1   2   3     1.086499887456   110.12251758   179.70241583
 H      2   1   3     1.091378269328   109.80439606   239.39711012
 H      2   1   3     1.092121714358   109.81351946   120.66789275
 H      3   2   1     1.089549594087   109.84029961    59.30784068
 H      3   2   1     1.089153708782   109.59913788   297.97072749
 H      7   6   4     1.094871582940   108.22233370   292.34401089
 H      7   6   4     1.094978723006   108.45781415    49.41678248
 H      8   7   6     1.085922900084   110.13146669   299.02291801
 H      8   7   6     1.085847301543   109.95092634    58.93972527
 H      8   7   6     1.084940627486   109.30897391   178.96479081

---------------------------
INTERNAL COORDINATES (A.U.)
---------------------------
 C      0   0   0     0.000000000000     0.00000000     0.00000000
 C      1   0   0     2.878427645006     0.00000000     0.00000000
 C      2   1   0     2.903139701977   111.14651090     0.00000000
 C      3   2   1     2.842597770483   109.26695643   178.45788755
 O      4   3   2     2.295724918462   125.00084740   265.84539169
 O      4   3   2     2.503070676002   111.77969558    83.88203878
 C      6   4   3     2.717122640391   117.93373699   182.71436853
 C      7   6   4     2.865554708586   108.23924137   171.13939129
 H      1   2   3     2.054002357983   110.51452696   299.58028666
 H      1   2   3     2.053752248596   110.48742951    59.74399629
 H      1   2   3     2.053187231828   110.12251758   179.70241583
 H      2   1   3     2.062406037543   109.80439606   239.39711012
 H      2   1   3     2.063810945046   109.81351946   120.66789275
 H      3   2   1     2.058950342149   109.84029961    59.30784068
 H      3   2   1     2.058202227342   109.59913788   297.97072749
 H      7   6   4     2.069007443569   108.22233370   292.34401089
 H      7   6   4     2.069209908952   108.45781415    49.41678248
 H      8   7   6     2.052096883711   110.13146669   299.02291801
 H      8   7   6     2.051954023173   109.95092634    58.93972527
 H      8   7   6     2.050240657513   109.30897391   178.96479081

---------------------
BASIS SET INFORMATION
---------------------
There are 3 groups of distinct atoms

 Group   1 Type C   : 11s6p1d contracted to 5s3p1d pattern {62111/411/1}
 Group   2 Type O   : 11s6p2d contracted to 5s3p2d pattern {62111/411/11}
 Group   3 Type H   : 4s1p contracted to 2s1p pattern {31/1}

Atom   0C    basis set group =>   1
Atom   1C    basis set group =>   1
Atom   2C    basis set group =>   1
Atom   3C    basis set group =>   1
Atom   4O    basis set group =>   2
Atom   5O    basis set group =>   2
Atom   6C    basis set group =>   1
Atom   7C    basis set group =>   1
Atom   8H    basis set group =>   3
Atom   9H    basis set group =>   3
Atom  10H    basis set group =>   3
Atom  11H    basis set group =>   3
Atom  12H    basis set group =>   3
Atom  13H    basis set group =>   3
Atom  14H    basis set group =>   3
Atom  15H    basis set group =>   3
Atom  16H    basis set group =>   3
Atom  17H    basis set group =>   3
Atom  18H    basis set group =>   3
Atom  19H    basis set group =>   3
---------------------------------
AUXILIARY/J BASIS SET INFORMATION
---------------------------------
There are 3 groups of distinct atoms

 Group   1 Type C   : 12s5p4d2f1g contracted to 6s4p3d1f1g pattern {711111/2111/211/2/1}
 Group   2 Type O   : 12s5p4d2f1g contracted to 6s4p3d1f1g pattern {711111/2111/211/2/1}
 Group   3 Type H   : 5s2p1d contracted to 3s1p1d pattern {311/2/1}

Atom   0C    basis set group =>   1
Atom   1C    basis set group =>   1
Atom   2C    basis set group =>   1
Atom   3C    basis set group =>   1
Atom   4O    basis set group =>   2
Atom   5O    basis set group =>   2
Atom   6C    basis set group =>   1
Atom   7C    basis set group =>   1
Atom   8H    basis set group =>   3
Atom   9H    basis set group =>   3
Atom  10H    basis set group =>   3
Atom  11H    basis set group =>   3
Atom  12H    basis set group =>   3
Atom  13H    basis set group =>   3
Atom  14H    basis set group =>   3
Atom  15H    basis set group =>   3
Atom  16H    basis set group =>   3
Atom  17H    basis set group =>   3
Atom  18H    basis set group =>   3
Atom  19H    basis set group =>   3

Checking for AutoStart:
The File: sp_solv.gbw exists
Trying to determine its content:
     ... Fine, the file contains calculation information
     ... Fine, the calculation information was read
     ... Fine, the file contains a basis set
     ... Fine, the basis set was read
     ... Fine, the file contains a geometry
     ... Fine, the geometry was read
     ... Fine, the file contains a set of orbitals
     ... Fine, the orbitals can be read
     => possible old guess file was deleted
     => GBW file was renamed to GES file
     => GES file is set as startup file
     => Guess is set to MORead
     ... now leaving AutoStart

------------------------------------------------------------------------------
                             ORCA STARTUP CALCULATIONS
                           -- RI-GTO INTEGRALS CHOSEN --
------------------------------------------------------------------------------
------------------------------------------------------------------------------
                   ___                                                        
                  /   \      - P O W E R E D   B Y -                         
                 /     \                                                     
                 |  |  |   _    _      __       _____    __    __             
                 |  |  |  | |  | |    /  \     |  _  \  |  |  /  |          
                  \  \/   | |  | |   /    \    | | | |  |  | /  /          
                 / \  \   | |__| |  /  /\  \   | |_| |  |  |/  /          
                |  |  |   |  __  | /  /__\  \  |    /   |      \           
                |  |  |   | |  | | |   __   |  |    \   |  |\   \          
                \     /   | |  | | |  |  |  |  | |\  \  |  | \   \       
                 \___/    |_|  |_| |__|  |__|  |_| \__\ |__|  \__/        
                                                                              
                      - O R C A' S   B I G   F R I E N D -                    
                                      &                                       
                       - I N T E G R A L  F E E D E R -                       
                                                                              
 v1 FN, 2020, v2 2021, v3 2022-2024                                           
------------------------------------------------------------------------------


----------------------
SHARK INTEGRAL PACKAGE
----------------------

Number of atoms                             ...     20
Number of basis functions                   ...    222
Number of shells                            ...    110
Maximum angular momentum                    ...      2
Integral batch strategy                     ... SHARK/LIBINT Hybrid
RI-J (if used) integral strategy            ... SPLIT-RIJ (Revised 2003 algorithm where possible)
Printlevel                                  ...      1
Contraction scheme used                     ... SEGMENTED contraction
Prescreening option                         ... SCHWARTZ
   Thresh                                   ... 1.000e-10
   Tcut                                     ... 1.000e-11
   Tpresel                                  ... 1.000e-11 
Coulomb Range Separation                    ... NOT USED
Exchange Range Separation                   ... NOT USED
Multipole approximations                    ... NOT USED
Finite Nucleus Model                        ... NOT USED
CABS basis                                  ... NOT available
Auxiliary Coulomb fitting basis             ... AVAILABLE
   # of basis functions in Aux-J            ...    524
   # of shells in Aux-J                     ...    180
   Maximum angular momentum in Aux-J        ...      4
Auxiliary J/K fitting basis                 ... NOT available
Auxiliary Correlation fitting basis         ... NOT available
Auxiliary 'external' fitting basis          ... NOT available

Checking pre-screening integrals            ... done (  0.0 sec) Dimension = 110
Check shell pair data                       ... done (  0.0 sec)
Shell pair information
Shell pair cut-off parameter TPreSel        ...   1.0e-11
Total number of shell pairs                 ...      6105
Shell pairs after pre-screening             ...      5173
Total number of primitive shell pairs       ...     21533
Primitive shell pairs kept                  ...     12895
          la=0 lb=0:   1736 shell pairs
          la=1 lb=0:   1954 shell pairs
          la=1 lb=1:    572 shell pairs
          la=2 lb=0:    552 shell pairs
          la=2 lb=1:    309 shell pairs
          la=2 lb=2:     50 shell pairs

Calculating one electron integrals          ... done (  0.0 sec)
Calculating RI/J V-Matrix + Cholesky decomp.... done (  0.1 sec)
Calculating Nuclear repulsion               ... done (  0.0 sec) ENN=    386.854145343192 Eh

Diagonalization of the overlap matrix:
Smallest eigenvalue                        ... 1.269e-04
Time for diagonalization                   ...    0.009 sec
Threshold for overlap eigenvalues          ... 1.000e-07
Number of eigenvalues below threshold      ... 0
Time for construction of square roots      ...    0.018 sec
Total time needed                          ...    0.037 sec

-------------------
DFT GRID GENERATION
-------------------

General Integration Accuracy     IntAcc      ... 4.388
Radial Grid Type                 RadialGrid  ... OptM3 with GC (2021)
Angular Grid (max. ang.)         AngularGrid ... 4 (Lebedev-302)
Angular grid pruning method      GridPruning ... 4 (adaptive)
Weight generation scheme         WeightScheme... mBecke (2022)
Basis function cutoff            BFCut       ... 1.0000e-10
Integration weight cutoff        WCut        ... 1.0000e-14
Partially contracted basis set               ... off
Rotationally invariant grid construction     ... off
Angular grids for H and He will be reduced by one unit
Diffuse basis detected: some atoms will have their outermost
                        angular grid increased by 1.

Total number of grid points                  ...    87481
Total number of batches                      ...     1375
Average number of points per batch           ...       63
Average number of grid points per atom       ...     4374
Initializing property integral containers    ... done (  0.0 sec)

SHARK setup successfully completed in   1.3 seconds

Maximum memory used throughout the entire STARTUP-calculation: 39.2 MB
-------------------------------------------------------------------------------
                                 ORCA GUESS
                   Start orbitals & Density for SCF / CASSCF
-------------------------------------------------------------------------------

------------
SCF SETTINGS
------------
Hamiltonian:
 Density Functional     Method          .... DFT(GTOs)
  Functional kind                       .... Exchange
  Functional name                       .... Re-regularized SCAN exchange by Furness et al
  Functional family                     .... MGGA
  Functional refs                              
    [ 0] J. W. Furness, A. D. Kaplan, J. Ning, J. P. Perdew, and J. Sun.,  J. Phys. Chem. Lett. 11, 8208-8215 (2020), doi: 10.1021/acs.jpclett.0c02405
    [ 1] J. W. Furness, A. D. Kaplan, J. Ning, J. P. Perdew, and J. Sun.,  J. Phys. Chem. Lett. 11, 9248-9248 (2020), doi: 10.1021/acs.jpclett.0c03077
  Functional external parameters        .... 6
    Parameter  0 _c1        =  6.670000e-01 : c1 parameter        
    Parameter  1 _c2        =  8.000000e-01 : c2 parameter        
    Parameter  2 _d         =  1.240000e+00 : d parameter         
    Parameter  3 _k1        =  6.500000e-02 : k1 parameter        
    Parameter  4 _eta       =  1.000000e-03 : eta parameter       
    Parameter  5 _dp2       =  3.610000e-01 : dp2 parameter       
  Functional kind                       .... Correlation
  Functional name                       .... Re-regularized SCAN correlation by Furness et al
  Functional family                     .... MGGA
  Functional refs                              
    [ 0] J. W. Furness, A. D. Kaplan, J. Ning, J. P. Perdew, and J. Sun.,  J. Phys. Chem. Lett. 11, 8208-8215 (2020), doi: 10.1021/acs.jpclett.0c02405
    [ 1] J. W. Furness, A. D. Kaplan, J. Ning, J. P. Perdew, and J. Sun.,  J. Phys. Chem. Lett. 11, 9248-9248 (2020), doi: 10.1021/acs.jpclett.0c03077
  Functional external parameters        .... 1
    Parameter  0 _eta       =  1.000000e-03 : Regularization parameter
 Gradients option       PostSCFGGA      .... off
 RI-approximation to the Coulomb term is turned on
   Number of AuxJ basis functions       .... 524


General Settings:
 Integral files         IntName         .... sp_solv
 Hartree-Fock type      HFTyp           .... RHF
 Total Charge           Charge          ....    0
 Multiplicity           Mult            ....    1
 Number of Electrons    NEL             ....   64
 Basis Dimension        Dim             ....  222
 Nuclear Repulsion      ENuc            ....    386.8541453432 Eh

Convergence Acceleration:
 AO-DIIS                CNVDIIS         .... on
   Start iteration      DIISMaxIt       ....    12
   Startup error        DIISStart       ....  0.200000
   # of expansion vecs  DIISMaxEq       ....     5
   Bias factor          DIISBfac        ....   1.050
   Max. coefficient     DIISMaxC        ....  10.000
 MO-DIIS                CNVKDIIS        .... off
 Trust-Rad. Augm. Hess. CNVTRAH         .... auto
   Auto Start mean grad. ratio tolernc. ....  1.125000
   Auto Start start iteration           ....     1
   Auto Start num. interpolation iter.  ....    10
   Max. Number of Micro iterations      ....    24
   Max. Number of Macro iterations      .... Maxiter - #DIIS iter
   Number of Davidson start vectors     ....     2
   Converg. threshold    (grad. norm)   ....   3.330e-04
   Grad. Scal. Fac. for Micro threshold ....   0.100
   Minimum threshold for Micro iter.    ....   1.000e-02
   NR start threshold (gradient norm)   ....   1.000e-04
   Initial trust radius                 ....   0.400
   Minimum AH scaling param. (alpha)    ....   1.000
   Maximum AH scaling param. (alpha)    .... 1000.000
   Quad. conv. algorithm                .... NR
   White noise on init. David. guess    .... on
   Maximum white noise                  ....   0.010
   Pseudo random numbers                .... off
   Inactive MOs                         .... canonical
   Orbital update algorithm             .... Taylor
   Preconditioner                       .... Diag
   Full preconditioner red. dimension   ....   250
   COSX micro iterations for RIJONX calc.... off
 SOSCF                  CNVSOSCF        .... on
   Start iteration      SOSCFMaxIt      ....   150
   Startup grad/error   SOSCFStart      ....  0.003300
   Hessian update       SOSCFHessUp     .... L-BFGS
 Level Shifting         CNVShift        .... on
   Level shift para.    LevelShift      ....    0.2500
   Turn off err/grad.   ShiftErr        ....    0.0010
 Zerner damping         CNVZerner       .... off
 Static damping         CNVDamp         .... on
   Fraction old density DampFac         ....    0.7000
   Max. Damping (<1)    DampMax         ....    0.9800
   Min. Damping (>=0)   DampMin         ....    0.0000
   Turn off err/grad.   DampErr         ....    0.1000

SCF Procedure:
 Maximum # iterations   MaxIter         ....   125
 SCF integral mode      SCFMode         .... Direct
   Integral package                     .... SHARK and LIBINT hybrid scheme
 Reset frequency        DirectResetFreq ....    20
 Integral Threshold     Thresh          ....  1.000e-10 Eh
 Primitive CutOff       TCut            ....  1.000e-11 Eh

Convergence Tolerance:
 Convergence Check Mode ConvCheckMode   .... Total+1el-Energy
 Convergence forced     ConvForced      .... 0
 Energy Change          TolE            ....  1.000e-06 Eh
 1-El. energy change                    ....  1.000e-03 Eh
 Orbital Gradient       TolG            ....  3.330e-04
 Orbital Rotation angle TolX            ....  3.330e-04
 DIIS Error             TolErr          ....  1.000e-06

---------------------
INITIAL GUESS: MOREAD
---------------------
Guess MOs are being read from file: sp_solv.ges
Input Geometry matches current geometry (good)
Atom 0: N(Shells)= 9 and 6 - projection required
Input basis set needs projection
NBasis(read)= 136
NBasis(calc)= 222
Basis set overlap was calculated
Using GuessMode=FMatrix for the initial guess
C*T matrix was formed
Effective Fockian was calculated
Effective Fockian was diagonalized
Initial density was built
                      ------------------
                      INITIAL GUESS DONE (   0.0 sec)
                      ------------------
             **** ENERGY FILE WAS UPDATED (sp_solv.en.tmp) ****
Finished Guess after   0.3 sec
Maximum memory used throughout the entire GUESS-calculation: 14.9 MB

-------------------------------------------------------------------------------------------
                                      ORCA LEAN-SCF
                              memory conserving SCF solver
-------------------------------------------------------------------------------------------

--------------------
CPCM SOLVATION MODEL
--------------------
CPCM parameters:
  Epsilon                                         ...      78.3550
  Refrac                                          ...       1.3328
  Rsolv                                           ...       1.3000
  Surface type                                    ... GAUSSIAN VDW
  Discretization scheme                           ... Constant charge density
    Threshold for H atoms                         ...       5.0000 (charges/Ang^2)
    Threshold for non-H atoms                     ...       5.0000 (charges/Ang^2)
  Epsilon function type                           ...         CPCM
Solvent:                                          ... WATER
SMD-CDS solvent descriptors:
  Soln                                            ...       1.3328
  Soln25                                          ...       1.3323
  Sola                                            ...       0.0000
  Solb                                            ...       0.0000
  Solg                                            ...       0.0000
  Solc                                            ...       0.0000
  Solh                                            ...       0.0000
Radii:
  Scheme                                          ... Element-dependent radii
  Radius for C  used is    3.4960 Bohr (=   1.8500 Ang.)
  Radius for O  used is    2.8724 Bohr (=   1.5200 Ang.)
  Radius for H  used is    2.2677 Bohr (=   1.2000 Ang.)
Calculating surface                               ...        done! (  0.0s)
Cavity surface points                             ...         1515
Cavity Volume                                     ...     880.8551
Cavity Surface-area                               ...     592.1195
Calculating surface distance matrix               ...        done! (  0.0s)
Performing Cholesky decomposition & store         ...        done! (  0.1s)
Overall time for CPCM initialization              ...                 0.1s

----------------------------------------D-I-I-S--------------------------------------------
Iteration    Energy (Eh)           Delta-E    RMSDP     MaxDP     DIISErr   Damp  Time(sec)
-------------------------------------------------------------------------------------------
               ***  Starting incremental Fock matrix formation  ***
    1    -386.0572195171574208     0.00e+00  3.61e-03  1.32e-01  6.27e-01  0.700   3.9
    2    -386.1161605067280220    -5.89e-02  2.94e-03  9.77e-02  4.40e-01  0.700   3.5
    3    -386.1578891000501130    -4.17e-02  2.16e-03  6.90e-02  3.09e-01  0.700   3.3
    4    -386.1872268638035735    -2.93e-02  1.55e-03  4.86e-02  2.17e-01  0.700   3.3
                               ***Turning on AO-DIIS***
    5    -386.2078301930112616    -2.06e-02  1.13e-03  3.50e-02  1.52e-01  0.700   3.2
    6    -386.2222773208100648    -1.44e-02  8.03e-04  2.48e-02  1.06e-01  0.700   3.1
    7    -386.2324197534687187    -1.01e-02  5.67e-04  1.75e-02  7.41e-02  0.700   3.1
    8    -386.2395286753263122    -7.11e-03  1.33e-03  4.09e-02  5.20e-02  0.000   3.0
                              *** Initializing SOSCF ***
---------------------------------------S-O-S-C-F--------------------------------------
Iteration    Energy (Eh)           Delta-E    RMSDP     MaxDP     MaxGrad    Time(sec)
--------------------------------------------------------------------------------------
    9    -386.2561511908291436    -1.66e-02  1.27e-05  3.73e-04  1.81e-04     3.2
               *** Restarting incremental Fock matrix formation ***
   10    -386.2561513278178040    -1.37e-07  6.86e-06  1.84e-04  5.31e-05     3.6
                  *** Gradient check signals convergence ***

               *****************************************************
               *                     SUCCESS                       *
               *           SCF CONVERGED AFTER  10 CYCLES          *
               *****************************************************


SMD CDS free energy correction energy :                 5.06067     Kcal/mol
Total Energy after SMD CDS correction =              -386.248086643 Eh
             **** ENERGY FILE WAS UPDATED (sp_solv.en.tmp) ****

----------------
TOTAL SCF ENERGY
----------------

Total Energy       :       -386.24808664266646 Eh          -10510.34477 eV

Components:
Nuclear Repulsion  :        386.85414534319233 Eh           10526.83647 eV
Electronic Energy  :       -773.09370151135386 Eh          -21036.94912 eV
One Electron Energy:      -1290.96078825943027 Eh          -35128.82896 eV
Two Electron Energy:        517.86708674807642 Eh           14091.87985 eV
CPCM Dielectric    :         -0.01659515965623 Eh              -0.45158 eV
SMD CDS (Gcds)     :          0.00806468515132 Eh               0.21945 eV

Virial components:
Potential Energy   :       -770.89326435161524 Eh          -20977.07218 eV
Kinetic Energy     :        384.64517770894872 Eh           10466.72740 eV
Virial Ratio       :          2.00416724042471

DFT components:
N(Alpha)           :       31.999974845489 electrons
N(Beta)            :       31.999974845489 electrons
N(Total)           :       63.999949690979 electrons
E(X)               :      -52.085990390682 Eh       
E(C)               :       -2.036411833928 Eh       
E(XC)              :      -54.122402224610 Eh       

CPCM Solvation Model Properties:
Surface-charge          :         -0.04844721942278
Corrected charge        :          0.00000000000000
Outlying charge corr.   :          0.00017457725247 Eh               0.00475 eV
Free-energy (cav+disp)  :          0.00806468515132 Eh               0.21945 eV

---------------
SCF CONVERGENCE
---------------

  Last Energy change         ...    1.3699e-07  Tolerance :   1.0000e-06
  Last MAX-Density change    ...    1.8362e-04  Tolerance :   1.0000e-05
  Last RMS-Density change    ...    6.8646e-06  Tolerance :   1.0000e-06
  Last DIIS Error            ...    1.8123e-04  Tolerance :   1.0000e-06
  Last Orbital Gradient      ...    5.3092e-05  Tolerance :   3.3300e-04
  Last Orbital Rotation      ...    1.2167e-04  Tolerance :   3.3300e-04


----------------
ORBITAL ENERGIES
----------------

  NO   OCC          E(Eh)            E(eV) 
   0   2.0000     -19.002345      -517.0801 
   1   2.0000     -18.942918      -515.4630 
   2   2.0000     -10.161223      -276.5009 
   3   2.0000     -10.083961      -274.3985 
   4   2.0000     -10.034890      -273.0632 
   5   2.0000     -10.030356      -272.9399 
   6   2.0000     -10.018837      -272.6264 
   7   2.0000     -10.011951      -272.4390 
   8   2.0000      -1.079427       -29.3727 
   9   2.0000      -0.987628       -26.8747 
  10   2.0000      -0.770391       -20.9634 
  11   2.0000      -0.735052       -20.0018 
  12   2.0000      -0.674103       -18.3433 
  13   2.0000      -0.606960       -16.5162 
  14   2.0000      -0.560353       -15.2480 
  15   2.0000      -0.533168       -14.5082 
  16   2.0000      -0.468778       -12.7561 
  17   2.0000      -0.459277       -12.4976 
  18   2.0000      -0.449248       -12.2246 
  19   2.0000      -0.425605       -11.5813 
  20   2.0000      -0.401921       -10.9368 
  21   2.0000      -0.378375       -10.2961 
  22   2.0000      -0.364627        -9.9220 
  23   2.0000      -0.363085        -9.8801 
  24   2.0000      -0.350063        -9.5257 
  25   2.0000      -0.329618        -8.9693 
  26   2.0000      -0.326326        -8.8798 
  27   2.0000      -0.313750        -8.5376 
  28   2.0000      -0.304378        -8.2826 
  29   2.0000      -0.300604        -8.1798 
  30   2.0000      -0.276295        -7.5184 
  31   2.0000      -0.248304        -6.7567 
  32   0.0000      -0.022864        -0.6222 
  33   0.0000       0.077554         2.1103 
  34   0.0000       0.104228         2.8362 
  35   0.0000       0.115606         3.1458 
  36   0.0000       0.127415         3.4671 
  37   0.0000       0.137277         3.7355 
  38   0.0000       0.144863         3.9419 
  39   0.0000       0.148098         4.0299 
  40   0.0000       0.153581         4.1792 
  41   0.0000       0.165527         4.5042 
  42   0.0000       0.173677         4.7260 
*Only the first 10 virtual orbitals were printed.

                    ********************************
                    * MULLIKEN POPULATION ANALYSIS *
                    ********************************

-----------------------
MULLIKEN ATOMIC CHARGES
-----------------------
   0 C :   -0.518470
   1 C :   -0.217703
   2 C :   -0.369120
   3 C :    0.454671
   4 O :   -0.513270
   5 O :   -0.185620
   6 C :   -0.151488
   7 C :   -0.491223
   8 H :    0.159274
   9 H :    0.158940
  10 H :    0.162362
  11 H :    0.157762
  12 H :    0.157375
  13 H :    0.176357
  14 H :    0.177832
  15 H :    0.172145
  16 H :    0.170861
  17 H :    0.165590
  18 H :    0.164667
  19 H :    0.169056
Sum of atomic charges:   -0.0000000

--------------------------------
MULLIKEN REDUCED ORBITAL CHARGES
--------------------------------
  0 C s       :     3.356882  s :     3.356882
      pz      :     1.101251  p :     3.134644
      px      :     0.961729
      py      :     1.071665
      dz2     :     0.003207  d :     0.026944
      dxz     :     0.005476
      dyz     :     0.006803
      dx2y2   :     0.004702
      dxy     :     0.006756

  1 C s       :     3.193764  s :     3.193764
      pz      :     0.965818  p :     2.986891
      px      :     0.962096
      py      :     1.058977
      dz2     :     0.005277  d :     0.037049
      dxz     :     0.007804
      dyz     :     0.009806
      dx2y2   :     0.005977
      dxy     :     0.008184

  2 C s       :     3.301253  s :     3.301253
      pz      :     0.999860  p :     3.033370
      px      :     0.951068
      py      :     1.082442
      dz2     :     0.006071  d :     0.034497
      dxz     :     0.006167
      dyz     :     0.008709
      dx2y2   :     0.005613
      dxy     :     0.007938

  3 C s       :     3.134442  s :     3.134442
      pz      :     0.728653  p :     2.285870
      px      :     0.795984
      py      :     0.761233
      dz2     :     0.007614  d :     0.125017
      dxz     :     0.010713
      dyz     :     0.026210
      dx2y2   :     0.030765
      dxy     :     0.049715

  4 O s       :     3.831843  s :     3.831843
      pz      :     1.508355  p :     4.658370
      px      :     1.806917
      py      :     1.343098
      dz2     :     0.003277  d :     0.023056
      dxz     :     0.002371
      dyz     :     0.008168
      dx2y2   :     0.007390
      dxy     :     0.001849

  5 O s       :     3.702753  s :     3.702753
      pz      :     1.709458  p :     4.441721
      px      :     1.136569
      py      :     1.595694
      dz2     :     0.002685  d :     0.041146
      dxz     :     0.006364
      dyz     :     0.009861
      dx2y2   :     0.002656
      dxy     :     0.019581

  6 C s       :     3.286760  s :     3.286760
      pz      :     1.082699  p :     2.811322
      px      :     0.725448
      py      :     1.003175
      dz2     :     0.007115  d :     0.053406
      dxz     :     0.010088
      dyz     :     0.011117
      dx2y2   :     0.012717
      dxy     :     0.012369

  7 C s       :     3.338710  s :     3.338710
      pz      :     1.097264  p :     3.126877
      px      :     1.051784
      py      :     0.977829
      dz2     :     0.004168  d :     0.025636
      dxz     :     0.002668
      dyz     :     0.008189
      dx2y2   :     0.004274
      dxy     :     0.006336

  8 H s       :     0.822456  s :     0.822456
      pz      :     0.004863  p :     0.018270
      px      :     0.006321
      py      :     0.007085

  9 H s       :     0.822787  s :     0.822787
      pz      :     0.006836  p :     0.018273
      px      :     0.003556
      py      :     0.007881

 10 H s       :     0.819265  s :     0.819265
      pz      :     0.008753  p :     0.018372
      px      :     0.004998
      py      :     0.004621

 11 H s       :     0.824377  s :     0.824377
      pz      :     0.004718  p :     0.017860
      px      :     0.006029
      py      :     0.007114

 12 H s       :     0.824803  s :     0.824803
      pz      :     0.006760  p :     0.017822
      px      :     0.003405
      py      :     0.007658

 13 H s       :     0.805757  s :     0.805757
      pz      :     0.004824  p :     0.017886
      px      :     0.005919
      py      :     0.007143

 14 H s       :     0.804103  s :     0.804103
      pz      :     0.006831  p :     0.018064
      px      :     0.003292
      py      :     0.007941

 15 H s       :     0.810372  s :     0.810372
      pz      :     0.007526  p :     0.017484
      px      :     0.003653
      py      :     0.006305

 16 H s       :     0.811484  s :     0.811484
      pz      :     0.009171  p :     0.017655
      px      :     0.002304
      py      :     0.006180

 17 H s       :     0.816107  s :     0.816107
      pz      :     0.007657  p :     0.018303
      px      :     0.004615
      py      :     0.006032

 18 H s       :     0.817012  s :     0.817012
      pz      :     0.008826  p :     0.018321
      px      :     0.003580
      py      :     0.005916

 19 H s       :     0.812456  s :     0.812456
      pz      :     0.004222  p :     0.018488
      px      :     0.010287
      py      :     0.003979


------------------------
MULLIKEN OVERLAP CHARGES
------------------------
B(  0-C ,  1-C ) :   0.4612 B(  0-C ,  2-C ) :  -0.1801 B(  0-C ,  8-H ) :   0.8588 
B(  0-C ,  9-H ) :   0.8603 B(  0-C , 10-H ) :   0.8050 B(  1-C ,  2-C ) :   0.4627 
B(  1-C ,  8-H ) :  -0.0944 B(  1-C ,  9-H ) :  -0.1005 B(  1-C , 10-H ) :  -0.0803 
B(  1-C , 11-H ) :   0.8344 B(  1-C , 12-H ) :   0.8297 B(  1-C , 13-H ) :  -0.0645 
B(  1-C , 14-H ) :  -0.0615 B(  2-C ,  3-C ) :   0.4035 B(  2-C ,  4-O ) :  -0.0825 
B(  2-C , 11-H ) :  -0.0524 B(  2-C , 12-H ) :  -0.0604 B(  2-C , 13-H ) :   0.8935 
B(  2-C , 14-H ) :   0.8610 B(  3-C ,  4-O ) :   0.9363 B(  3-C ,  5-O ) :   0.3656 
B(  3-C ,  6-C ) :  -0.1800 B(  3-C , 13-H ) :  -0.1222 B(  3-C , 14-H ) :  -0.1014 
B(  4-O ,  5-O ) :  -0.2240 B(  5-O ,  6-C ) :   0.2893 B(  5-O ,  7-C ) :  -0.0989 
B(  5-O , 15-H ) :  -0.0738 B(  5-O , 16-H ) :  -0.0697 B(  6-C ,  7-C ) :   0.4494 
B(  6-C , 15-H ) :   0.8003 B(  6-C , 16-H ) :   0.8251 B(  6-C , 17-H ) :  -0.0748 
B(  6-C , 18-H ) :  -0.0567 B(  6-C , 19-H ) :  -0.0676 B(  7-C , 17-H ) :   0.8387 
B(  7-C , 18-H ) :   0.8210 B(  7-C , 19-H ) :   0.8135 B(  8-H ,  9-H ) :  -0.0519 
B( 15-H , 16-H ) :  -0.0674 B( 17-H , 18-H ) :  -0.0504 


                     *******************************
                     * LOEWDIN POPULATION ANALYSIS *
                     *******************************

----------------------
LOEWDIN ATOMIC CHARGES
----------------------
   0 C :   -0.424856
   1 C :   -0.285252
   2 C :   -0.228248
   3 C :    0.362645
   4 O :   -0.490656
   5 O :   -0.599928
   6 C :    0.036310
   7 C :   -0.389942
   8 H :    0.154856
   9 H :    0.154879
  10 H :    0.156397
  11 H :    0.161716
  12 H :    0.161411
  13 H :    0.182142
  14 H :    0.185718
  15 H :    0.183740
  16 H :    0.185559
  17 H :    0.162432
  18 H :    0.162773
  19 H :    0.168305

-------------------------------
LOEWDIN REDUCED ORBITAL CHARGES
-------------------------------
  0 C s       :     2.973971  s :     2.973971
      pz      :     1.156856  p :     3.388069
      px      :     1.085321
      py      :     1.145893
      dz2     :     0.007695  d :     0.062815
      dxz     :     0.012199
      dyz     :     0.016853
      dx2y2   :     0.010407
      dxy     :     0.015662

  1 C s       :     2.935295  s :     2.935295
      pz      :     1.074674  p :     3.270113
      px      :     1.070315
      py      :     1.125124
      dz2     :     0.011224  d :     0.079844
      dxz     :     0.016239
      dyz     :     0.022226
      dx2y2   :     0.012257
      dxy     :     0.017899

  2 C s       :     2.927042  s :     2.927042
      pz      :     1.093364  p :     3.228138
      px      :     1.019777
      py      :     1.114998
      dz2     :     0.011520  d :     0.073068
      dxz     :     0.012842
      dyz     :     0.019862
      dx2y2   :     0.011258
      dxy     :     0.017585

  3 C s       :     2.737242  s :     2.737242
      pz      :     0.716592  p :     2.628332
      px      :     0.941857
      py      :     0.969883
      dz2     :     0.019757  d :     0.271781
      dxz     :     0.019180
      dyz     :     0.050470
      dx2y2   :     0.070872
      dxy     :     0.111503

  4 O s       :     3.545572  s :     3.545572
      pz      :     1.488394  p :     4.730336
      px      :     1.748812
      py      :     1.493130
      dz2     :     0.026078  d :     0.214748
      dxz     :     0.014422
      dyz     :     0.044762
      dx2y2   :     0.058656
      dxy     :     0.070829

  5 O s       :     3.461142  s :     3.461142
      pz      :     1.689519  p :     4.658083
      px      :     1.347046
      py      :     1.621519
      dz2     :     0.058044  d :     0.480703
      dxz     :     0.099084
      dyz     :     0.052189
      dx2y2   :     0.133595
      dxy     :     0.137792

  6 C s       :     2.869315  s :     2.869315
      pz      :     1.084792  p :     2.974881
      px      :     0.838745
      py      :     1.051343
      dz2     :     0.015851  d :     0.119493
      dxz     :     0.021805
      dyz     :     0.025734
      dx2y2   :     0.026304
      dxy     :     0.029800

  7 C s       :     2.971342  s :     2.971342
      pz      :     1.156388  p :     3.358602
      px      :     1.111625
      py      :     1.090589
      dz2     :     0.009817  d :     0.059998
      dxz     :     0.005995
      dyz     :     0.019603
      dx2y2   :     0.010366
      dxy     :     0.014216

  8 H s       :     0.801321  s :     0.801321
      pz      :     0.011241  p :     0.043823
      px      :     0.015108
      py      :     0.017474

  9 H s       :     0.801296  s :     0.801296
      pz      :     0.016516  p :     0.043826
      px      :     0.008018
      py      :     0.019292

 10 H s       :     0.799647  s :     0.799647
      pz      :     0.021818  p :     0.043956
      px      :     0.011589
      py      :     0.010549

 11 H s       :     0.794637  s :     0.794637
      pz      :     0.011097  p :     0.043647
      px      :     0.014768
      py      :     0.017782

 12 H s       :     0.795070  s :     0.795070
      pz      :     0.016360  p :     0.043519
      px      :     0.008092
      py      :     0.019067

 13 H s       :     0.774006  s :     0.774006
      pz      :     0.011609  p :     0.043852
      px      :     0.014222
      py      :     0.018022

 14 H s       :     0.769716  s :     0.769716
      pz      :     0.016718  p :     0.044566
      px      :     0.007663
      py      :     0.020186

 15 H s       :     0.775112  s :     0.775112
      pz      :     0.018671  p :     0.041148
      px      :     0.007992
      py      :     0.014485

 16 H s       :     0.772745  s :     0.772745
      pz      :     0.021741  p :     0.041697
      px      :     0.005696
      py      :     0.014260

 17 H s       :     0.793734  s :     0.793734
      pz      :     0.018746  p :     0.043834
      px      :     0.010893
      py      :     0.014195

 18 H s       :     0.793402  s :     0.793402
      pz      :     0.022160  p :     0.043826
      px      :     0.007814
      py      :     0.013852

 19 H s       :     0.787293  s :     0.787293
      pz      :     0.009571  p :     0.044402
      px      :     0.025434
      py      :     0.009397


---------------------------------
LOEWDIN BOND ORDERS (THRESH 0.050000)
---------------------------------
B(  0-C ,  1-C ) :   1.1430 B(  0-C ,  2-C ) :   0.0740 B(  0-C ,  8-H ) :   0.9281 
B(  0-C ,  9-H ) :   0.9281 B(  0-C , 10-H ) :   0.9265 B(  1-C ,  2-C ) :   1.0671 
B(  1-C ,  3-C ) :   0.0848 B(  1-C , 11-H ) :   0.8904 B(  1-C , 12-H ) :   0.8907 
B(  2-C ,  3-C ) :   0.9333 B(  2-C ,  4-O ) :   0.1831 B(  2-C ,  5-O ) :   0.1823 
B(  2-C , 13-H ) :   0.8681 B(  2-C , 14-H ) :   0.8617 B(  3-C ,  4-O ) :   2.1356 
B(  3-C ,  5-O ) :   1.4691 B(  3-C ,  6-C ) :   0.0897 B(  4-O ,  5-O ) :   0.4574 
B(  4-O ,  6-C ) :   0.0717 B(  5-O ,  6-C ) :   1.2892 B(  5-O ,  7-C ) :   0.1697 
B(  5-O , 15-H ) :   0.0943 B(  5-O , 16-H ) :   0.0928 B(  6-C ,  7-C ) :   1.0914 
B(  6-C , 15-H ) :   0.8244 B(  6-C , 16-H ) :   0.8198 B(  7-C , 17-H ) :   0.9218 
B(  7-C , 18-H ) :   0.9205 B(  7-C , 19-H ) :   0.9154 

------------------------------------------
LOEWDIN REDUCED ORBITAL POPULATIONS PER MO
-------------------------------------------
THRESHOLD FOR PRINTING IS 0.1%%
                      0         1         2         3         4         5   
                 -19.00235 -18.94292 -10.16122 -10.08396 -10.03489 -10.03036
                   2.00000   2.00000   2.00000   2.00000   2.00000   2.00000
                  --------  --------  --------  --------  --------  --------
 1 C  s               0.0       0.0       0.0       0.0       0.0      99.7
 2 C  s               0.0       0.0       0.0       0.0      99.7       0.0
 3 C  s               0.0       0.0      98.9       0.0       0.0       0.0
 4 O  s               0.0      99.9       0.0       0.0       0.0       0.0
 4 O  py              0.0       0.0       0.2       0.0       0.0       0.0
 4 O  dx2y2           0.0       0.0       0.2       0.0       0.0       0.0
 5 O  s              99.9       0.0       0.0       0.0       0.0       0.0
 5 O  dx2y2           0.0       0.0       0.0       0.1       0.0       0.0
 5 O  dxy             0.0       0.0       0.2       0.1       0.0       0.0
 6 C  s               0.0       0.0       0.0      99.4       0.0       0.0

                      6         7         8         9        10        11   
                 -10.01884 -10.01195  -1.07943  -0.98763  -0.77039  -0.73505
                   2.00000   2.00000   2.00000   2.00000   2.00000   2.00000
                  --------  --------  --------  --------  --------  --------
 0 C  s               0.0      99.7       0.0       0.0       7.0       6.5
 0 C  px              0.0       0.0       0.0       0.0       1.8       0.8
 0 C  py              0.0       0.0       0.0       0.0       0.4       0.2
 1 C  s               0.0       0.0       0.1       0.0      17.7       8.4
 1 C  pz              0.0       0.0       0.1       0.0       1.7       0.2
 1 C  px              0.0       0.1       0.2       0.0       0.0       0.5
 2 C  s               0.0       0.0       1.0       0.2      20.0       1.8
 2 C  pz              0.0       0.0       0.1       0.0       1.5       0.6
 2 C  px              0.0       0.0       1.8       0.1       0.1       1.6
 2 C  py              0.0       0.0       0.2       0.4       0.2       0.1
 3 C  s               0.0       0.0      16.9       3.2       3.3       0.9
 3 C  pz              0.0       0.0       0.3       0.3       0.3       0.0
 3 C  px              0.0       0.0       4.6       1.1       5.2       0.9
 3 C  py              0.0       0.0       0.1      22.2       4.1       1.5
 3 C  dz2             0.0       0.0       0.6       0.1       0.0       0.0
 3 C  dyz             0.0       0.0       0.0       0.2       0.0       0.0
 3 C  dx2y2           0.0       0.0       0.2       1.0       0.1       0.0
 3 C  dxy             0.0       0.0       0.3       0.7       0.0       0.2
 4 O  s               0.0       0.0      14.1      41.2       1.3       0.2
 4 O  pz              0.0       0.0       0.1       0.1       0.0       0.0
 4 O  px              0.0       0.0       0.0       0.2       0.2       0.0
 4 O  py              0.0       0.0       3.2       2.9       0.3       0.1
 4 O  dz2             0.0       0.0       0.4       0.0       0.1       0.0
 4 O  dx2y2           0.0       0.0       0.8       0.1       0.2       0.2
 4 O  dxy             0.0       0.0       0.1       0.2       0.4       0.0
 5 O  s               0.0       0.0      39.6      18.3       0.0       0.9
 5 O  pz              0.0       0.0       0.0       0.0       0.3       0.5
 5 O  px              0.0       0.0       0.2       0.5       6.7       9.5
 5 O  py              0.0       0.0       2.7       0.4       0.0       0.4
 5 O  dz2             0.0       0.0       0.5       0.1       0.0       0.2
 5 O  dxz             0.0       0.0       0.0       0.0       0.0       0.3
 5 O  dx2y2           0.0       0.0       0.0       0.6       0.1       0.9
 5 O  dxy             0.0       0.0       0.4       0.6       0.3       0.2
 6 C  s               0.0       0.0       4.1       1.9       5.1      16.7
 6 C  pz              0.0       0.0       0.3       0.1       0.0       0.1
 6 C  px              0.0       0.0       4.8       1.3       0.1       1.7
 6 C  py              0.1       0.0       0.2       0.5       0.4       1.5
 6 C  dx2y2           0.0       0.0       0.2       0.1       0.0       0.0
 7 C  s              99.7       0.0       0.3       0.2       2.9      18.4
 7 C  px              0.0       0.0       0.4       0.2       0.3       0.6
 7 C  py              0.0       0.0       0.2       0.1       0.4       1.2
 8 H  s               0.0       0.0       0.0       0.0       0.9       1.0
 9 H  s               0.0       0.0       0.0       0.0       0.9       1.0
10 H  s               0.0       0.0       0.0       0.0       0.9       1.0
11 H  s               0.0       0.0       0.0       0.0       2.3       1.2
11 H  py              0.0       0.0       0.0       0.0       0.1       0.1
12 H  s               0.0       0.0       0.0       0.0       2.3       1.3
12 H  py              0.0       0.0       0.0       0.0       0.1       0.1
13 H  s               0.0       0.0       0.1       0.0       2.6       0.3
13 H  py              0.0       0.0       0.0       0.0       0.1       0.0
14 H  s               0.0       0.0       0.1       0.0       2.9       0.2
14 H  pz              0.0       0.0       0.0       0.0       0.1       0.0
14 H  py              0.0       0.0       0.0       0.0       0.2       0.0
15 H  s               0.0       0.0       0.3       0.1       0.7       2.6
15 H  pz              0.0       0.0       0.0       0.0       0.0       0.1
16 H  s               0.0       0.0       0.3       0.1       0.7       2.6
16 H  pz              0.0       0.0       0.0       0.0       0.0       0.1
17 H  s               0.0       0.0       0.0       0.0       0.4       2.9
17 H  pz              0.0       0.0       0.0       0.0       0.0       0.1
18 H  s               0.0       0.0       0.0       0.0       0.4       2.9
18 H  pz              0.0       0.0       0.0       0.0       0.0       0.2
19 H  s               0.0       0.0       0.0       0.0       0.4       3.0
19 H  px              0.0       0.0       0.0       0.0       0.0       0.2

                     12        13        14        15        16        17   
                  -0.67410  -0.60696  -0.56035  -0.53317  -0.46878  -0.45928
                   2.00000   2.00000   2.00000   2.00000   2.00000   2.00000
                  --------  --------  --------  --------  --------  --------
 0 C  s              20.2       5.2       8.5       0.0       0.3       0.0
 0 C  pz              0.1       0.0       1.2       0.3       1.1       1.0
 0 C  px              0.1       0.8       6.0       0.1       1.6       0.1
 0 C  py              0.0       0.2       0.9       0.0       0.0       0.1
 1 C  s               2.9       1.0      14.4       0.6       0.1       0.4
 1 C  pz              1.0       0.3       4.5       1.3       3.7       2.3
 1 C  px              6.7       1.8       3.0       0.1       0.0       0.3
 1 C  py              1.9       0.8       0.1       0.0       1.6       0.0
 2 C  s              10.9       3.5       3.0       1.4       1.2       0.4
 2 C  pz              0.6       0.0       7.6       1.3       4.3       0.0
 2 C  px              2.1       1.4       0.8       1.1       3.8       0.6
 2 C  py              0.6       0.0       1.1       0.0      10.2       1.2
 2 C  dz2             0.0       0.0       0.1       0.0       0.0       0.0
 2 C  dxy             0.0       0.0       0.0       0.0       0.1       0.0
 3 C  s               2.6       1.6       0.7       2.6       3.1       0.4
 3 C  pz              0.7       0.0       2.1       0.3       1.4       9.6
 3 C  px              5.2       1.6       1.5       1.8       9.3       0.0
 3 C  py              1.4       1.6       0.0       1.1       1.3       0.9
 3 C  dxz             0.0       0.0       0.0       0.0       0.0       0.1
 3 C  dxy             0.1       0.1       0.0       0.0       0.0       0.0
 4 O  s               0.8       0.1       0.4       2.3       6.7       0.9
 4 O  pz              0.1       0.0       0.4       0.0       0.0       6.7
 4 O  px              0.4       0.0       0.2       0.9       8.8       0.2
 4 O  py              0.4       0.3       0.3       3.4      14.9       1.4
 4 O  dz2             0.1       0.0       0.0       0.1       0.1       0.0
 4 O  dyz             0.1       0.0       0.1       0.0       0.0       0.8
 4 O  dx2y2           0.0       0.3       0.0       0.2       0.1       0.0
 4 O  dxy             0.4       0.0       0.1       0.1       0.9       0.0
 5 O  s               1.0       0.0       0.4       5.7       0.0       0.0
 5 O  pz              0.1       0.8       0.2       0.1       4.2      22.6
 5 O  px              1.3      16.8       0.3       8.3       1.7       2.1
 5 O  py              0.0       0.3       0.3      13.8       1.3       0.2
 5 O  dz2             0.2       0.0       0.1       0.2       0.0       0.2
 5 O  dxz             0.2       0.0       0.3       0.0       0.0       0.3
 5 O  dyz             0.0       0.1       0.0       0.1       0.0       0.7
 5 O  dx2y2           0.9       0.1       0.2       0.1       0.2       0.0
 5 O  dxy             0.3       1.3       0.0       0.5       0.9       0.0
 6 C  s               0.6       4.8       2.0       6.4       0.1       0.0
 6 C  pz              0.2       0.4       0.0       1.2       1.0      22.6
 6 C  px              2.4       3.8       0.1       5.0       1.1       1.6
 6 C  py              0.5       2.6       1.2      13.6       2.0       0.0
 6 C  dz2             0.0       0.0       0.0       0.2       0.0       0.0
 6 C  dxz             0.0       0.0       0.0       0.1       0.0       0.0
 6 C  dxy             0.1       0.3       0.0       0.2       0.0       0.0
 7 C  s               7.5      16.2       1.1       0.6       0.1       0.0
 7 C  pz              0.0       0.2       0.0       0.1       0.1       6.5
 7 C  px              0.0       1.9       0.2       0.3       1.4       0.5
 7 C  py              0.0       1.9       1.0       4.4       0.0       0.0
 8 H  s               3.9       1.4       4.1       0.1       0.2       0.1
 8 H  px              0.1       0.0       0.1       0.0       0.0       0.0
 8 H  py              0.2       0.1       0.2       0.0       0.0       0.0
 9 H  s               3.9       1.5       4.1       0.1       0.0       0.3
 9 H  pz              0.2       0.1       0.1       0.0       0.0       0.0
 9 H  py              0.2       0.1       0.2       0.0       0.0       0.0
10 H  s               4.3       1.7       3.2       0.0       0.9       0.0
10 H  pz              0.3       0.1       0.2       0.0       0.0       0.0
11 H  s               0.5       0.2       6.9       0.5       0.0       0.2
11 H  px              0.0       0.0       0.1       0.0       0.0       0.0
11 H  py              0.0       0.0       0.3       0.0       0.0       0.0
12 H  s               0.5       0.3       6.6       0.4       1.0       0.9
12 H  pz              0.0       0.0       0.2       0.0       0.0       0.0
12 H  py              0.0       0.0       0.3       0.0       0.0       0.0
13 H  s               2.2       1.4       2.2       1.5       0.2       0.0
13 H  px              0.1       0.0       0.1       0.0       0.0       0.0
14 H  s               2.3       0.6       1.8       0.8       6.3       0.4
14 H  pz              0.1       0.0       0.0       0.0       0.1       0.0
14 H  py              0.1       0.0       0.1       0.0       0.1       0.0
15 H  s               0.1       1.6       1.2       6.1       1.0       4.7
15 H  pz              0.0       0.1       0.1       0.3       0.0       0.0
15 H  py              0.0       0.0       0.0       0.0       0.0       0.2
16 H  s               0.1       1.5       0.9       7.5       0.0       5.0
16 H  pz              0.0       0.1       0.1       0.4       0.0       0.1
16 H  py              0.0       0.0       0.0       0.1       0.0       0.2
17 H  s               1.5       4.8       0.6       0.8       0.0       1.3
17 H  pz              0.1       0.2       0.0       0.0       0.0       0.0
18 H  s               1.5       4.7       0.5       1.0       0.1       1.3
18 H  pz              0.1       0.3       0.0       0.1       0.0       0.0
19 H  s               1.7       5.5       0.4       0.0       0.5       0.0
19 H  px              0.1       0.4       0.0       0.0       0.0       0.0

                     18        19        20        21        22        23   
                  -0.44925  -0.42561  -0.40192  -0.37838  -0.36463  -0.36309
                   2.00000   2.00000   2.00000   2.00000   2.00000   2.00000
                  --------  --------  --------  --------  --------  --------
 0 C  s               0.1       0.0       0.0       0.1       0.0       0.0
 0 C  pz              0.9       0.2       8.5      10.6       0.0      14.1
 0 C  px              0.3       2.7       0.3       3.2       1.7       0.0
 0 C  py              2.2      11.2       0.0       4.5       7.2       0.9
 0 C  dz2             0.0       0.0       0.0       0.1       0.0       0.0
 1 C  s               0.0       0.0       0.2       0.3       0.0       0.1
 1 C  pz              2.0       0.4       6.8       4.3       0.0       1.6
 1 C  px              1.6       4.2       1.7       1.7       0.1       2.9
 1 C  py              2.3      21.0       0.6       0.0       1.1       0.3
 2 C  s               0.5       0.0       0.0       0.8       0.0       0.2
 2 C  pz              0.8       0.5       7.7       0.6       0.0      10.0
 2 C  px             12.0       2.3       0.5       1.2       1.4       0.9
 2 C  py              0.6       9.9       0.8       0.8       5.5       1.3
 2 C  dxy             0.1       0.1       0.0       0.0       0.0       0.1
 3 C  s               0.4       0.4       0.0       0.2       0.1       0.1
 3 C  pz              0.3       0.1      12.1       1.1       0.0       2.8
 3 C  px              6.7       0.0       0.3       0.5       0.6       1.2
 3 C  py              3.4       2.7       0.2       1.7       0.3       1.2
 3 C  dx2y2           0.2       0.0       0.0       0.5       0.0       0.2
 3 C  dxy             0.0       0.2       0.0       0.0       0.2       0.0
 4 O  s               5.5       2.3       0.0       0.6       0.0       0.3
 4 O  pz              0.4       0.8      10.7       4.4       0.0       3.0
 4 O  px              1.8       0.0       0.4       0.5       2.3       0.0
 4 O  py             16.6      10.8       0.7       4.1       0.1       5.5
 4 O  dz2             0.0       0.0       0.1       0.1       0.0       0.0
 4 O  dyz             0.0       0.0       0.5       0.1       0.0       0.1
 4 O  dx2y2           0.1       0.1       0.0       0.0       0.0       0.0
 4 O  dxy             0.3       0.0       0.0       0.0       0.0       0.0
 5 O  s               0.9       0.4       0.0       1.0       1.6       0.3
 5 O  pz              0.6       0.3       1.4       2.7       0.0       3.1
 5 O  px              2.3       2.0       0.1       2.0       0.5       1.7
 5 O  py             15.3       0.1       0.0       9.1       0.2       3.6
 5 O  dz2             0.0       0.0       0.3       0.0       0.2       0.0
 5 O  dxz             0.0       0.0       2.0       0.2       0.2       0.0
 5 O  dyz             0.0       0.0       0.2       0.1       0.0       0.2
 5 O  dx2y2           1.3       0.0       0.2       0.0       0.2       0.0
 5 O  dxy             0.1       0.1       0.0       0.1       0.3       0.0
 6 C  s               0.9       0.0       0.0       0.1       0.2       0.0
 6 C  pz              0.0       0.0       8.5       1.7       0.1       0.1
 6 C  px              3.5       0.8       0.9       5.4       0.6       2.8
 6 C  py              0.1       0.6       0.0       3.3       1.1       2.5
 6 C  dx2y2           0.1       0.0       0.0       0.1       0.3       0.0
 7 C  s               0.5       0.0       0.0       0.1       0.0       0.1
 7 C  pz              0.3       0.0      12.9       2.1       3.0       6.0
 7 C  px              0.9       0.6       1.0       1.3      29.0       0.6
 7 C  py              3.3       0.4       0.0      10.7       5.0       7.7
 7 C  dz2             0.0       0.0       0.0       0.1       0.1       0.0
 7 C  dx2y2           0.0       0.0       0.0       0.0       0.2       0.0
 8 H  s               0.1       3.3       0.9       1.0       2.9       0.5
 8 H  px              0.0       0.1       0.0       0.1       0.0       0.0
 9 H  s               0.2       2.8       1.7       0.1       2.2       4.9
 9 H  py              0.0       0.0       0.1       0.1       0.0       0.1
10 H  s               1.0       0.0       1.5       8.2       0.0       3.5
10 H  pz              0.0       0.0       0.0       0.1       0.0       0.0
11 H  s               1.5       5.5       0.6       0.6       0.4       0.0
11 H  pz              0.0       0.1       0.0       0.0       0.0       0.0
12 H  s               0.1       5.1       1.0       0.2       0.3       0.1
12 H  pz              0.0       0.2       0.0       0.0       0.0       0.0
13 H  s               3.9       2.9       0.8       0.5       2.7       1.0
13 H  py              0.2       0.0       0.0       0.0       0.0       0.1
14 H  s               0.0       3.0       0.6       0.2       2.1       4.8
14 H  py              0.0       0.0       0.1       0.0       0.0       0.1
15 H  s               0.7       0.3       2.4       0.3       0.0       0.1
16 H  s               0.2       0.1       2.4       0.0       0.0       0.3
17 H  s               0.9       0.1       3.6       0.2       2.1       6.7
17 H  pz              0.0       0.0       0.0       0.0       0.2       0.1
18 H  s               0.5       0.0       3.2       4.8       2.9       0.1
18 H  pz              0.0       0.0       0.0       0.1       0.0       0.0
18 H  px              0.0       0.0       0.0       0.0       0.2       0.0
19 H  s               0.4       0.3       0.0       0.0      18.7       0.3
19 H  px              0.0       0.0       0.0       0.0       0.3       0.0

                     24        25        26        27        28        29   
                  -0.35006  -0.32962  -0.32633  -0.31375  -0.30438  -0.30060
                   2.00000   2.00000   2.00000   2.00000   2.00000   2.00000
                  --------  --------  --------  --------  --------  --------
 0 C  s               0.0       0.1       0.3       0.3       0.0       0.0
 0 C  pz              0.0       1.4       2.5       3.5      12.3       0.0
 0 C  px             10.7       3.3       9.2       5.6       1.0       2.9
 0 C  py              8.0       6.2       2.5       1.5       0.4      10.4
 0 C  dxz             0.0       0.1       0.0       0.0       0.3       0.1
 0 C  dyz             0.1       0.0       0.0       0.0       0.2       0.3
 0 C  dx2y2           0.0       0.0       0.1       0.1       0.0       0.1
 0 C  dxy             0.1       0.0       0.1       0.1       0.1       0.2
 1 C  s               0.0       0.1       0.1       0.3       0.2       0.0
 1 C  pz              0.0       0.0       1.7       5.3      16.2       0.0
 1 C  px              2.2       3.2      10.3       5.2       1.3       4.5
 1 C  py              1.2       2.1       1.9       0.8       0.4      18.4
 1 C  dxz             0.1       0.1       0.0       0.0       0.3       0.1
 1 C  dyz             0.0       0.0       0.0       0.0       0.3       0.6
 1 C  dx2y2           0.0       0.1       0.1       0.1       0.0       0.1
 1 C  dxy             0.1       0.0       0.1       0.2       0.1       0.2
 2 C  s               0.1       0.3       0.1       0.3       0.6       0.0
 2 C  pz              0.2       0.4       0.2       2.5      15.2       0.1
 2 C  px              4.8       2.8       0.1       2.1       3.2       1.5
 2 C  py             13.0       0.0       0.1       0.1       0.5       4.4
 2 C  dxz             0.0       0.0       0.0       0.0       0.1       0.1
 2 C  dyz             0.2       0.0       0.0       0.0       0.2       0.3
 2 C  dxy             0.0       0.1       0.0       0.2       0.0       0.0
 3 C  s               0.0       0.1       0.0       0.7       0.1       0.0
 3 C  pz              0.0       2.3       1.5       0.0       0.4       0.1
 3 C  px              0.4       1.4       1.9       0.6       0.3       0.1
 3 C  py              0.8       0.1       0.1       2.6       0.4       0.0
 3 C  dz2             0.0       0.0       0.0       0.0       0.1       0.0
 3 C  dxz             0.0       0.0       0.0       0.0       0.1       0.0
 3 C  dyz             0.0       0.2       0.3       0.0       0.2       0.1
 3 C  dx2y2           0.0       0.0       0.1       0.5       0.1       0.0
 3 C  dxy             0.3       0.0       0.1       0.0       0.1       0.1
 4 O  s               0.0       0.0       0.0       0.4       0.0       0.0
 4 O  pz              0.0       7.0       8.1       0.2      10.2       0.2
 4 O  px              0.0       1.1       6.2       0.3       2.0       0.1
 4 O  py              0.8       1.1       0.9       4.3       0.2       0.3
 4 O  dxz             0.1       0.2       0.0       0.0       0.0       0.0
 4 O  dx2y2           0.0       0.0       0.1       0.4       0.0       0.0
 5 O  s               0.0       0.0       0.5       1.7       0.3       0.0
 5 O  pz              0.4       5.4       1.5       0.6       0.1       1.5
 5 O  px              4.4       0.1       0.1       2.6       0.4       0.4
 5 O  py              0.1       0.1       3.6      18.4       3.6       0.2
 5 O  dxz             0.0       0.3       0.2       0.1       0.0       0.4
 5 O  dyz             0.0       0.1       0.1       0.1       0.0       0.2
 5 O  dx2y2           0.0       0.0       0.0       1.2       0.2       0.0
 5 O  dxy             0.3       0.0       0.3       0.6       0.1       0.0
 6 C  s               0.1       0.0       0.2       0.5       0.1       0.0
 6 C  pz              0.3       4.3       2.0       0.5       1.1       1.2
 6 C  px              1.6       2.8       0.0       0.4       0.0       0.3
 6 C  py              0.6       2.4       9.1       8.8       1.0       0.0
 6 C  dz2             0.0       0.0       0.1       0.1       0.0       0.0
 6 C  dyz             0.0       0.3       0.0       0.1       0.0       0.1
 6 C  dx2y2           0.1       0.0       0.0       0.2       0.0       0.0
 6 C  dxy             0.1       0.0       0.3       0.2       0.0       0.0
 7 C  s               0.0       0.1       0.3       0.4       0.1       0.0
 7 C  pz              4.7      13.8       4.8       0.2       0.6       0.5
 7 C  px              9.7       5.6       0.1       0.4       0.1       0.3
 7 C  py              0.2       2.1       8.9       6.1       0.6       0.0
 7 C  dyz             0.0       0.5       0.1       0.0       0.0       0.0
 7 C  dx2y2           0.1       0.0       0.0       0.0       0.0       0.0
 7 C  dxy             0.1       0.0       0.1       0.0       0.0       0.0
 8 H  s               7.4       0.9       0.9       0.8       1.1       8.1
 9 H  s               2.9       0.4       1.9       1.9       2.8       6.1
 9 H  px              0.1       0.0       0.1       0.1       0.0       0.0
10 H  s               0.1       3.8       0.1       0.1       9.0       0.1
11 H  s               0.0       0.0       1.2       2.1       1.2      13.9
11 H  pz              0.0       0.0       0.0       0.0       0.1       0.1
11 H  py              0.0       0.0       0.1       0.1       0.0       0.0
12 H  s               0.3       0.3       1.4       2.4       4.2       9.9
12 H  pz              0.0       0.0       0.0       0.0       0.0       0.2
12 H  px              0.0       0.0       0.1       0.1       0.0       0.0
12 H  py              0.0       0.0       0.0       0.0       0.1       0.0
13 H  s               7.8       0.7       0.2       2.2       0.2       4.9
13 H  pz              0.1       0.0       0.0       0.0       0.1       0.0
14 H  s               4.7       0.0       0.1       0.3       2.5       2.7
14 H  pz              0.1       0.0       0.0       0.0       0.0       0.0
14 H  py              0.0       0.0       0.0       0.0       0.1       0.0
15 H  s               0.0       1.2       5.1       1.5       0.0       0.8
16 H  s               0.1       4.6       0.2       3.6       1.4       1.0
17 H  s               0.0       5.2       6.0       0.4       0.1       0.4
17 H  py              0.0       0.2       0.0       0.0       0.0       0.0
18 H  s               2.0       9.3       0.1       1.7       0.7       0.4
18 H  py              0.0       0.0       0.1       0.0       0.0       0.0
19 H  s               7.0       0.4       0.1       0.2       0.0       0.1
[...]
 2 C  dyz             1.9       0.0       0.0       0.0       0.0       0.0
 2 C  dx2y2           2.4       0.0       0.1       0.0       0.0       0.0
 2 C  dxy             6.6       0.1       0.3       0.1       0.0       0.0
 3 C  s               1.8       0.2       3.1       5.1       0.0       0.3
 3 C  pz              0.0       0.0       0.0       0.3       0.0       0.0
 3 C  px              0.2       0.6       4.0       0.1       0.0       0.0
 3 C  py              1.0       1.1       3.2       7.5       0.0       0.0
 3 C  dz2             0.2       0.2       1.8       1.2       0.0       0.0
 3 C  dxz             1.1       0.0       0.0       0.0       0.0       0.0
 3 C  dyz             0.3       0.1       0.1       0.7       0.0       0.0
 3 C  dx2y2           6.4       0.0       0.0       4.3       0.0       0.0
 3 C  dxy             5.9       2.0      10.1       0.5       0.0       0.0
 4 O  s               0.3       1.2       0.8      18.8       0.0       0.0
 4 O  pz              0.2       0.0       0.0       0.7       0.0       0.0
 4 O  px              3.2       0.1       0.2       0.7       0.0       0.0
 4 O  py              1.2       0.9       0.3      20.3       0.0       0.0
 4 O  dz2             0.9       0.2       0.2       6.3       0.0       0.0
 4 O  dxz             0.2       0.0       0.2       0.1       0.0       0.0
 4 O  dyz             0.6       0.1       0.1       3.3       0.0       0.0
 4 O  dx2y2           1.0       2.0       0.2      21.1       0.0       0.0
 4 O  dxy            13.3       0.0       1.1       2.2       0.0       0.0
 5 O  s               3.7      27.0       4.8       1.4       0.0       0.0
 5 O  pz              0.0       1.1       0.7       0.1       0.0       0.0
 5 O  px              0.3       6.7      26.7       0.7       0.0       0.0
 5 O  py              4.5       5.7       5.4       0.1       0.0       0.0
 5 O  dz2             0.5      10.0       2.7       0.6       0.0       0.0
 5 O  dxz             0.0       4.9       0.2       0.5       0.0       0.0
 5 O  dyz             0.4       0.3       0.3       0.0       0.0       0.0
 5 O  dx2y2           4.8       9.5       0.7       1.0       0.0       0.0
 5 O  dxy             0.2       0.0      25.1       0.3       0.0       0.0
 6 C  s               0.4       1.3       0.7       0.2       3.9      16.9
 6 C  pz              0.0       0.4       0.2       0.0       0.0       0.0
 6 C  px              0.0       6.4       2.0       0.4       0.0       0.0
 6 C  py              0.2       0.9       0.3       0.0       0.0       0.0
 6 C  dz2             0.1       2.7       0.5       0.1       0.0       0.0
 6 C  dxz             0.0       2.8       0.6       0.1       0.0       0.0
 6 C  dyz             0.0       0.3       0.0       0.0       0.0       0.0
 6 C  dx2y2           0.2       5.0       1.5       0.3       0.0       0.0
 6 C  dxy             0.3       1.7       0.6       0.3       0.0       0.0
 7 C  s               0.0       0.0       0.0       0.0       6.3      62.3
 7 C  dx2y2           0.1       0.4       0.0       0.0       0.0       0.0
 8 H  pz              0.1       0.0       0.0       0.0       0.0       0.0
 8 H  py              0.3       0.0       0.0       0.0       0.0       0.0
 9 H  pz              0.1       0.0       0.0       0.0       0.0       0.0
 9 H  px              0.1       0.0       0.0       0.0       0.0       0.0
10 H  pz              0.2       0.0       0.0       0.0       0.0       0.0
11 H  s               0.2       0.0       0.0       0.0       0.0       0.0
11 H  py              0.8       0.0       0.0       0.0       0.0       0.0
12 H  s               0.7       0.0       0.0       0.0       0.0       0.0
12 H  pz              0.8       0.0       0.0       0.0       0.0       0.0
12 H  py              1.1       0.0       0.0       0.0       0.0       0.0
13 H  s               3.9       0.0       0.0       0.0       0.0       0.0
13 H  pz              1.9       0.0       0.0       0.0       0.0       0.0
13 H  px              2.2       0.0       0.0       0.0       0.0       0.0
13 H  py              4.5       0.0       0.0       0.0       0.0       0.0
14 H  px              0.1       0.0       0.0       0.0       0.0       0.0
15 H  s               0.0       0.5       0.0       0.0       0.0       0.0
15 H  pz              0.0       1.0       0.1       0.0       0.0       0.0
15 H  px              0.1       0.0       0.0       0.0       0.0       0.0
15 H  py              0.0       0.2       0.0       0.0       0.0       0.0
16 H  s               0.0       0.3       0.1       0.0       0.0       0.0
16 H  pz              0.1       0.5       0.1       0.0       0.0       0.0
16 H  px              0.2       0.4       0.1       0.0       0.0       0.0
16 H  py              0.0       0.1       0.0       0.0       0.0       0.0
19 H  px              0.0       0.2       0.0       0.0       0.0       0.0

                    216       217       218       219       220       221   
                  21.97602  21.99909  22.07493  22.27805  43.67010  43.75215
                   0.00000   0.00000   0.00000   0.00000   0.00000   0.00000
                  --------  --------  --------  --------  --------  --------
 0 C  s              27.2       7.5       4.5       0.0       0.0       0.0
 1 C  s              68.0       0.2       2.4       1.7       0.0       0.0
 2 C  s               0.3      17.2      59.3       1.2       0.0       0.0
 3 C  s               1.8       3.5       0.1      93.4       0.0       0.0
 4 O  s               0.0       0.0       0.0       0.2      95.0       4.9
 4 O  py              0.0       0.0       0.0       0.1       0.0       0.0
 5 O  s               0.0       0.0       0.1       0.1       4.9      95.1
 6 C  s               1.3      42.2      33.3       1.9       0.0       0.0
 7 C  s               1.1      29.2       0.0       0.7       0.0       0.0



                      *****************************
                      * MAYER POPULATION ANALYSIS *
                      *****************************

  NA   - Mulliken gross atomic population
  ZA   - Total nuclear charge
  QA   - Mulliken gross atomic charge
  VA   - Mayer's total valence
  BVA  - Mayer's bonded valence
  FA   - Mayer's free valence

  ATOM       NA         ZA         QA         VA         BVA        FA
  0 C      6.5185     6.0000    -0.5185     3.7983     3.7983    -0.0000
  1 C      6.2177     6.0000    -0.2177     3.6526     3.6526    -0.0000
  2 C      6.3691     6.0000    -0.3691     3.8358     3.8358     0.0000
  3 C      5.5453     6.0000     0.4547     3.6941     3.6941     0.0000
  4 O      8.5133     8.0000    -0.5133     1.8773     1.8773     0.0000
  5 O      8.1856     8.0000    -0.1856     1.9430     1.9430     0.0000
  6 C      6.1515     6.0000    -0.1515     3.6401     3.6401    -0.0000
  7 C      6.4912     6.0000    -0.4912     3.8413     3.8413     0.0000
  8 H      0.8407     1.0000     0.1593     0.9595     0.9595    -0.0000
  9 H      0.8411     1.0000     0.1589     0.9596     0.9596    -0.0000
 10 H      0.8376     1.0000     0.1624     0.9573     0.9573    -0.0000
 11 H      0.8422     1.0000     0.1578     0.9582     0.9582    -0.0000
 12 H      0.8426     1.0000     0.1574     0.9580     0.9580    -0.0000
 13 H      0.8236     1.0000     0.1764     0.9558     0.9558    -0.0000
 14 H      0.8222     1.0000     0.1778     0.9557     0.9557     0.0000
 15 H      0.8279     1.0000     0.1721     0.9441     0.9441    -0.0000
 16 H      0.8291     1.0000     0.1709     0.9474     0.9474    -0.0000
 17 H      0.8344     1.0000     0.1656     0.9569     0.9569    -0.0000
 18 H      0.8353     1.0000     0.1647     0.9568     0.9568     0.0000
 19 H      0.8309     1.0000     0.1691     0.9581     0.9581    -0.0000

  Mayer bond orders larger than 0.100000
B(  0-C ,  1-C ) :   0.8876 B(  0-C ,  8-H ) :   0.9814 B(  0-C ,  9-H ) :   0.9821 
B(  0-C , 10-H ) :   0.9687 B(  1-C ,  2-C ) :   0.9151 B(  1-C , 11-H ) :   0.9592 
B(  1-C , 12-H ) :   0.9584 B(  2-C ,  3-C ) :   0.9544 B(  2-C , 13-H ) :   0.9795 
B(  2-C , 14-H ) :   0.9697 B(  3-C ,  4-O ) :   1.7513 B(  3-C ,  5-O ) :   1.0773 
B(  5-O ,  6-C ) :   0.7954 B(  6-C ,  7-C ) :   0.9420 B(  6-C , 15-H ) :   0.9421 
B(  6-C , 16-H ) :   0.9499 B(  7-C , 17-H ) :   0.9718 B(  7-C , 18-H ) :   0.9679 
B(  7-C , 19-H ) :   0.9621 

-------
TIMINGS
-------

Total SCF time: 0 days 0 hours 0 min 33 sec 

Total time                  ....      33.871 sec
Sum of individual times     ....      33.248 sec  ( 98.2%)

SCF preparation             ....       0.389 sec  (  1.1%)
Fock matrix formation       ....      31.671 sec  ( 93.5%)
  Startup                   ....       0.077 sec  (  0.2% of F)
  Split-RI-J                ....       5.211 sec  ( 16.5% of F)
  XC integration            ....      19.706 sec  ( 62.2% of F)
    Basis function eval.    ....       3.628 sec  ( 18.4% of XC)
    Density eval.           ....       5.898 sec  ( 29.9% of XC)
    XC-Functional eval.     ....       2.610 sec  ( 13.2% of XC)
    XC-Potential eval.      ....       6.417 sec  ( 32.6% of XC)
  CPCM terms                ....       6.032 sec  ( 19.0% of F)
Diagonalization             ....       0.000 sec  (  0.0%)
Density matrix formation    ....       0.297 sec  (  0.9%)
Total Energy calculation    ....       0.074 sec  (  0.2%)
Population analysis         ....       0.145 sec  (  0.4%)
Orbital Transformation      ....       0.070 sec  (  0.2%)
Orbital Orthonormalization  ....       0.000 sec  (  0.0%)
DIIS solution               ....       0.542 sec  (  1.6%)
  MO trafo                  ....       0.000 sec  (  0.0 % of DIIS)
  Orb grad                  ....       0.000 sec  (  0.0 % of DIIS)
  Energy W gradient         ....       0.000 sec  (  0.0 % of DIIS)
  DIIS error                ....       0.031 sec  (  5.8 % of DIIS)
  DIIS work                 ....       0.453 sec  ( 83.4 % of DIIS)
  Form Q                    ....       0.000 sec  (  0.0 % of DIIS)
  Form QpQm                 ....       0.000 sec  (  0.0 % of DIIS)
  Exp/Cayley                ....       0.000 sec  (  0.0 % of DIIS)
  Orb update                ....       0.000 sec  (  0.0 % of DIIS)
  Wake-sleep                ....       0.027 sec  (  4.9 % of DIIS)
SOSCF solution              ....       0.059 sec  (  0.2%)
  MO trafo                  ....       0.044 sec  ( 73.6 % of SOSCF)
  Orb grad                  ....       0.001 sec  (  1.1 % of SOSCF)
  Rot update                ....       0.000 sec  (  0.1 % of SOSCF)
  Step                      ....       0.015 sec  ( 25.1 % of SOSCF)
Finished LeanSCF after  34.0 sec

Maximum memory used throughout the entire LEANSCF-calculation: 30.5 MB


-------------------------------------------------------------------------------
                          DFT DISPERSION CORRECTION                            
                                                                               
                                DFTD4 V3.4.0                                   
-------------------------------------------------------------------------------
The R2SCAN3C composite method is recognized
Using three-body term ABC
Active option DFTDOPT                   ...         5   

-------------------------   ----------------
Dispersion correction           -0.004868913
-------------------------   ----------------

------------------   -----------------
gCP correction             0.011574398
------------------   -----------------

-------------------------   --------------------
FINAL SINGLE POINT ENERGY      -386.241381157876
-------------------------   --------------------


------------------------------------------------------------------------------
                              ORCA PROPERTY CALCULATIONS
------------------------------------------------------------------------------

GBWName                                 ... sp_solv.gbw
Number of atoms                         ...     20
Number of basis functions               ...    222
Max core memory                         ...   1024 MB

Electric properties:
Dipole moment                           ... YES
Quadrupole moment                       ...  NO
Static polarizability (Dipole/Dipole)   ...  NO
Static polarizability (Dipole/Quad.)    ...  NO
Static polarizability (Quad./Quad.)     ...  NO
Static polarizability (Velocity)        ...  NO

Atomic electric properties:
Dipole moment                           ...  NO
Quadrupole moment                       ...  NO
Static polarizability                   ...  NO

Choice of electric origin               ... Center of mass
Position of electric origin             ...    -0.000012    -0.000022     0.000006

General magnetic properties:
Magnetizability                         ...  NO

EPR properties:
g-Tensor (aka g-matrix)                 ...  NO
Zero-Field splitting spin-orbit         ...  NO
Zero-field splitting spin-spin          ...  NO
Hyperfine couplings                     ...  NO (   0 nuclei)
Quadrupole couplings                    ...  NO (   0 nuclei)
Contact density                         ...  NO (   0 nuclei)

NMR properties:
Chemical shifts                         ...  NO (   0 nuclei)
Spin-rotation constants                 ...  NO (   0 nuclei)
Spin-spin couplings                     ...  NO (   0 nuclei,    0 pairs)

Choice of magnetic origin               ... GIAO
Position of magnetic origin             ...     0.000000     0.000000     0.000000

Properties with geometric perturbations:
SCF Hessian                             ...  NO
IR spectrum                             ...  NO
VCD spectrum                            ...  NO
X-ray spectroscopy properties:
SCF XES/XAS/RIXS spectra                ...  NO


-------------
DIPOLE MOMENT
-------------

Method             : SCF
Type of density    : Electron Density
Multiplicity       :   1
Irrep              :   0
Energy             :  -386.2480866426664647 Eh
Relativity type    : 
Basis              : AO
                                X                 Y                 Z
Electronic contribution:      2.848463719       5.072191759      -1.851375930
Nuclear contribution   :     -2.640232218      -6.303270848       1.864175219
                        -----------------------------------------
Total Dipole Moment    :      0.208231501      -1.231079088       0.012799289
                        -----------------------------------------
Magnitude (a.u.)       :      1.248631211
Magnitude (Debye)      :      3.173768315



--------------------
Rotational spectrum 
--------------------
 
Rotational constants in cm-1:             0.128088             0.032191             0.027577 
Rotational constants in MHz :          3839.993345           965.056426           826.727770 

Dipole components along the rotational axes: 
x,y,z [a.u.] :     0.128217    -1.213843    -0.263108 
x,y,z [Debye]:     0.325901    -3.085343    -0.668768 

 

Dipole moment calculation done in   0.0 sec 

Maximum memory used throughout the entire PROP-calculation: 13.6 MB

--------------------------------
SUGGESTED CITATIONS FOR THIS RUN
--------------------------------

Below you find a list of papers that are relevant to this ORCA run
We neither can nor want to force you to cite these papers, but we appreciate if you do
You receive ORCA, which is the product of decades of hard work by many enthusiastic individuals, for free
The only thing we kindly ask in return is that you cite our papers,
We deeply appreciate it, if you show your appreciation for ORCA by not just citing the generic ORCA reference.

Please note that relegating all ORCA citations to the supporting information does *not* help us.
SI sections are not indexed - citations you put there will not count into any citation statistics
But we need these citations in order to attract the funding resources that allow us to do what we are doing

Therefore, if you are a happy ORCA user, please consider citing a few of the papers listed below in the main body of your paper

In addition to the list printed below, the program has created the file sp_solv.bibtex that contains the list in bibtex format
You can import this file easily into all common literature databanks and citation aid programs


List of essential papers. We consider these as the minimum necessary citations

  1. Neese,F.
     Software update: the ORCA program system, version 5.0
     WIRES Comput. Molec. Sci., 2022 12(1)e1606
     doi.org/10.1002/wcms.1606
  2. Grimme,S.; Hansen,A.; Ehlert,S.; Mewes,J.
     r2SCAN-3c: A 'Swiss army knife' composite electronic-structure method
     J. Chem. Phys., 2021 154 064103
     doi.org/10.1063/5.0040021

List of papers to cite with high priority. The work reported in these papers was absolutely
necessary for this run to complete.
Our perspective: the developers of density functionals and basis sets usually get cited in chemistry papers
Good! But without the algorithms to do something with them, the functionals or basis sets would not do anything.
Hence, in our opinion, the algorithm design and method developments papers are equally worthy of getting cited

  1. Neese,F.
     An improvement of the resolution of the identity approximation for the formation of the Coulomb matrix
     J. Comp. Chem., 2003 24(14)1740-1747
     doi.org/10.1002/jcc.10318
  2. Garcia-Rates,M.; Neese,F.
     Effect of the Solute Cavity on the Solvation Energy and its Derivatives within the Framework of the Gaussian Charge Scheme
     J. Comput. Chem., 2020 41 922-939
     doi.org/10.1002/jcc.26139
  3. Neese,F.
     The SHARK Integral Generation and Digestion System
     J. Comp. Chem., 2022  1-16
     doi.org/10.1002/jcc.26942
  4. Lehtola,S.; Steigemann,C.; Oliveira,M.; Marques,M.
     Recent developments in Libxc - A comprehensive library of functionals for density functional theory
     Software X, 2018 7 
     doi.org/10.1016/j.softx.2017.11.002
  5. Caldeweyher,E.; Bannwarth,C.; Grimme,S.
     Extension of the D3 dispersion coefficient model
     J. Chem. Phys., 2017 147 034112-XXXX
     doi.org/10.1063/1.4993215
  6. Caldeweyher,E.; Ehlert,S.; Hansen,A.; Neugebauer,H.; Spicher,S.; Bannwarth,C.; Grimme,S.
     A generally applicable atomic-charge dependent London dispersion correction
     J. Chem. Phys., 2019 150 154122-XXXX
     doi.org/10.1063/1.5090222
  7. Caldeweyher,E.; Mewes,J.; Ehlert,S.; Grimme,S.
     Extension and evaluation of the D4 London-dispersion model for periodic systems
     Phys. Chem. Chem. Phys., 2020 22(16)8499-8512
     doi.org/10.1039/D0CP00502A

List of suggested additional citations. These are papers that are important in the 'surrounding' of 
of this run, or papers that preceded the highly important papers. If you like your results we are grateful for a citation.

  1. Neese,F.
     The ORCA program system
     WIRES Comput. Molec. Sci., 2012 2(1)73-78
     doi.org/10.1002/wcms.81
  2. Neese,F.
     Software update: the ORCA program system, version 4.0
     WIRES Comput. Molec. Sci., 2018 8(1)1-6
     doi.org/10.1002/wcms.1327
  3. Neese,F.; Wennmohs,F.; Becker,U.; Riplinger,C.
     The ORCA quantum chemistry program package
     J. Chem. Phys., 2020 152 Art. No. L224108
     doi.org/10.1063/5.0004608

List of optional additional citations

  1. Neese,F.
     Approximate second-order SCF convergence for spin unrestricted wavefunctions
     Chem. Phys. Lett., 2000 325(1-3)93-98
     doi.org/10.1016/s0009-2614(00)00662-x

Timings for individual modules:

Sum of individual times          ...       35.927 sec (=   0.599 min)
Startup calculation              ...        1.377 sec (=   0.023 min)   3.8 %
SCF iterations                   ...       34.410 sec (=   0.573 min)  95.8 %
Property calculations            ...        0.141 sec (=   0.002 min)   0.4 %
                             ****ORCA TERMINATED NORMALLY****
TOTAL RUN TIME: 0 days 0 hours 0 minutes 36 seconds 795 msec
