
                                 *****************
                                 * O   R   C   A *
                                 *****************

                                            #,                                       
                                            ###                                      
                                            ####                                     
                                            #####                                    
                                            ######                                   
                                           ########,                                 
                                     ,,################,,,,,                         
                               ,,#################################,,                 
                          ,,##########################################,,             
                       ,#########################################, ''#####,          
                    ,#############################################,,   '####,        
                  ,##################################################,,,,####,       
                ,###########''''           ''''###############################       
              ,#####''   ,,,,##########,,,,          '''####'''          '####       
            ,##' ,,,,###########################,,,                        '##       
           ' ,,###''''                  '''############,,,                           
         ,,##''                                '''############,,,,        ,,,,,,###''
      ,#''                                            '''#######################'''  
     '                                                          ''''####''''         
             ,#######,   #######,   ,#######,      ##                                
            ,#'     '#,  ##    ##  ,#'     '#,    #''#        ,####,   ,####,        
            ##       ##  ##   ,#'  ##            #'  '#       #'       #'  '#        
            ##       ##  #######   ##           ,######,      #####,   #    #        
            '#,     ,#'  ##    ##  '#,     ,#' ,#      #,     #,   #   #,  ,#        
             '#######'   ##     ##  '#######'  #'      '#     '####' # '####'        



                #########################################################
                #                        -***-                          #
                #          Department of theory and spectroscopy        #
                #                                                       #
                #                      Frank Neese                      #
                #                                                       #
                #     Directorship, Architecture, Infrastructure        #
                #                    SHARK, DRIVERS                     #
                #        Core code/Algorithms in most modules           #
                #                                                       #
                #        Max Planck Institute fuer Kohlenforschung      #
                #                Kaiser Wilhelm Platz 1                 #
                #                 D-45470 Muelheim/Ruhr                 #
                #                      Germany                          #
                #                                                       #
                #                  All rights reserved                  #
                #                        -***-                          #
                #########################################################


                         Program Version 6.0.0  -   RELEASE  -


 With contributions from (in alphabetic order):
   Daniel Aravena         : Magnetic Suceptibility
   Michael Atanasov       : Ab Initio Ligand Field Theory (pilot matlab implementation)
   Alexander A. Auer      : GIAO ZORA, VPT2 properties, NMR spectrum
   Ute Becker             : All parallelization in ORCA, NUMFREQ, NUMCALC
   Giovanni Bistoni       : ED, misc. LED, open-shell LED, HFLD
   Martin Brehm           : Molecular dynamics
   Dmytro Bykov           : pre 5.0 version of the SCF Hessian
   Marcos Casanova-Páez   : Triplet and SCS-CIS(D). UHF-(DLPNO)-IP/EA/STEOM-CCSD. UHF-CVS-IP/STEOM-CCSD
   Vijay G. Chilkuri      : MRCI spin determinant printing, contributions to CSF-ICE
   Pauline Colinet        : FMM embedding
   Dipayan Datta          : RHF DLPNO-CCSD density
   Achintya Kumar Dutta   : EOM-CC, STEOM-CC
   Nicolas Foglia         : Exact transition moments, OPA infrastructure, MCD improvements
   Dmitry Ganyushin       : Spin-Orbit,Spin-Spin,Magnetic field MRCI
   Miquel Garcia          : C-PCM and meta-GGA Hessian, CCSD/C-PCM, Gaussian charge scheme
   Tiago L. C. Gouveia    : GS-ROHF, GS-ROCIS
   Yang Guo               : DLPNO-NEVPT2, F12-NEVPT2, CIM, IAO-localization
   Andreas Hansen         : Spin unrestricted coupled pair/coupled cluster methods
   Ingolf Harden          : AUTO-CI MPn and infrastructure 
   Benjamin Helmich-Paris : MC-RPA, TRAH-(SCF,CASSCF), AVAS, COSX integrals, SCF dyn. polar.
   Lee Huntington         : MR-EOM, pCC
   Robert Izsak           : Overlap fitted RIJCOSX, COSX-SCS-MP3, EOM
   Riya Kayal             : Wick's Theorem for AUTO-CI, AUTO-CI UHF-CCSDT
   Emily Kempfer          : AUTO-CI, RHF CISDT and CCSDT
   Christian Kollmar      : KDIIS, OOCD, Brueckner-CCSD(T), CCSD density, CASPT2, CASPT2-K, improved NEVPT2
   Axel Koslowski         : Symmetry handling
   Simone Kossmann        : Meta GGA functionals, TD-DFT gradient, OOMP2, (MP2 Hessian; deprecated post 5.0)
   Lucas Lang             : DCDCAS
   Marvin Lechner         : AUTO-CI (C++ implementation), FIC-MRCC
   Spencer Leger          : CASSCF response
   Dagmar Lenk            : GEPOL surface, SMD, ORCA-2-JSON
   Dimitrios Liakos       : Extrapolation schemes; Compound Job, initial MDCI parallelization
   Dimitrios Manganas     : Further ROCIS development; embedding schemes. LFT, Crystal Embedding
   Dimitrios Pantazis     : SARC Basis sets
   Anastasios Papadopoulos: AUTO-CI, single reference methods and gradients
   Taras Petrenko         : pre 6.0 DFT Hessian and TD-DFT gradient, (ASA, deprecated), ECA, 1-Electron XAS/XES, NRVS
   Peter Pinski           : DLPNO-MP2, DLPNO-MP2 Gradient
   Christoph Reimann      : Effective Core Potentials
   Marius Retegan         : Local ZFS, SOC
   Christoph Riplinger    : Optimizer, TS searches, QM/MM, DLPNO-CCSD(T), (RO)-DLPNO pert. Triples
   Michael Roemelt        : Original ROCIS implementation
   Masaaki Saitow         : Open-shell DLPNO-CCSD energy and density
   Barbara Sandhoefer     : DKH picture change effects
   Kantharuban Sivalingam : CASSCF convergence/infrastructure, NEVPT2 and variants, FIC-MRCI
   Bernardo de Souza      : ESD, SOC TD-DFT
   Georgi Stoychev        : AutoAux, RI-MP2 NMR, DLPNO-MP2 response, X2C
   Van Anh Tran           : RI-MP2 g-tensors
   Willem Van den Heuvel  : Paramagnetic NMR
   Zikuan Wang            : NOTCH, Electric field optimization 
   Frank Wennmohs         : Technical directorship and infrastructure
   Hang Xu                : AUTO-CI-Response properties 


 We gratefully acknowledge several colleagues who have allowed us to
 interface, adapt or use parts of their codes:
   Stefan Grimme, W. Hujo, H. Kruse, P. Pracht,  : VdW corrections, initial TS optimization,
                  C. Bannwarth, S. Ehlert,         DFT functionals, gCP, sTDA/sTD-DF
                  L. Wittmann, M. Mueller
   Ed Valeev, F. Pavosevic, A. Kumar             : LibInt (2-el integral package), F12 methods
   Garnet Chan, S. Sharma, J. Yang, R. Olivares  : DMRG
   Ulf Ekstrom                                   : XCFun DFT Library
   Mihaly Kallay                                 : mrcc  (arbitrary order and MRCC methods)
   Frank Weinhold                                : gennbo (NPA and NBO analysis)
   Simon Mueller                                 : openCOSMO-RS
   Christopher J. Cramer and Donald G. Truhlar   : smd solvation model
   Lars Goerigk                                  : TD-DFT with DH, B97 family of functionals
   V. Asgeirsson, H. Jonsson                     : NEB implementation
   FAccTs GmbH                                   : IRC, NEB, NEB-TS, DLPNO-Multilevel, CI-OPT
                                                   MM, QMMM, 2- and 3-layer-ONIOM, Crystal-QMMM,
                                                   LR-CPCM, SF, NACMEs, symmetry and pop. for TD-DFT,
                                                   nearIR, NL-DFT gradient (VV10), updates on ESD,
                                                   ML-optimized integration grids, MBIS, APM,
                                                   GOAT, DOCKER, SOLVATOR, interface openCOSMO-RS
   S Lehtola, MJT Oliveira, MAL Marques          : LibXC Library
   Liviu Ungur et al                             : ANISO software


 Your calculation uses the libint2 library for the computation of 2-el integrals
 For citations please refer to: http://libint.valeyev.net

 Your ORCA version has been built with support for libXC version: 6.2.2
 For citations please refer to: https://libxc.gitlab.io

 This ORCA versions uses:
   CBLAS   interface :  Fast vector & matrix operations
   LAPACKE interface :  Fast linear algebra routines
   SCALAPACK package :  Parallel linear algebra routines
   Shared memory     :  Shared parallel matrices
   BLAS/LAPACK       :  OpenBLAS 0.3.27  USE64BITINT DYNAMIC_ARCH NO_AFFINITY SkylakeX SINGLE_THREADED
        Core in use  :  SkylakeX
   Copyright (c) 2011-2014, The OpenBLAS Project


Your calculation utilizes the geometrical counterpoise correction gCP
Please cite in your paper:
H.Kruse, S. Grimme J.Chem.Phys., 136, (2012), 154101 
   

Your calculation utilizes the atom-pairwise dispersion correction
based on EEQ partial charges (D4)


Your calculation utilizes the SMD solvation module
Please cite in your paper:
A.V. Marenich, C.J. Cramer, D.G. Truhlar J. Phys. Chem. B, 113, (2009), 6378 

================================================================================

----- Orbital basis set information -----
Your calculation utilizes the basis: def2-mTZVPP
   Stefan Grimme, Andreas Hansen, Sebastian Ehlert, and Jan-Michael Mewes 
   J. Chem. Phys. 154, 064103 (2021). DOI: 10.1063/5.0040021

----- AuxJ basis set information -----
Your calculation utilizes the auxiliary basis: def2/J
   F. Weigend, Phys. Chem. Chem. Phys. 8, 1057 (2006).

================================================================================
                                        WARNINGS
                       Please study these warnings very carefully!
================================================================================

Using LibXC functional ID 497 : Re-regularized SCAN exchange by Furness et al
[ 1]  J. W. Furness, A. D. Kaplan, J. Ning, J. P. Perdew, and J. Sun.,  J. Phys. Chem. Lett. 11, 8208-8215 (2020)
[ 2]  J. W. Furness, A. D. Kaplan, J. Ning, J. P. Perdew, and J. Sun.,  J. Phys. Chem. Lett. 11, 9248-9248 (2020)
Using LibXC functional ID 498 : Re-regularized SCAN correlation by Furness et al
[ 1]  J. W. Furness, A. D. Kaplan, J. Ning, J. P. Perdew, and J. Sun.,  J. Phys. Chem. Lett. 11, 8208-8215 (2020)
[ 2]  J. W. Furness, A. D. Kaplan, J. Ning, J. P. Perdew, and J. Sun.,  J. Phys. Chem. Lett. 11, 9248-9248 (2020)
Using LibXC functional ID 497 : Re-regularized SCAN exchange by Furness et al
[ 1]  J. W. Furness, A. D. Kaplan, J. Ning, J. P. Perdew, and J. Sun.,  J. Phys. Chem. Lett. 11, 8208-8215 (2020)
[ 2]  J. W. Furness, A. D. Kaplan, J. Ning, J. P. Perdew, and J. Sun.,  J. Phys. Chem. Lett. 11, 9248-9248 (2020)
Using LibXC functional ID 498 : Re-regularized SCAN correlation by Furness et al
[ 1]  J. W. Furness, A. D. Kaplan, J. Ning, J. P. Perdew, and J. Sun.,  J. Phys. Chem. Lett. 11, 8208-8215 (2020)
[ 2]  J. W. Furness, A. D. Kaplan, J. Ning, J. P. Perdew, and J. Sun.,  J. Phys. Chem. Lett. 11, 9248-9248 (2020)

================================================================================
                                       INPUT FILE
================================================================================
NAME = sp_solv.inp
|  1> ! r2scan-3c def2/J RI DEFGRID2 scfconv6 printgap
|  2> %output
|  3>     printlevel normal
|  4> end
|  5> %cpcm
|  6>     smd true
|  7>     smdsolvent "water"
|  8> end
|  9> * xyz 0 1
| 10> C -3.5121364897 -0.826803618 0.1949020763
| 11> C -2.0959655954 -0.6490140941 -0.3365562776
| 12> C -1.2740350041 0.278744504 0.5654870497
| 13> C 0.0828375423 0.5347155582 -0.0355109017
| 14> O 0.2725062523 0.9877867859 -1.1453289338
| 15> O 1.0587752853 0.2038349063 0.8004061671
| 16> C 2.4205507733 0.369136258 0.368652481
| 17> C 2.9145956435 -0.8675360189 -0.3661250431
| 18> H -3.4921393366 -1.2469217049 1.1972368847
| 19> H -4.0287844222 0.1288267109 0.2308845267
| 20> H -4.0728568601 -1.4978322251 -0.449796557
| 21> H -2.1222670736 -0.223729402 -1.3417608474
| 22> H -1.6014390659 -1.6204554266 -0.3977773019
| 23> H -1.1451442771 -0.1516049373 1.5576285285
| 24> H -1.7874510781 1.2383894871 0.6505053965
| 25> H 2.4761252137 1.2498673001 -0.2782693524
| 26> H 2.9826558097 0.5366536747 1.287831301
| 27> H 3.9608674461 -0.738943058 -0.6234534582
| 28> H 2.8043939275 -1.7459557993 0.2639238688
| 29> H 2.3413858951 -1.0115120437 -1.2793467243
| 30> *
| 31> 
| 32>                          ****END OF INPUT****
================================================================================

                       ****************************
                       * Single Point Calculation *
                       ****************************

---------------------------------
CARTESIAN COORDINATES (ANGSTROEM)
---------------------------------
  C     -3.512136   -0.826804    0.194902
  C     -2.095966   -0.649014   -0.336556
  C     -1.274035    0.278745    0.565487
  C      0.082838    0.534716   -0.035511
  O      0.272506    0.987787   -1.145329
  O      1.058775    0.203835    0.800406
  C      2.420551    0.369136    0.368652
  C      2.914596   -0.867536   -0.366125
  H     -3.492139   -1.246922    1.197237
  H     -4.028784    0.128827    0.230885
  H     -4.072857   -1.497832   -0.449797
  H     -2.122267   -0.223729   -1.341761
  H     -1.601439   -1.620455   -0.397777
  H     -1.145144   -0.151605    1.557629
  H     -1.787451    1.238389    0.650505
  H      2.476125    1.249867   -0.278269
  H      2.982656    0.536654    1.287831
  H      3.960867   -0.738943   -0.623453
  H      2.804394   -1.745956    0.263924
  H      2.341386   -1.011512   -1.279347

----------------------------
CARTESIAN COORDINATES (A.U.)
----------------------------
  NO LB      ZA    FRAG     MASS         X           Y           Z
   0 C     6.0000    0    12.011   -6.636976   -1.562432    0.368312
   1 C     6.0000    0    12.011   -3.960801   -1.226459   -0.635999
   2 C     6.0000    0    12.011   -2.407577    0.526751    1.068616
   3 C     6.0000    0    12.011    0.156540    1.010466   -0.067106
   4 O     8.0000    0    15.999    0.514962    1.866647   -2.164358
   5 O     8.0000    0    15.999    2.000795    0.385192    1.512548
   6 C     6.0000    0    12.011    4.574178    0.697566    0.696652
   7 C     6.0000    0    12.011    5.507788   -1.639405   -0.691876
   8 H     1.0000    0     1.008   -6.599187   -2.356341    2.262450
   9 H     1.0000    0     1.008   -7.613299    0.243447    0.436309
  10 H     1.0000    0     1.008   -7.696584   -2.830493   -0.849992
  11 H     1.0000    0     1.008   -4.010504   -0.422787   -2.535561
  12 H     1.0000    0     1.008   -3.026281   -3.062217   -0.751690
  13 H     1.0000    0     1.008   -2.164009   -0.286492    2.943491
  14 H     1.0000    0     1.008   -3.377793    2.340217    1.229277
  15 H     1.0000    0     1.008    4.679199    2.361907   -0.525853
  16 H     1.0000    0     1.008    5.636403    1.014128    2.433648
  17 H     1.0000    0     1.008    7.484955   -1.396400   -1.178156
  18 H     1.0000    0     1.008    5.299536   -3.299378    0.498744
  19 H     1.0000    0     1.008    4.424578   -1.911481   -2.417615

--------------------------------
INTERNAL COORDINATES (ANGSTROEM)
--------------------------------
 C      0   0   0     0.000000000000     0.00000000     0.00000000
 C      1   0   0     1.523022356566     0.00000000     0.00000000
 C      2   1   0     1.532967083009   111.33801738     0.00000000
 C      3   2   1     1.505929223220   110.55672709   184.75097725
 O      4   3   2     1.213648969553   124.69515582    56.20216401
 O      4   3   2     1.326911387367   111.64761013   236.16345376
 C      6   4   3     1.438112743165   118.59794598   179.07565750
 C      7   6   4     1.520965701174   111.04860627   272.41982062
 H      1   2   3     1.087002374056   110.47391535   300.72459114
 H      1   2   3     1.086944869074   110.54198538    60.88480962
 H      1   2   3     1.086426736189   110.17782027   180.80329631
 H      2   1   3     1.091785264710   110.14206215   239.46956315
 H      2   1   3     1.091788791244   109.68646248   120.96311434
 H      3   2   1     1.089108890373   111.12186079    63.69154267
 H      3   2   1     1.091669674363   109.00653573   303.05619003
 H      7   6   4     1.094204526345   108.54875176    34.24585264
 H      7   6   4     1.090373266355   104.63881988   152.12677960
 H      8   7   6     1.085098496786   109.35433258   183.56930398
 H      8   7   6     1.086612792210   110.13545741   303.73892170
 H      8   7   6     1.087783227666   110.00032308    63.96043028

---------------------------
INTERNAL COORDINATES (A.U.)
---------------------------
 C      0   0   0     0.000000000000     0.00000000     0.00000000
 C      1   0   0     2.878095149750     0.00000000     0.00000000
 C      2   1   0     2.896887959203   111.33801738     0.00000000
 C      3   2   1     2.845793808955   110.55672709   184.75097725
 O      4   3   2     2.293464175171   124.69515582    56.20216401
 O      4   3   2     2.507499126106   111.64761013   236.16345376
 C      6   4   3     2.717639234283   118.59794598   179.07565750
 C      7   6   4     2.874208634306   111.04860627   272.41982062
 H      1   2   3     2.054136793888   110.47391535   300.72459114
 H      1   2   3     2.054028125221   110.54198538    60.88480962
 H      1   2   3     2.053048995968   110.17782027   180.80329631
 H      2   1   3     2.063175147352   110.14206215   239.46956315
 H      2   1   3     2.063181811535   109.68646248   120.96311434
 H      3   2   1     2.058117532824   111.12186079    63.69154267
 H      3   2   1     2.062956713253   109.00653573   303.05619003
 H      7   6   4     2.067746889289   108.54875176    34.24585264
 H      7   6   4     2.060506857159   104.63881988   152.12677960
 H      8   7   6     2.050538987255   109.35433258   183.56930398
 H      8   7   6     2.053400590892   110.13545741   303.73892170
 H      8   7   6     2.055612393362   110.00032308    63.96043028

---------------------
BASIS SET INFORMATION
---------------------
There are 3 groups of distinct atoms

 Group   1 Type C   : 11s6p1d contracted to 5s3p1d pattern {62111/411/1}
 Group   2 Type O   : 11s6p2d contracted to 5s3p2d pattern {62111/411/11}
 Group   3 Type H   : 4s1p contracted to 2s1p pattern {31/1}

Atom   0C    basis set group =>   1
Atom   1C    basis set group =>   1
Atom   2C    basis set group =>   1
Atom   3C    basis set group =>   1
Atom   4O    basis set group =>   2
Atom   5O    basis set group =>   2
Atom   6C    basis set group =>   1
Atom   7C    basis set group =>   1
Atom   8H    basis set group =>   3
Atom   9H    basis set group =>   3
Atom  10H    basis set group =>   3
Atom  11H    basis set group =>   3
Atom  12H    basis set group =>   3
Atom  13H    basis set group =>   3
Atom  14H    basis set group =>   3
Atom  15H    basis set group =>   3
Atom  16H    basis set group =>   3
Atom  17H    basis set group =>   3
Atom  18H    basis set group =>   3
Atom  19H    basis set group =>   3
---------------------------------
AUXILIARY/J BASIS SET INFORMATION
---------------------------------
There are 3 groups of distinct atoms

 Group   1 Type C   : 12s5p4d2f1g contracted to 6s4p3d1f1g pattern {711111/2111/211/2/1}
 Group   2 Type O   : 12s5p4d2f1g contracted to 6s4p3d1f1g pattern {711111/2111/211/2/1}
 Group   3 Type H   : 5s2p1d contracted to 3s1p1d pattern {311/2/1}

Atom   0C    basis set group =>   1
Atom   1C    basis set group =>   1
Atom   2C    basis set group =>   1
Atom   3C    basis set group =>   1
Atom   4O    basis set group =>   2
Atom   5O    basis set group =>   2
Atom   6C    basis set group =>   1
Atom   7C    basis set group =>   1
Atom   8H    basis set group =>   3
Atom   9H    basis set group =>   3
Atom  10H    basis set group =>   3
Atom  11H    basis set group =>   3
Atom  12H    basis set group =>   3
Atom  13H    basis set group =>   3
Atom  14H    basis set group =>   3
Atom  15H    basis set group =>   3
Atom  16H    basis set group =>   3
Atom  17H    basis set group =>   3
Atom  18H    basis set group =>   3
Atom  19H    basis set group =>   3

Checking for AutoStart:
The File: sp_solv.gbw exists
Trying to determine its content:
     ... Fine, the file contains calculation information
     ... Fine, the calculation information was read
     ... Fine, the file contains a basis set
     ... Fine, the basis set was read
     ... Fine, the file contains a geometry
     ... Fine, the geometry was read
     ... Fine, the file contains a set of orbitals
     ... Fine, the orbitals can be read
     => possible old guess file was deleted
     => GBW file was renamed to GES file
     => GES file is set as startup file
     => Guess is set to MORead
     ... now leaving AutoStart

------------------------------------------------------------------------------
                             ORCA STARTUP CALCULATIONS
                           -- RI-GTO INTEGRALS CHOSEN --
------------------------------------------------------------------------------
------------------------------------------------------------------------------
                   ___                                                        
                  /   \      - P O W E R E D   B Y -                         
                 /     \                                                     
                 |  |  |   _    _      __       _____    __    __             
                 |  |  |  | |  | |    /  \     |  _  \  |  |  /  |          
                  \  \/   | |  | |   /    \    | | | |  |  | /  /          
                 / \  \   | |__| |  /  /\  \   | |_| |  |  |/  /          
                |  |  |   |  __  | /  /__\  \  |    /   |      \           
                |  |  |   | |  | | |   __   |  |    \   |  |\   \          
                \     /   | |  | | |  |  |  |  | |\  \  |  | \   \       
                 \___/    |_|  |_| |__|  |__|  |_| \__\ |__|  \__/        
                                                                              
                      - O R C A' S   B I G   F R I E N D -                    
                                      &                                       
                       - I N T E G R A L  F E E D E R -                       
                                                                              
 v1 FN, 2020, v2 2021, v3 2022-2024                                           
------------------------------------------------------------------------------


----------------------
SHARK INTEGRAL PACKAGE
----------------------

Number of atoms                             ...     20
Number of basis functions                   ...    222
Number of shells                            ...    110
Maximum angular momentum                    ...      2
Integral batch strategy                     ... SHARK/LIBINT Hybrid
RI-J (if used) integral strategy            ... SPLIT-RIJ (Revised 2003 algorithm where possible)
Printlevel                                  ...      1
Contraction scheme used                     ... SEGMENTED contraction
Prescreening option                         ... SCHWARTZ
   Thresh                                   ... 1.000e-10
   Tcut                                     ... 1.000e-11
   Tpresel                                  ... 1.000e-11 
Coulomb Range Separation                    ... NOT USED
Exchange Range Separation                   ... NOT USED
Multipole approximations                    ... NOT USED
Finite Nucleus Model                        ... NOT USED
CABS basis                                  ... NOT available
Auxiliary Coulomb fitting basis             ... AVAILABLE
   # of basis functions in Aux-J            ...    524
   # of shells in Aux-J                     ...    180
   Maximum angular momentum in Aux-J        ...      4
Auxiliary J/K fitting basis                 ... NOT available
Auxiliary Correlation fitting basis         ... NOT available
Auxiliary 'external' fitting basis          ... NOT available

Checking pre-screening integrals            ... done (  0.0 sec) Dimension = 110
Check shell pair data                       ... done (  0.0 sec)
Shell pair information
Shell pair cut-off parameter TPreSel        ...   1.0e-11
Total number of shell pairs                 ...      6105
Shell pairs after pre-screening             ...      5192
Total number of primitive shell pairs       ...     21533
Primitive shell pairs kept                  ...     12957
          la=0 lb=0:   1742 shell pairs
          la=1 lb=0:   1959 shell pairs
          la=1 lb=1:    568 shell pairs
          la=2 lb=0:    560 shell pairs
          la=2 lb=1:    313 shell pairs
          la=2 lb=2:     50 shell pairs

Calculating one electron integrals          ... done (  0.0 sec)
Calculating RI/J V-Matrix + Cholesky decomp.... done (  0.2 sec)
Calculating Nuclear repulsion               ... done (  0.0 sec) ENN=    388.844041000860 Eh

Diagonalization of the overlap matrix:
Smallest eigenvalue                        ... 1.299e-04
Time for diagonalization                   ...    0.011 sec
Threshold for overlap eigenvalues          ... 1.000e-07
Number of eigenvalues below threshold      ... 0
Time for construction of square roots      ...    0.015 sec
Total time needed                          ...    0.052 sec

-------------------
DFT GRID GENERATION
-------------------

General Integration Accuracy     IntAcc      ... 4.388
Radial Grid Type                 RadialGrid  ... OptM3 with GC (2021)
Angular Grid (max. ang.)         AngularGrid ... 4 (Lebedev-302)
Angular grid pruning method      GridPruning ... 4 (adaptive)
Weight generation scheme         WeightScheme... mBecke (2022)
Basis function cutoff            BFCut       ... 1.0000e-10
Integration weight cutoff        WCut        ... 1.0000e-14
Partially contracted basis set               ... off
Rotationally invariant grid construction     ... off
Angular grids for H and He will be reduced by one unit
Diffuse basis detected: some atoms will have their outermost
                        angular grid increased by 1.

Total number of grid points                  ...    87473
Total number of batches                      ...     1377
Average number of points per batch           ...       63
Average number of grid points per atom       ...     4374
Initializing property integral containers    ... done (  0.0 sec)

SHARK setup successfully completed in   1.6 seconds

Maximum memory used throughout the entire STARTUP-calculation: 39.1 MB
-------------------------------------------------------------------------------
                                 ORCA GUESS
                   Start orbitals & Density for SCF / CASSCF
-------------------------------------------------------------------------------

------------
SCF SETTINGS
------------
Hamiltonian:
 Density Functional     Method          .... DFT(GTOs)
  Functional kind                       .... Exchange
  Functional name                       .... Re-regularized SCAN exchange by Furness et al
  Functional family                     .... MGGA
  Functional refs                              
    [ 0] J. W. Furness, A. D. Kaplan, J. Ning, J. P. Perdew, and J. Sun.,  J. Phys. Chem. Lett. 11, 8208-8215 (2020), doi: 10.1021/acs.jpclett.0c02405
    [ 1] J. W. Furness, A. D. Kaplan, J. Ning, J. P. Perdew, and J. Sun.,  J. Phys. Chem. Lett. 11, 9248-9248 (2020), doi: 10.1021/acs.jpclett.0c03077
  Functional external parameters        .... 6
    Parameter  0 _c1        =  6.670000e-01 : c1 parameter        
    Parameter  1 _c2        =  8.000000e-01 : c2 parameter        
    Parameter  2 _d         =  1.240000e+00 : d parameter         
    Parameter  3 _k1        =  6.500000e-02 : k1 parameter        
    Parameter  4 _eta       =  1.000000e-03 : eta parameter       
    Parameter  5 _dp2       =  3.610000e-01 : dp2 parameter       
  Functional kind                       .... Correlation
  Functional name                       .... Re-regularized SCAN correlation by Furness et al
  Functional family                     .... MGGA
  Functional refs                              
    [ 0] J. W. Furness, A. D. Kaplan, J. Ning, J. P. Perdew, and J. Sun.,  J. Phys. Chem. Lett. 11, 8208-8215 (2020), doi: 10.1021/acs.jpclett.0c02405
    [ 1] J. W. Furness, A. D. Kaplan, J. Ning, J. P. Perdew, and J. Sun.,  J. Phys. Chem. Lett. 11, 9248-9248 (2020), doi: 10.1021/acs.jpclett.0c03077
  Functional external parameters        .... 1
    Parameter  0 _eta       =  1.000000e-03 : Regularization parameter
 Gradients option       PostSCFGGA      .... off
 RI-approximation to the Coulomb term is turned on
   Number of AuxJ basis functions       .... 524


General Settings:
 Integral files         IntName         .... sp_solv
 Hartree-Fock type      HFTyp           .... RHF
 Total Charge           Charge          ....    0
 Multiplicity           Mult            ....    1
 Number of Electrons    NEL             ....   64
 Basis Dimension        Dim             ....  222
 Nuclear Repulsion      ENuc            ....    388.8440410009 Eh

Convergence Acceleration:
 AO-DIIS                CNVDIIS         .... on
   Start iteration      DIISMaxIt       ....    12
   Startup error        DIISStart       ....  0.200000
   # of expansion vecs  DIISMaxEq       ....     5
   Bias factor          DIISBfac        ....   1.050
   Max. coefficient     DIISMaxC        ....  10.000
 MO-DIIS                CNVKDIIS        .... off
 Trust-Rad. Augm. Hess. CNVTRAH         .... auto
   Auto Start mean grad. ratio tolernc. ....  1.125000
   Auto Start start iteration           ....     1
   Auto Start num. interpolation iter.  ....    10
   Max. Number of Micro iterations      ....    24
   Max. Number of Macro iterations      .... Maxiter - #DIIS iter
   Number of Davidson start vectors     ....     2
   Converg. threshold    (grad. norm)   ....   3.330e-04
   Grad. Scal. Fac. for Micro threshold ....   0.100
   Minimum threshold for Micro iter.    ....   1.000e-02
   NR start threshold (gradient norm)   ....   1.000e-04
   Initial trust radius                 ....   0.400
   Minimum AH scaling param. (alpha)    ....   1.000
   Maximum AH scaling param. (alpha)    .... 1000.000
   Quad. conv. algorithm                .... NR
   White noise on init. David. guess    .... on
   Maximum white noise                  ....   0.010
   Pseudo random numbers                .... off
   Inactive MOs                         .... canonical
   Orbital update algorithm             .... Taylor
   Preconditioner                       .... Diag
   Full preconditioner red. dimension   ....   250
   COSX micro iterations for RIJONX calc.... off
 SOSCF                  CNVSOSCF        .... on
   Start iteration      SOSCFMaxIt      ....   150
   Startup grad/error   SOSCFStart      ....  0.003300
   Hessian update       SOSCFHessUp     .... L-BFGS
 Level Shifting         CNVShift        .... on
   Level shift para.    LevelShift      ....    0.2500
   Turn off err/grad.   ShiftErr        ....    0.0010
 Zerner damping         CNVZerner       .... off
 Static damping         CNVDamp         .... on
   Fraction old density DampFac         ....    0.7000
   Max. Damping (<1)    DampMax         ....    0.9800
   Min. Damping (>=0)   DampMin         ....    0.0000
   Turn off err/grad.   DampErr         ....    0.1000

SCF Procedure:
 Maximum # iterations   MaxIter         ....   125
 SCF integral mode      SCFMode         .... Direct
   Integral package                     .... SHARK and LIBINT hybrid scheme
 Reset frequency        DirectResetFreq ....    20
 Integral Threshold     Thresh          ....  1.000e-10 Eh
 Primitive CutOff       TCut            ....  1.000e-11 Eh

Convergence Tolerance:
 Convergence Check Mode ConvCheckMode   .... Total+1el-Energy
 Convergence forced     ConvForced      .... 0
 Energy Change          TolE            ....  1.000e-06 Eh
 1-El. energy change                    ....  1.000e-03 Eh
 Orbital Gradient       TolG            ....  3.330e-04
 Orbital Rotation angle TolX            ....  3.330e-04
 DIIS Error             TolErr          ....  1.000e-06

---------------------
INITIAL GUESS: MOREAD
---------------------
Guess MOs are being read from file: sp_solv.ges
Input Geometry matches current geometry (good)
Atom 0: N(Shells)= 9 and 6 - projection required
Input basis set needs projection
NBasis(read)= 136
NBasis(calc)= 222
Basis set overlap was calculated
Using GuessMode=FMatrix for the initial guess
C*T matrix was formed
Effective Fockian was calculated
Effective Fockian was diagonalized
Initial density was built
                      ------------------
                      INITIAL GUESS DONE (   0.1 sec)
                      ------------------
             **** ENERGY FILE WAS UPDATED (sp_solv.en.tmp) ****
Finished Guess after   0.4 sec
Maximum memory used throughout the entire GUESS-calculation: 14.9 MB

-------------------------------------------------------------------------------------------
                                      ORCA LEAN-SCF
                              memory conserving SCF solver
-------------------------------------------------------------------------------------------

--------------------
CPCM SOLVATION MODEL
--------------------
CPCM parameters:
  Epsilon                                         ...      78.3550
  Refrac                                          ...       1.3328
  Rsolv                                           ...       1.3000
  Surface type                                    ... GAUSSIAN VDW
  Discretization scheme                           ... Constant charge density
    Threshold for H atoms                         ...       5.0000 (charges/Ang^2)
    Threshold for non-H atoms                     ...       5.0000 (charges/Ang^2)
  Epsilon function type                           ...         CPCM
Solvent:                                          ... WATER
SMD-CDS solvent descriptors:
  Soln                                            ...       1.3328
  Soln25                                          ...       1.3323
  Sola                                            ...       0.0000
  Solb                                            ...       0.0000
  Solg                                            ...       0.0000
  Solc                                            ...       0.0000
  Solh                                            ...       0.0000
Radii:
  Scheme                                          ... Element-dependent radii
  Radius for C  used is    3.4960 Bohr (=   1.8500 Ang.)
  Radius for O  used is    2.8724 Bohr (=   1.5200 Ang.)
  Radius for H  used is    2.2677 Bohr (=   1.2000 Ang.)
Calculating surface                               ...        done! (  0.0s)
Cavity surface points                             ...         1502
Cavity Volume                                     ...     881.3731
Cavity Surface-area                               ...     590.3707
Calculating surface distance matrix               ...        done! (  0.0s)
Performing Cholesky decomposition & store         ...        done! (  0.2s)
Overall time for CPCM initialization              ...                 0.2s

----------------------------------------D-I-I-S--------------------------------------------
Iteration    Energy (Eh)           Delta-E    RMSDP     MaxDP     DIISErr   Damp  Time(sec)
-------------------------------------------------------------------------------------------
               ***  Starting incremental Fock matrix formation  ***
    1    -386.0572743329691434     0.00e+00  3.78e-03  1.37e-01  6.26e-01  0.700   3.7
    2    -386.1161042766501055    -5.88e-02  3.04e-03  9.83e-02  4.41e-01  0.700   3.7
    3    -386.1577156213216426    -4.16e-02  2.23e-03  6.96e-02  3.10e-01  0.700   3.4
    4    -386.1869586096851776    -2.92e-02  1.59e-03  4.91e-02  2.17e-01  0.700   3.6
                               ***Turning on AO-DIIS***
    5    -386.2074902437961441    -2.05e-02  1.15e-03  3.52e-02  1.52e-01  0.700   3.3
    6    -386.2218843077982342    -1.44e-02  8.16e-04  2.49e-02  1.06e-01  0.700   3.1
    7    -386.2319882133350006    -1.01e-02  5.75e-04  1.76e-02  7.42e-02  0.700   3.3
    8    -386.2390694503877171    -7.08e-03  1.35e-03  4.09e-02  5.21e-02  0.000   3.2
                              *** Initializing SOSCF ***
---------------------------------------S-O-S-C-F--------------------------------------
Iteration    Energy (Eh)           Delta-E    RMSDP     MaxDP     MaxGrad    Time(sec)
--------------------------------------------------------------------------------------
    9    -386.2556246889841418    -1.66e-02  1.18e-05  3.66e-04  2.01e-04     3.4
               *** Restarting incremental Fock matrix formation ***
   10    -386.2556248074492373    -1.18e-07  6.92e-06  1.98e-04  5.96e-05     3.7
                  *** Gradient check signals convergence ***

               *****************************************************
               *                     SUCCESS                       *
               *           SCF CONVERGED AFTER  10 CYCLES          *
               *****************************************************


SMD CDS free energy correction energy :                 5.05388     Kcal/mol
Total Energy after SMD CDS correction =              -386.247570942 Eh
             **** ENERGY FILE WAS UPDATED (sp_solv.en.tmp) ****

----------------
TOTAL SCF ENERGY
----------------

Total Energy       :       -386.24757094210747 Eh          -10510.33074 eV

Components:
Nuclear Repulsion  :        388.84404100085970 Eh           10580.98428 eV
Electronic Energy  :       -775.08403145310342 Eh          -21091.10875 eV
One Electron Energy:      -1295.03878599856944 Eh          -35239.79692 eV
Two Electron Energy:        519.95475454546602 Eh           14148.68818 eV
CPCM Dielectric    :         -0.01563435520555 Eh              -0.42543 eV
SMD CDS (Gcds)     :          0.00805386534179 Eh               0.21916 eV

Virial components:
Potential Energy   :       -770.89205385595415 Eh          -20977.03924 eV
Kinetic Energy     :        384.64448291384667 Eh           10466.70850 eV
Virial Ratio       :          2.00416771356271

DFT components:
N(Alpha)           :       32.000033174770 electrons
N(Beta)            :       32.000033174770 electrons
N(Total)           :       64.000066349541 electrons
E(X)               :      -52.084549980811 Eh       
E(C)               :       -2.037283592846 Eh       
E(XC)              :      -54.121833573657 Eh       

CPCM Solvation Model Properties:
Surface-charge          :         -0.04775343245364
Corrected charge        :         -0.00000000000000
Outlying charge corr.   :          0.00017046807578 Eh               0.00464 eV
Free-energy (cav+disp)  :          0.00805386534179 Eh               0.21916 eV

---------------
SCF CONVERGENCE
---------------

  Last Energy change         ...    1.1847e-07  Tolerance :   1.0000e-06
  Last MAX-Density change    ...    1.9773e-04  Tolerance :   1.0000e-05
  Last RMS-Density change    ...    6.9182e-06  Tolerance :   1.0000e-06
  Last DIIS Error            ...    2.0105e-04  Tolerance :   1.0000e-06
  Last Orbital Gradient      ...    5.9643e-05  Tolerance :   3.3300e-04
  Last Orbital Rotation      ...    1.4078e-04  Tolerance :   3.3300e-04


----------------
ORBITAL ENERGIES
----------------

  NO   OCC          E(Eh)            E(eV) 
   0   2.0000     -19.002566      -517.0861 
   1   2.0000     -18.942701      -515.4571 
   2   2.0000     -10.161821      -276.5172 
   3   2.0000     -10.082931      -274.3705 
   4   2.0000     -10.034598      -273.0553 
   5   2.0000     -10.028062      -272.8774 
   6   2.0000     -10.018393      -272.6143 
   7   2.0000     -10.011406      -272.4242 
   8   2.0000      -1.078444       -29.3459 
   9   2.0000      -0.988546       -26.8997 
  10   2.0000      -0.767726       -20.8909 
  11   2.0000      -0.733551       -19.9609 
  12   2.0000      -0.674106       -18.3434 
  13   2.0000      -0.616922       -16.7873 
  14   2.0000      -0.559156       -15.2154 
  15   2.0000      -0.519010       -14.1230 
  16   2.0000      -0.473021       -12.8715 
  17   2.0000      -0.458511       -12.4767 
  18   2.0000      -0.446229       -12.1425 
  19   2.0000      -0.421667       -11.4742 
  20   2.0000      -0.407710       -11.0943 
  21   2.0000      -0.384876       -10.4730 
  22   2.0000      -0.364451        -9.9172 
  23   2.0000      -0.360905        -9.8207 
  24   2.0000      -0.350863        -9.5475 
  25   2.0000      -0.338462        -9.2100 
  26   2.0000      -0.317915        -8.6509 
  27   2.0000      -0.305819        -8.3218 
  28   2.0000      -0.303468        -8.2578 
  29   2.0000      -0.296420        -8.0660 
  30   2.0000      -0.278228        -7.5710 
  31   2.0000      -0.251402        -6.8410 
  32   0.0000      -0.022526        -0.6130 
  33   0.0000       0.080655         2.1947 
  34   0.0000       0.100978         2.7477 
  35   0.0000       0.113453         3.0872 
  36   0.0000       0.133297         3.6272 
  37   0.0000       0.137249         3.7347 
  38   0.0000       0.138883         3.7792 
  39   0.0000       0.150124         4.0851 
  40   0.0000       0.154827         4.2131 
  41   0.0000       0.160308         4.3622 
  42   0.0000       0.169825         4.6212 
*Only the first 10 virtual orbitals were printed.

                    ********************************
                    * MULLIKEN POPULATION ANALYSIS *
                    ********************************

-----------------------
MULLIKEN ATOMIC CHARGES
-----------------------
   0 C :   -0.516209
   1 C :   -0.224494
   2 C :   -0.369776
   3 C :    0.458647
   4 O :   -0.520485
   5 O :   -0.200867
   6 C :   -0.143973
   7 C :   -0.493119
   8 H :    0.157322
   9 H :    0.159026
  10 H :    0.161201
  11 H :    0.158258
  12 H :    0.155035
  13 H :    0.178921
  14 H :    0.191793
  15 H :    0.171659
  16 H :    0.173317
  17 H :    0.170309
  18 H :    0.165678
  19 H :    0.167755
Sum of atomic charges:   -0.0000000

--------------------------------
MULLIKEN REDUCED ORBITAL CHARGES
--------------------------------
  0 C s       :     3.354685  s :     3.354685
      pz      :     1.080692  p :     3.134557
      px      :     0.953293
      py      :     1.100572
      dz2     :     0.005961  d :     0.026967
      dxz     :     0.004851
      dyz     :     0.004227
      dx2y2   :     0.004764
      dxy     :     0.007164

  1 C s       :     3.202361  s :     3.202361
      pz      :     1.014819  p :     2.985204
      px      :     0.935440
      py      :     1.034945
      dz2     :     0.008432  d :     0.036929
      dxz     :     0.006595
      dyz     :     0.005638
      dx2y2   :     0.007401
      dxy     :     0.008863

  2 C s       :     3.290819  s :     3.290819
      pz      :     1.024561  p :     3.044372
      px      :     0.954638
      py      :     1.065173
      dz2     :     0.007959  d :     0.034585
      dxz     :     0.006869
      dyz     :     0.005223
      dx2y2   :     0.008304
      dxy     :     0.006230

  3 C s       :     3.124896  s :     3.124896
      pz      :     0.743548  p :     2.291239
      px      :     0.824866
      py      :     0.722825
      dz2     :     0.029317  d :     0.125218
      dxz     :     0.045990
      dyz     :     0.021559
      dx2y2   :     0.012349
      dxy     :     0.016002

  4 O s       :     3.832595  s :     3.832595
      pz      :     1.359581  p :     4.663528
      px      :     1.819904
      py      :     1.484044
      dz2     :     0.009613  d :     0.024361
      dxz     :     0.001469
      dyz     :     0.007743
      dx2y2   :     0.002470
      dxy     :     0.003066

  5 O s       :     3.705810  s :     3.705810
      pz      :     1.621180  p :     4.459086
      px      :     1.114124
      py      :     1.723782
      dz2     :     0.007422  d :     0.035972
      dxz     :     0.009933
      dyz     :     0.008887
      dx2y2   :     0.004668
      dxy     :     0.005062

  6 C s       :     3.263903  s :     3.263903
      pz      :     1.079087  p :     2.827138
      px      :     0.728882
      py      :     1.019170
      dz2     :     0.006958  d :     0.052931
      dxz     :     0.012323
      dyz     :     0.009113
      dx2y2   :     0.015027
      dxy     :     0.009510

  7 C s       :     3.336771  s :     3.336771
      pz      :     1.060569  p :     3.130812
      px      :     1.090699
      py      :     0.979544
      dz2     :     0.004046  d :     0.025537
      dxz     :     0.004333
      dyz     :     0.007420
      dx2y2   :     0.007093
      dxy     :     0.002645

  8 H s       :     0.824395  s :     0.824395
      pz      :     0.009980  p :     0.018283
      px      :     0.003524
      py      :     0.004778

  9 H s       :     0.822703  s :     0.822703
      pz      :     0.003702  p :     0.018271
      px      :     0.005282
      py      :     0.009288

 10 H s       :     0.820420  s :     0.820420
      pz      :     0.006196  p :     0.018378
      px      :     0.005669
      py      :     0.006513

 11 H s       :     0.823810  s :     0.823810
      pz      :     0.009992  p :     0.017932
      px      :     0.003360
      py      :     0.004580

 12 H s       :     0.827084  s :     0.827084
      pz      :     0.003489  p :     0.017882
      px      :     0.004896
      py      :     0.009497

 13 H s       :     0.803187  s :     0.803187
      pz      :     0.010172  p :     0.017892
      px      :     0.003177
      py      :     0.004543

 14 H s       :     0.790050  s :     0.790050
      pz      :     0.003477  p :     0.018156
      px      :     0.005206
      py      :     0.009474

 15 H s       :     0.810452  s :     0.810452
      pz      :     0.006586  p :     0.017889
      px      :     0.002377
      py      :     0.008925

 16 H s       :     0.809146  s :     0.809146
      pz      :     0.009056  p :     0.017537
      px      :     0.004784
      py      :     0.003697

 17 H s       :     0.811177  s :     0.811177
      pz      :     0.004133  p :     0.018514
      px      :     0.010780
      py      :     0.003602

 18 H s       :     0.816036  s :     0.816036
      pz      :     0.005994  p :     0.018286
      px      :     0.003650
      py      :     0.008642

 19 H s       :     0.813977  s :     0.813977
      pz      :     0.008970  p :     0.018268
      px      :     0.005612
      py      :     0.003687


------------------------
MULLIKEN OVERLAP CHARGES
------------------------
B(  0-C ,  1-C ) :   0.4613 B(  0-C ,  2-C ) :  -0.1830 B(  0-C ,  8-H ) :   0.8445 
B(  0-C ,  9-H ) :   0.8697 B(  0-C , 10-H ) :   0.8081 B(  0-C , 11-H ) :  -0.0571 
B(  1-C ,  2-C ) :   0.4115 B(  1-C ,  8-H ) :  -0.0817 B(  1-C ,  9-H ) :  -0.1122 
B(  1-C , 10-H ) :  -0.0808 B(  1-C , 11-H ) :   0.8515 B(  1-C , 12-H ) :   0.8059 
B(  1-C , 14-H ) :  -0.0962 B(  2-C ,  3-C ) :   0.4454 B(  2-C ,  4-O ) :  -0.1331 
B(  2-C , 11-H ) :  -0.0609 B(  2-C , 12-H ) :  -0.0518 B(  2-C , 13-H ) :   0.8685 
B(  2-C , 14-H ) :   0.8531 B(  3-C ,  4-O ) :   0.9380 B(  3-C ,  5-O ) :   0.4076 
B(  3-C ,  6-C ) :  -0.1919 B(  3-C , 13-H ) :  -0.1267 B(  4-O ,  5-O ) :  -0.2144 
B(  5-O ,  6-C ) :   0.2962 B(  5-O ,  7-C ) :  -0.0978 B(  5-O , 15-H ) :  -0.0665 
B(  5-O , 16-H ) :  -0.0860 B(  6-C ,  7-C ) :   0.5400 B(  6-C , 15-H ) :   0.8485 
B(  6-C , 16-H ) :   0.7974 B(  6-C , 17-H ) :  -0.0686 B(  6-C , 18-H ) :  -0.0692 
B(  6-C , 19-H ) :  -0.0831 B(  7-C , 15-H ) :  -0.0755 B(  7-C , 17-H ) :   0.8073 
B(  7-C , 18-H ) :   0.8321 B(  7-C , 19-H ) :   0.8391 B(  8-H ,  9-H ) :  -0.0521 



                     *******************************
                     * LOEWDIN POPULATION ANALYSIS *
                     *******************************

----------------------
LOEWDIN ATOMIC CHARGES
----------------------
   0 C :   -0.425971
   1 C :   -0.289833
   2 C :   -0.227228
   3 C :    0.369866
   4 O :   -0.498973
   5 O :   -0.598282
   6 C :    0.031586
   7 C :   -0.393077
   8 H :    0.154717
   9 H :    0.154473
  10 H :    0.155803
  11 H :    0.162247
  12 H :    0.160447
  13 H :    0.184093
  14 H :    0.189825
  15 H :    0.189593
  16 H :    0.188812
  17 H :    0.167752
  18 H :    0.161891
  19 H :    0.162259

-------------------------------
LOEWDIN REDUCED ORBITAL CHARGES
-------------------------------
  0 C s       :     2.973520  s :     2.973520
      pz      :     1.150222  p :     3.389578
      px      :     1.080894
      py      :     1.158462
      dz2     :     0.014302  d :     0.062873
      dxz     :     0.010751
      dyz     :     0.010484
      dx2y2   :     0.011128
      dxy     :     0.016208

  1 C s       :     2.935196  s :     2.935196
      pz      :     1.107737  p :     3.274888
      px      :     1.055762
      py      :     1.111390
      dz2     :     0.018648  d :     0.079749
      dxz     :     0.013675
      dyz     :     0.012668
      dx2y2   :     0.016111
      dxy     :     0.018646

  2 C s       :     2.924890  s :     2.924890
      pz      :     1.099225  p :     3.229174
      px      :     1.013773
      py      :     1.116176
      dz2     :     0.017423  d :     0.073164
      dxz     :     0.014051
      dyz     :     0.011904
      dx2y2   :     0.015824
      dxy     :     0.013962

  3 C s       :     2.737361  s :     2.737361
      pz      :     0.938928  p :     2.621026
      px      :     0.951320
      py      :     0.730779
      dz2     :     0.065603  d :     0.271746
      dxz     :     0.102864
      dyz     :     0.046919
      dx2y2   :     0.025491
      dxy     :     0.030869

  4 O s       :     3.543446  s :     3.543446
      pz      :     1.492270  p :     4.733189
      px      :     1.757692
      py      :     1.483228
      dz2     :     0.065369  d :     0.222338
      dxz     :     0.067857
      dyz     :     0.050674
      dx2y2   :     0.017769
      dxy     :     0.020669

  5 O s       :     3.465799  s :     3.465799
      pz      :     1.636335  p :     4.656303
      px      :     1.334231
      py      :     1.685737
      dz2     :     0.075542  d :     0.476181
      dxz     :     0.136687
      dyz     :     0.046466
      dx2y2   :     0.121010
      dxy     :     0.096476

  6 C s       :     2.871191  s :     2.871191
      pz      :     1.081381  p :     2.978372
      px      :     0.827724
      py      :     1.069266
      dz2     :     0.013447  d :     0.118850
      dxz     :     0.029994
      dyz     :     0.021889
      dx2y2   :     0.033461
      dxy     :     0.020059

  7 C s       :     2.974499  s :     2.974499
      pz      :     1.131769  p :     3.358637
      px      :     1.135328
      py      :     1.091540
      dz2     :     0.009061  d :     0.059941
      dxz     :     0.010446
      dyz     :     0.017430
      dx2y2   :     0.017676
      dxy     :     0.005329

  8 H s       :     0.801465  s :     0.801465
      pz      :     0.024811  p :     0.043819
      px      :     0.007937
      py      :     0.011071

  9 H s       :     0.801726  s :     0.801726
      pz      :     0.008192  p :     0.043800
      px      :     0.012375
      py      :     0.023233

 10 H s       :     0.800284  s :     0.800284
      pz      :     0.014998  p :     0.043913
      px      :     0.013300
      py      :     0.015614

 11 H s       :     0.794007  s :     0.794007
      pz      :     0.025020  p :     0.043746
      px      :     0.007771
      py      :     0.010955

 12 H s       :     0.796087  s :     0.796087
      pz      :     0.008007  p :     0.043467
      px      :     0.011885
      py      :     0.023574

 13 H s       :     0.771581  s :     0.771581
      pz      :     0.025719  p :     0.044326
      px      :     0.007370
      py      :     0.011237

 14 H s       :     0.765437  s :     0.765437
      pz      :     0.008075  p :     0.044738
      px      :     0.012591
      py      :     0.024072

 15 H s       :     0.767366  s :     0.767366
      pz      :     0.015741  p :     0.043041
      px      :     0.005587
      py      :     0.021713

 16 H s       :     0.770604  s :     0.770604
      pz      :     0.022748  p :     0.040584
      px      :     0.009471
      py      :     0.008364

 17 H s       :     0.787675  s :     0.787675
      pz      :     0.009381  p :     0.044573
      px      :     0.026995
      py      :     0.008196

 18 H s       :     0.794223  s :     0.794223
      pz      :     0.014681  p :     0.043886
      px      :     0.008131
      py      :     0.021075

 19 H s       :     0.793627  s :     0.793627
      pz      :     0.022223  p :     0.044113
      px      :     0.013625
      py      :     0.008265


---------------------------------
LOEWDIN BOND ORDERS (THRESH 0.050000)
---------------------------------
B(  0-C ,  1-C ) :   1.1438 B(  0-C ,  2-C ) :   0.0745 B(  0-C ,  8-H ) :   0.9274 
B(  0-C ,  9-H ) :   0.9288 B(  0-C , 10-H ) :   0.9272 B(  1-C ,  2-C ) :   1.0735 
B(  1-C ,  3-C ) :   0.0807 B(  1-C , 11-H ) :   0.8873 B(  1-C , 12-H ) :   0.8926 
B(  2-C ,  3-C ) :   0.9294 B(  2-C ,  4-O ) :   0.1824 B(  2-C ,  5-O ) :   0.1883 
B(  2-C , 13-H ) :   0.8626 B(  2-C , 14-H ) :   0.8582 B(  3-C ,  4-O ) :   2.1334 
B(  3-C ,  5-O ) :   1.4682 B(  3-C ,  6-C ) :   0.0840 B(  4-O ,  5-O ) :   0.4550 
B(  4-O ,  6-C ) :   0.0654 B(  5-O ,  6-C ) :   1.3047 B(  5-O ,  7-C ) :   0.1579 
B(  5-O , 15-H ) :   0.0918 B(  5-O , 16-H ) :   0.0970 B(  6-C ,  7-C ) :   1.0838 
B(  6-C , 15-H ) :   0.8162 B(  6-C , 16-H ) :   0.8285 B(  7-C , 17-H ) :   0.9152 
B(  7-C , 18-H ) :   0.9231 B(  7-C , 19-H ) :   0.9205 

------------------------------------------
LOEWDIN REDUCED ORBITAL POPULATIONS PER MO
-------------------------------------------
THRESHOLD FOR PRINTING IS 0.1%%
                      0         1         2         3         4         5   
                 -19.00257 -18.94270 -10.16182 -10.08293 -10.03460 -10.02806
                   2.00000   2.00000   2.00000   2.00000   2.00000   2.00000
                  --------  --------  --------  --------  --------  --------
 1 C  s               0.0       0.0       0.0       0.0       0.0      99.7
 2 C  s               0.0       0.0       0.0       0.0      99.7       0.0
 3 C  s               0.0       0.0      98.9       0.0       0.0       0.0
 4 O  s               0.0      99.9       0.0       0.0       0.0       0.0
 4 O  pz              0.0       0.0       0.2       0.0       0.0       0.0
 4 O  dz2             0.0       0.0       0.2       0.0       0.0       0.0
 4 O  dyz             0.0       0.0       0.1       0.0       0.0       0.0
 5 O  s              99.9       0.0       0.0       0.0       0.0       0.0
 5 O  dxz             0.0       0.0       0.2       0.1       0.0       0.0
 5 O  dx2y2           0.0       0.0       0.1       0.2       0.0       0.0
 6 C  s               0.0       0.0       0.0      99.4       0.0       0.0

                      6         7         8         9        10        11   
                 -10.01839 -10.01141  -1.07844  -0.98855  -0.76773  -0.73355
                   2.00000   2.00000   2.00000   2.00000   2.00000   2.00000
                  --------  --------  --------  --------  --------  --------
 0 C  s               0.0      99.7       0.0       0.0       7.5       6.4
 0 C  pz              0.0       0.0       0.0       0.0       0.1       0.1
 0 C  px              0.0       0.0       0.0       0.0       2.1       0.8
 1 C  s               0.0       0.0       0.1       0.0      18.1       8.2
 1 C  pz              0.0       0.0       0.0       0.0       1.2       0.2
 1 C  px              0.0       0.1       0.2       0.1       0.0       0.4
 1 C  py              0.0       0.0       0.1       0.0       0.6       0.0
 2 C  s               0.0       0.0       1.0       0.2      20.9       1.2
 2 C  pz              0.0       0.0       0.2       0.4       0.6       0.4
 2 C  px              0.0       0.0       1.8       0.1       0.2       2.1
 2 C  py              0.0       0.0       0.0       0.1       0.6       0.5
 3 C  s               0.0       0.0      17.0       3.1       3.2       1.1
 3 C  pz              0.0       0.0       0.0      19.3       3.3       1.5
 3 C  px              0.0       0.0       4.7       1.2       5.6       0.7
 3 C  py              0.0       0.0       0.0       3.2       0.8       0.1
 3 C  dz2             0.0       0.0       0.3       0.7       0.0       0.0
 3 C  dxz             0.0       0.0       0.3       0.6       0.0       0.1
 3 C  dyz             0.0       0.0       0.4       0.3       0.0       0.0
 3 C  dx2y2           0.0       0.0       0.1       0.1       0.1       0.0
 3 C  dxy             0.0       0.0       0.0       0.1       0.0       0.0
 4 O  s               0.0       0.0      14.4      40.7       1.5       0.2
 4 O  pz              0.0       0.0       2.8       2.6       0.3       0.1
 4 O  px              0.0       0.0       0.0       0.2       0.2       0.0
 4 O  py              0.0       0.0       0.5       0.4       0.1       0.0
 4 O  dz2             0.0       0.0       0.8       0.1       0.1       0.2
 4 O  dxz             0.0       0.0       0.1       0.2       0.4       0.0
 4 O  dyz             0.0       0.0       0.5       0.0       0.1       0.0
 4 O  dxy             0.0       0.0       0.0       0.0       0.1       0.0
 5 O  s               0.0       0.0      39.4      18.8       0.0       0.8
 5 O  pz              0.0       0.0       2.3       0.4       0.0       0.1
 5 O  px              0.0       0.0       0.2       0.6       6.3      10.8
 5 O  py              0.0       0.0       0.4       0.1       0.0       0.1
 5 O  dz2             0.0       0.0       0.1       0.5       0.0       0.2
 5 O  dxz             0.0       0.0       0.3       0.6       0.4       0.8
 5 O  dyz             0.0       0.0       0.2       0.2       0.0       0.0
 5 O  dx2y2           0.0       0.0       0.3       0.1       0.0       0.7
 6 C  s               0.0       0.0       4.0       2.0       4.6      17.7
 6 C  pz              0.0       0.0       0.1       0.4       0.0       0.3
 6 C  px              0.0       0.0       5.0       1.5       0.1       0.9
 6 C  py              0.1       0.0       0.0       0.1       0.2       1.4
 6 C  dx2y2           0.0       0.0       0.2       0.1       0.0       0.0
 7 C  s              99.7       0.0       0.3       0.2       2.4      17.8
 7 C  pz              0.0       0.0       0.1       0.1       0.1       0.5
 7 C  px              0.0       0.0       0.3       0.1       0.1       0.1
 7 C  py              0.0       0.0       0.3       0.1       0.3       1.3
 8 H  s               0.0       0.0       0.0       0.0       1.0       1.0
 9 H  s               0.0       0.0       0.0       0.0       1.0       1.0
10 H  s               0.0       0.0       0.0       0.0       0.9       0.9
11 H  s               0.0       0.0       0.0       0.0       2.3       1.2
11 H  pz              0.0       0.0       0.0       0.0       0.2       0.1
12 H  s               0.0       0.0       0.0       0.0       2.3       1.2
12 H  py              0.0       0.0       0.0       0.0       0.2       0.1
13 H  s               0.0       0.0       0.1       0.0       3.1       0.1
13 H  pz              0.0       0.0       0.0       0.0       0.3       0.0
14 H  s               0.0       0.0       0.0       0.0       2.9       0.2
14 H  py              0.0       0.0       0.0       0.0       0.2       0.0
15 H  s               0.0       0.0       0.3       0.1       0.6       2.7
15 H  py              0.0       0.0       0.0       0.0       0.0       0.2
16 H  s               0.0       0.0       0.2       0.2       0.8       3.2
16 H  pz              0.0       0.0       0.0       0.0       0.0       0.2
17 H  s               0.0       0.0       0.0       0.0       0.3       2.9
17 H  px              0.0       0.0       0.0       0.0       0.0       0.2
18 H  s               0.0       0.0       0.0       0.0       0.3       2.8
18 H  py              0.0       0.0       0.0       0.0       0.0       0.2
19 H  s               0.0       0.0       0.0       0.0       0.3       2.7
19 H  pz              0.0       0.0       0.0       0.0       0.0       0.2

                     12        13        14        15        16        17   
                  -0.67411  -0.61692  -0.55916  -0.51901  -0.47302  -0.45851
                   2.00000   2.00000   2.00000   2.00000   2.00000   2.00000
                  --------  --------  --------  --------  --------  --------
 0 C  s              18.8       6.2       8.5       0.1       0.3       0.0
 0 C  pz              0.1       0.0       1.9       0.4       0.8       0.0
 0 C  px              0.1       0.8       6.4       0.2       1.5       0.1
 0 C  py              0.0       0.1       0.0       0.1       0.5       0.7
 0 C  dx2y2           0.0       0.0       0.1       0.0       0.0       0.0
 1 C  s               2.8       0.7      14.6       0.9       0.0       0.1
 1 C  pz              0.1       0.0       4.0       1.1       5.1       0.0
 1 C  px              7.3       2.9       2.6       0.0       0.1       0.0
 1 C  py              1.5       0.7       0.8       0.8       0.3       2.5
 1 C  dxz             0.1       0.0       0.0       0.0       0.0       0.0
 2 C  s              10.3       3.8       2.6       1.5       2.2       0.2
 2 C  pz              0.1       0.1       3.4       1.0       9.0       1.7
 2 C  px              2.4       0.9       1.3       1.1       9.8       2.0
 2 C  py              0.7       0.0       4.5       0.3       0.3       1.7
 2 C  dxz             0.0       0.0       0.1       0.0       0.2       0.0
 2 C  dyz             0.0       0.0       0.1       0.0       0.0       0.0
 2 C  dx2y2           0.0       0.0       0.0       0.0       0.1       0.0
 3 C  s               2.6       1.4       0.7       2.8       2.9       1.0
 3 C  pz              1.7       1.3       0.8       0.6       0.5       4.5
 3 C  px              4.7       2.6       2.2       1.5      10.2       0.2
 3 C  py              0.3       0.4       0.8       0.0       0.4       0.2
 3 C  dz2             0.0       0.0       0.0       0.0       0.0       0.2
 3 C  dxz             0.1       0.1       0.1       0.0       0.0       0.0
 4 O  s               0.9       0.2       0.1       2.9       2.7       9.7
 4 O  pz              0.4       0.3       0.4       4.0       4.4      19.8
 4 O  px              0.3       0.2       0.2       0.7      10.2       0.1
 4 O  py              0.1       0.1       0.1       0.5       1.9       5.0
 4 O  dz2             0.1       0.1       0.1       0.2       0.0       0.1
 4 O  dxz             0.4       0.0       0.1       0.1       0.9       0.0
 4 O  dyz             0.1       0.1       0.0       0.1       0.1       0.2
 4 O  dx2y2           0.0       0.1       0.0       0.0       0.0       0.0
 4 O  dxy             0.0       0.0       0.0       0.0       0.2       0.0
 5 O  s               1.3       0.1       0.6       5.1       0.3       1.0
 5 O  pz              0.1       1.6       0.2       8.3       4.6      12.7
 5 O  px              1.9      17.5       0.1       6.7       0.3       8.1
 5 O  py              0.0       0.1       0.5       4.7       1.9       0.0
 5 O  dz2             0.3       0.2       0.3       0.0       0.3       0.4
 5 O  dxz             0.0       0.1       0.0       0.1       1.2       0.0
 5 O  dyz             0.0       0.0       0.0       0.2       0.1       0.0
 5 O  dx2y2           0.8       0.3       0.7       0.4       0.4       0.3
 5 O  dxy             0.1       0.4       0.0       0.3       0.1       0.1
 6 C  s               0.8       4.3       2.2       6.1       0.1       0.5
 6 C  pz              1.1       4.1       0.2       3.2       6.6       2.9
 6 C  px              2.0       1.7       0.5       5.8       0.7       8.7
 6 C  py              1.0       3.2       1.2       8.7       1.5       0.6
 6 C  dxz             0.0       0.0       0.0       0.3       0.0       0.0
 6 C  dx2y2           0.1       0.1       0.0       0.1       0.0       0.0
 7 C  s               9.4      14.6       0.9       1.5       0.0       0.0
 7 C  pz              0.0       0.9       0.3       0.1       2.1       0.8
 7 C  px              0.0       0.3       0.0       0.1       0.1       2.9
 7 C  py              0.0       1.4       0.9       6.1       0.2       0.3
 8 H  s               3.7       1.7       4.1       0.1       0.0       0.0
 8 H  pz              0.3       0.1       0.2       0.0       0.0       0.0
 9 H  s               3.6       1.6       4.1       0.1       0.1       0.3
 9 H  py              0.2       0.1       0.3       0.0       0.0       0.0
10 H  s               4.0       1.9       3.2       0.0       1.1       0.0
10 H  pz              0.1       0.1       0.1       0.0       0.0       0.0
10 H  py              0.1       0.1       0.1       0.0       0.0       0.0
11 H  s               0.5       0.2       6.5       0.6       0.8       0.0
11 H  pz              0.0       0.0       0.4       0.0       0.0       0.0
11 H  py              0.0       0.0       0.1       0.0       0.0       0.0
12 H  s               0.5       0.2       6.9       0.8       0.1       0.9
12 H  py              0.0       0.0       0.4       0.0       0.0       0.0
13 H  s               2.2       0.6       1.5       1.0       4.8       0.9
13 H  pz              0.2       0.0       0.1       0.0       0.2       0.0
14 H  s               2.2       1.2       2.2       1.4       2.3       1.3
14 H  py              0.1       0.1       0.1       0.1       0.2       0.0
15 H  s               0.1       1.0       1.2       9.8       1.7       0.1
15 H  pz              0.0       0.1       0.0       0.2       0.0       0.0
15 H  py              0.0       0.0       0.0       0.4       0.1       0.0
16 H  s               0.1       2.2       1.4       2.4       2.0       4.4
16 H  pz              0.0       0.1       0.1       0.2       0.0       0.2
16 H  px              0.0       0.1       0.0       0.0       0.0       0.0
17 H  s               2.1       4.5       0.3       0.3       0.0       0.6
17 H  px              0.2       0.3       0.0       0.0       0.0       0.0
18 H  s               1.9       3.9       0.5       2.4       0.3       0.0
18 H  pz              0.1       0.1       0.0       0.1       0.0       0.0
18 H  py              0.1       0.2       0.0       0.1       0.0       0.0
19 H  s               1.9       4.4       0.5       0.9       0.6       0.8
19 H  pz              0.1       0.2       0.0       0.0       0.0       0.0
19 H  px              0.0       0.1       0.0       0.0       0.0       0.0

                     18        19        20        21        22        23   
                  -0.44623  -0.42167  -0.40771  -0.38488  -0.36445  -0.36091
                   2.00000   2.00000   2.00000   2.00000   2.00000   2.00000
                  --------  --------  --------  --------  --------  --------
 0 C  pz              2.2       3.1       0.4      10.4      16.6       1.2
 0 C  px              0.1       2.6       1.2       0.0       1.8       6.8
 0 C  py              1.4       5.8       8.0       5.4       0.0       1.7
 0 C  dyz             0.0       0.0       0.0       0.1       0.1       0.0
 1 C  s               0.4       0.1       0.1       0.0       0.1       0.1
 1 C  pz              3.6       6.8       1.2       3.3       2.1       0.8
 1 C  px              2.4       0.7       1.2       2.4       0.9       2.4
 1 C  py              2.4      11.7       5.8       4.2       0.0       0.7
 2 C  s               0.1       0.0       0.0       0.2       0.3       0.3
 2 C  pz              0.6       3.9       0.1       6.2       9.7       0.1
 2 C  px              1.5       0.0       7.4       0.2       0.0       1.3
 2 C  py             10.4       3.4       0.1       5.0       0.4       4.5
 2 C  dz2             0.0       0.0       0.0       0.0       0.2       0.1
 3 C  s               0.0       0.3       0.2       0.0       0.1       0.0
 3 C  pz              1.7       2.0       1.0       0.7       3.6       0.3
 3 C  px              0.1       0.5       5.9       0.6       0.6       0.1
 3 C  py             15.8       3.8       0.5       1.6       1.8       1.2
 3 C  dz2             0.0       0.0       0.0       0.0       0.2       0.0
 3 C  dxz             0.1       0.0       0.0       0.1       0.1       0.1
 3 C  dyz             0.0       0.0       0.0       0.0       0.0       0.1
 3 C  dxy             0.0       0.1       0.0       0.0       0.0       0.2
 4 O  s               0.0       2.2       0.3       0.0       0.5       0.1
 4 O  pz              1.8      15.0       2.1       0.2       1.7       2.0
 4 O  px              0.1       0.0       1.0       1.2       0.3       2.0
 4 O  py              7.3       0.1       2.2       2.8      10.1       0.9
 4 O  dz2             0.3       0.2       0.0       0.1       0.1       0.0
 4 O  dyz             0.6       0.1       0.1       0.0       0.0       0.0
 4 O  dx2y2           0.2       0.0       0.1       0.0       0.0       0.0
 4 O  dxy             0.0       0.0       0.0       0.1       0.0       0.1
 5 O  s               0.3       0.0       0.0       0.9       0.3       1.6
 5 O  pz              3.9       0.8       0.5       3.3       1.6       2.5
 5 O  px              0.0       1.0       3.0       0.0       0.4       0.6
 5 O  py             17.7       5.5       1.6       0.8       0.9       7.3
 5 O  dz2             0.1       0.0       0.0       0.1       0.3       0.1
 5 O  dxz             0.0       0.2       0.6       0.2       0.0       0.1
 5 O  dyz             0.3       0.1       0.0       0.0       0.0       0.0
 5 O  dx2y2           0.4       0.0       0.0       0.1       0.0       0.1
 5 O  dxy             0.2       0.0       0.0       1.0       0.5       0.4
 6 C  s               0.4       0.2       0.1       0.2       0.1       0.0
 6 C  pz              0.9       3.7       6.9       0.1       0.2       3.7
 6 C  px              0.0       0.1       6.8       0.1       0.1       1.2
 6 C  py              2.8       0.3       2.6       6.6       0.9       5.5
 6 C  dxz             0.0       0.0       0.2       0.1       0.0       0.1
 7 C  s               0.6       0.2       0.0       0.1       0.0       0.1
 7 C  pz              0.8       0.1      12.9      10.6       5.2       1.1
 7 C  px              3.6       1.7       2.5       6.5       7.8       1.3
 7 C  py              1.7       2.8       0.0       0.1       1.1      22.9
 7 C  dyz             0.0       0.0       0.0       0.0       0.0       0.2
 7 C  dx2y2           0.0       0.0       0.0       0.1       0.2       0.0
 8 H  s               1.4       1.9       0.2       2.0       6.5       1.0
 8 H  py              0.0       0.0       0.0       0.1       0.1       0.0
 9 H  s               0.1       3.0       1.0       2.2       0.0       2.7
 9 H  pz              0.0       0.0       0.0       0.1       0.1       0.0
10 H  s               0.0       0.1       3.1       4.2       4.7       0.7
10 H  px              0.0       0.0       0.0       0.1       0.0       0.0
10 H  py              0.0       0.0       0.0       0.0       0.1       0.1
11 H  s               2.6       4.2       0.0       0.4       0.4       0.3
11 H  pz              0.1       0.1       0.0       0.0       0.0       0.0
12 H  s               0.5       4.0       2.1       0.7       0.1       0.0
13 H  s               1.8       2.2       0.0       1.3       6.7       1.2
13 H  pz              0.1       0.1       0.0       0.0       0.1       0.1
13 H  py              0.0       0.0       0.0       0.1       0.0       0.0
14 H  s               2.9       0.9       0.4       2.5       0.0       2.0
15 H  s               0.0       0.5       2.3       1.0       0.0       0.3
16 H  s               0.0       0.5       5.0       0.0       0.0       1.1
16 H  pz              0.0       0.0       0.1       0.0       0.0       0.0
17 H  s               2.1       0.7       0.1       5.3       5.7       1.6
17 H  px              0.1       0.0       0.0       0.1       0.1       0.1
17 H  py              0.0       0.0       0.0       0.0       0.0       0.2
18 H  s               0.4       1.1       1.2       1.8       2.9      10.7
18 H  pz              0.0       0.0       0.0       0.0       0.0       0.2
18 H  py              0.0       0.0       0.1       0.1       0.1       0.1
19 H  s               0.1       0.0       5.7       1.1       0.1       0.2
19 H  pz              0.0       0.0       0.1       0.0       0.0       0.0
19 H  px              0.0       0.0       0.1       0.1       0.1       0.0
19 H  py              0.0       0.0       0.0       0.0       0.0       0.2

                     24        25        26        27        28        29   
                  -0.35086  -0.33846  -0.31792  -0.30582  -0.30347  -0.29642
                   2.00000   2.00000   2.00000   2.00000   2.00000   2.00000
                  --------  --------  --------  --------  --------  --------
 0 C  s               0.0       0.0       0.6       0.1       0.0       0.0
 0 C  pz              0.6       0.1       7.1       8.4       1.1       2.6
 0 C  px              1.9       4.5      17.4       0.4       2.2       2.1
 0 C  py             12.6       7.0       0.1       0.7       8.0       5.4
 0 C  dz2             0.1       0.0       0.1       0.1       0.0       0.3
 0 C  dxz             0.1       0.0       0.0       0.1       0.1       0.0
 0 C  dyz             0.0       0.0       0.0       0.1       0.0       0.1
 0 C  dx2y2           0.0       0.0       0.2       0.0       0.0       0.0
 0 C  dxy             0.0       0.1       0.0       0.1       0.3       0.2
 1 C  s               0.2       0.0       0.3       0.2       0.1       0.0
 1 C  pz              0.2       0.1       7.6      11.2       1.2       5.1
 1 C  px              3.1       2.8      16.8       0.5       2.0       3.2
 1 C  py              0.0       0.0       0.0       1.1       9.3      12.6
 1 C  dz2             0.0       0.0       0.1       0.1       0.0       0.5
 1 C  dxz             0.0       0.1       0.0       0.1       0.1       0.0
 1 C  dyz             0.0       0.0       0.0       0.1       0.0       0.2
 1 C  dx2y2           0.1       0.0       0.3       0.0       0.0       0.1
 1 C  dxy             0.1       0.1       0.1       0.1       0.3       0.2
 2 C  s               0.4       0.0       0.1       0.6       0.2       0.0
 2 C  pz              3.0       0.2       0.3       7.2       2.6       1.6
 2 C  px              1.1       2.2       2.1       0.8       4.4       1.9
 2 C  py              3.5       6.4       0.3       3.0       5.2       4.4
 2 C  dz2             0.0       0.1       0.0       0.1       0.0       0.3
 2 C  dxz             0.0       0.0       0.0       0.0       0.1       0.0
 2 C  dx2y2           0.0       0.0       0.2       0.0       0.0       0.1
 3 C  s               0.1       0.0       0.3       0.1       0.4       0.1
 3 C  pz              0.8       0.5       0.1       0.8       1.0       0.2
 3 C  px              0.4       0.2       3.2       0.1       0.3       0.0
 3 C  py              1.6       2.4       0.8       0.1       0.4       0.1
 3 C  dz2             0.1       0.2       0.0       0.3       0.0       0.0
 3 C  dyz             0.1       0.1       0.0       0.0       0.2       0.0
 3 C  dx2y2           0.2       0.0       0.0       0.0       0.1       0.0
 4 O  s               0.2       0.0       0.1       0.1       0.2       0.0
 4 O  pz              5.0       1.1       1.7       0.1       3.9       0.1
 4 O  px              0.3       0.1       3.5       0.8       0.1       0.1
 4 O  py              1.0      12.1       0.1       4.2       1.1       0.1
 4 O  dz2             0.0       0.1       0.0       0.1       0.2       0.0
 4 O  dx2y2           0.0       0.0       0.0       0.1       0.1       0.0
 5 O  s               0.1       0.0       0.0       0.4       1.4       0.5
 5 O  pz              8.9       1.2       1.1       3.1      10.4       1.4
 5 O  px              1.2       2.2       0.9       0.1       2.3       0.8
 5 O  py              0.2       0.2       0.0       1.5       1.3       3.5
 5 O  dz2             0.0       0.1       0.1       0.0       0.1       0.1
 5 O  dxz             0.1       0.3       0.0       0.7       0.4       0.0
 5 O  dyz             0.0       0.2       0.0       0.1       0.2       0.0
 5 O  dx2y2           0.0       0.0       0.0       0.1       0.7       0.4
 5 O  dxy             0.1       0.3       0.1       0.1       0.0       0.1
 6 C  s               0.1       0.2       0.0       0.0       0.1       0.1
 6 C  pz              0.1       3.6       1.5       5.8       5.7       0.8
 6 C  px              0.9       1.4       1.8       0.3       0.6       0.2
 6 C  py              0.1       4.2       1.8       3.0       0.9       1.7
 6 C  dz2             0.1       0.1       0.1       0.0       0.0       0.0
 6 C  dxz             0.0       0.2       0.0       0.1       0.1       0.0
 6 C  dyz             0.0       0.0       0.1       0.3       0.1       0.1
 6 C  dx2y2           0.2       0.0       0.0       0.1       0.3       0.1
 7 C  s               0.0       0.2       0.0       0.0       0.0       0.1
 7 C  pz              2.1       5.0       1.7       4.3       3.4       0.3
 7 C  px             18.5       6.2       2.2       0.5       0.4       0.0
 7 C  py              0.1       4.3       2.0       2.0       0.3       1.0
 7 C  dz2             0.1       0.1       0.1       0.1       0.0       0.0
 7 C  dxz             0.1       0.2       0.0       0.0       0.0       0.0
 7 C  dyz             0.0       0.0       0.1       0.2       0.1       0.0
 7 C  dx2y2           0.1       0.0       0.0       0.1       0.2       0.0
 8 H  s               2.1       0.9       3.1       4.0       0.0       5.3
 8 H  px              0.0       0.0       0.2       0.0       0.0       0.0
 9 H  s               2.9       5.8       1.3       0.2       2.9       5.9
 9 H  px              0.1       0.0       0.1       0.0       0.1       0.0
10 H  s               3.1       0.1       0.1       4.7       6.5       0.0
10 H  pz              0.1       0.0       0.1       0.0       0.1       0.0
10 H  px              0.0       0.1       0.1       0.0       0.0       0.0
11 H  s               0.0       0.0       3.4       5.4       0.0      10.1
11 H  pz              0.0       0.0       0.0       0.0       0.0       0.1
11 H  px              0.0       0.0       0.2       0.0       0.0       0.0
[...]
 3 C  px              0.4       0.5       4.2       0.2       0.0       0.0
 3 C  py              0.3       0.1       0.4       1.1       0.0       0.0
 3 C  dz2             3.5       0.0       0.1       3.8       0.0       0.0
 3 C  dxz             4.6       1.5       9.5       0.5       0.0       0.0
 3 C  dyz             0.4       0.0       0.6       2.2       0.0       0.0
 3 C  dx2y2           5.1       0.2       1.0       0.1       0.0       0.0
 3 C  dxy             0.8       0.2       1.5       0.1       0.0       0.0
 4 O  s               1.9       1.0       0.6      18.9       0.0       0.0
 4 O  pz              0.8       0.8       0.2      18.1       0.0       0.0
 4 O  px              4.3       0.1       0.3       0.5       0.0       0.0
 4 O  py              0.3       0.1       0.0       3.2       0.0       0.0
 4 O  dz2             0.0       1.2       0.0      18.9       0.0       0.0
 4 O  dxz            12.9       0.0       1.4       1.9       0.0       0.0
 4 O  dyz             0.3       0.7       0.1      11.9       0.0       0.0
 4 O  dx2y2           0.1       0.2       0.6       0.5       0.0       0.0
 4 O  dxy             1.7       0.0       0.2       0.3       0.0       0.0
 5 O  s               4.7      26.5       5.8       1.0       0.0       0.0
 5 O  pz              3.8       5.4       4.4       0.1       0.0       0.0
 5 O  px              0.1       8.5      25.9       0.7       0.0       0.0
 5 O  py              0.7       0.5       0.6       0.0       0.0       0.0
 5 O  dz2             5.0       2.2       0.9       0.2       0.0       0.0
 5 O  dxz             0.0       0.3      23.4       0.3       0.0       0.0
 5 O  dyz             1.9       0.6       1.3       0.0       0.0       0.0
 5 O  dx2y2           0.6      21.4       0.8       1.4       0.0       0.0
 5 O  dxy             0.0       0.0       3.6       0.1       0.0       0.0
 6 C  s               0.1       1.4       0.5       0.1       2.6       0.3
 6 C  pz              0.3       0.3       0.2       0.0       0.0       0.0
 6 C  px              0.1       7.1       1.8       0.4       0.0       0.0
 6 C  py              0.2       0.3       0.1       0.0       0.0       0.0
 6 C  dz2             0.0       2.0       0.6       0.1       0.0       0.0
 6 C  dxz             1.4       3.7       0.7       0.3       0.0       0.0
 6 C  dyz             1.0       0.0       0.0       0.0       0.0       0.0
 6 C  dx2y2           0.4       7.0       1.6       0.3       0.0       0.0
 6 C  dxy             0.2       0.3       0.0       0.0       0.0       0.0
 7 C  s               0.1       0.0       0.0       0.0       0.2      92.3
 7 C  pz              0.3       0.0       0.0       0.0       0.0       0.0
 7 C  py              0.3       0.1       0.0       0.0       0.0       0.0
 7 C  dxz             0.2       0.1       0.0       0.0       0.0       0.0
 7 C  dyz             1.2       0.1       0.0       0.0       0.0       0.0
 7 C  dx2y2           0.6       0.3       0.0       0.0       0.0       0.0
 9 H  py              0.3       0.0       0.0       0.0       0.0       0.0
10 H  pz              0.2       0.0       0.0       0.0       0.0       0.0
12 H  s               0.8       0.0       0.0       0.0       0.0       0.0
12 H  px              0.5       0.0       0.0       0.0       0.0       0.0
12 H  py              1.7       0.0       0.0       0.0       0.0       0.0
13 H  s               1.4       0.0       0.1       0.0       0.0       0.0
13 H  pz              3.2       0.0       0.1       0.0       0.0       0.0
13 H  px              0.2       0.0       0.1       0.0       0.0       0.0
13 H  py              0.7       0.0       0.0       0.0       0.0       0.0
14 H  s               0.4       0.0       0.0       0.0       0.0       0.0
14 H  px              0.1       0.0       0.0       0.0       0.0       0.0
14 H  py              1.2       0.0       0.0       0.0       0.0       0.0
15 H  s               0.4       0.3       0.1       0.0       0.0       0.0
15 H  pz              0.3       0.2       0.0       0.0       0.0       0.0
15 H  px              0.5       0.2       0.1       0.0       0.0       0.0
15 H  py              1.0       0.4       0.2       0.0       0.0       0.0
16 H  s               0.3       0.4       0.1       0.0       0.0       0.0
16 H  pz              0.9       1.3       0.1       0.0       0.0       0.0
17 H  s               0.0       0.1       0.0       0.0       0.0       0.0
17 H  px              0.0       0.2       0.0       0.0       0.0       0.0
18 H  s               0.6       0.0       0.0       0.0       0.0       0.0
18 H  pz              0.5       0.0       0.0       0.0       0.0       0.0
18 H  py              1.0       0.0       0.0       0.0       0.0       0.0
19 H  s               0.2       0.0       0.0       0.0       0.0       0.0
19 H  pz              0.2       0.0       0.0       0.0       0.0       0.0

                    216       217       218       219       220       221   
                  21.97070  22.01966  22.08408  22.25764  43.68468  43.74776
                   0.00000   0.00000   0.00000   0.00000   0.00000   0.00000
                  --------  --------  --------  --------  --------  --------
 0 C  s              37.6       5.8       1.3       0.0       0.0       0.0
 1 C  s              52.5      17.5       0.0       1.0       0.0       0.0
 2 C  s               0.9      52.6      26.1       0.0       0.0       0.0
 3 C  s               0.7       0.1       0.0      98.0       0.0       0.0
 4 O  s               0.0       0.0       0.0       0.2      98.6       1.3
 4 O  pz              0.0       0.0       0.0       0.1       0.0       0.0
 5 O  s               0.0       0.0       0.1       0.1       1.3      98.6
 6 C  s               1.9      22.9      72.0       0.0       0.0       0.0
 7 C  s               6.3       0.8       0.1       0.0       0.0       0.0



                      *****************************
                      * MAYER POPULATION ANALYSIS *
                      *****************************

  NA   - Mulliken gross atomic population
  ZA   - Total nuclear charge
  QA   - Mulliken gross atomic charge
  VA   - Mayer's total valence
  BVA  - Mayer's bonded valence
  FA   - Mayer's free valence

  ATOM       NA         ZA         QA         VA         BVA        FA
  0 C      6.5162     6.0000    -0.5162     3.7910     3.7910    -0.0000
  1 C      6.2245     6.0000    -0.2245     3.6441     3.6441    -0.0000
  2 C      6.3698     6.0000    -0.3698     3.8090     3.8090     0.0000
  3 C      5.5414     6.0000     0.4586     3.7318     3.7318    -0.0000
  4 O      8.5205     8.0000    -0.5205     1.8782     1.8782     0.0000
  5 O      8.2009     8.0000    -0.2009     1.9361     1.9361    -0.0000
  6 C      6.1440     6.0000    -0.1440     3.6445     3.6445    -0.0000
  7 C      6.4931     6.0000    -0.4931     3.8198     3.8198    -0.0000
  8 H      0.8427     1.0000     0.1573     0.9597     0.9597     0.0000
  9 H      0.8410     1.0000     0.1590     0.9597     0.9597     0.0000
 10 H      0.8388     1.0000     0.1612     0.9576     0.9576     0.0000
 11 H      0.8417     1.0000     0.1583     0.9580     0.9580    -0.0000
 12 H      0.8450     1.0000     0.1550     0.9579     0.9579    -0.0000
 13 H      0.8211     1.0000     0.1789     0.9565     0.9565     0.0000
 14 H      0.8082     1.0000     0.1918     0.9495     0.9495     0.0000
 15 H      0.8283     1.0000     0.1717     0.9560     0.9560    -0.0000
 16 H      0.8267     1.0000     0.1733     0.9472     0.9472    -0.0000
 17 H      0.8297     1.0000     0.1703     0.9584     0.9584    -0.0000
 18 H      0.8343     1.0000     0.1657     0.9581     0.9581    -0.0000
 19 H      0.8322     1.0000     0.1678     0.9577     0.9577     0.0000

  Mayer bond orders larger than 0.100000
B(  0-C ,  1-C ) :   0.8871 B(  0-C ,  8-H ) :   0.9781 B(  0-C ,  9-H ) :   0.9846 
B(  0-C , 10-H ) :   0.9703 B(  1-C ,  2-C ) :   0.9097 B(  1-C , 11-H ) :   0.9655 
B(  1-C , 12-H ) :   0.9553 B(  2-C ,  3-C ) :   0.9669 B(  2-C , 13-H ) :   0.9763 
B(  2-C , 14-H ) :   0.9525 B(  3-C ,  4-O ) :   1.7563 B(  3-C ,  5-O ) :   1.0763 
B(  5-O ,  6-C ) :   0.7952 B(  6-C ,  7-C ) :   0.9378 B(  6-C , 15-H ) :   0.9619 
B(  6-C , 16-H ) :   0.9515 B(  7-C , 17-H ) :   0.9604 B(  7-C , 18-H ) :   0.9700 
B(  7-C , 19-H ) :   0.9695 

-------
TIMINGS
-------

Total SCF time: 0 days 0 hours 0 min 35 sec 

Total time                  ....      35.350 sec
Sum of individual times     ....      34.525 sec  ( 97.7%)

SCF preparation             ....       0.668 sec  (  1.9%)
Fock matrix formation       ....      32.478 sec  ( 91.9%)
  Startup                   ....       0.073 sec  (  0.2% of F)
  Split-RI-J                ....       5.343 sec  ( 16.5% of F)
  XC integration            ....      20.332 sec  ( 62.6% of F)
    Basis function eval.    ....       3.569 sec  ( 17.6% of XC)
    Density eval.           ....       5.880 sec  ( 28.9% of XC)
    XC-Functional eval.     ....       2.617 sec  ( 12.9% of XC)
    XC-Potential eval.      ....       6.459 sec  ( 31.8% of XC)
  CPCM terms                ....       5.998 sec  ( 18.5% of F)
Diagonalization             ....       0.000 sec  (  0.0%)
Density matrix formation    ....       0.289 sec  (  0.8%)
Total Energy calculation    ....       0.090 sec  (  0.3%)
Population analysis         ....       0.151 sec  (  0.4%)
Orbital Transformation      ....       0.064 sec  (  0.2%)
Orbital Orthonormalization  ....       0.000 sec  (  0.0%)
DIIS solution               ....       0.727 sec  (  2.1%)
  MO trafo                  ....       0.000 sec  (  0.0 % of DIIS)
  Orb grad                  ....       0.000 sec  (  0.0 % of DIIS)
  Energy W gradient         ....       0.000 sec  (  0.0 % of DIIS)
  DIIS error                ....       0.030 sec  (  4.1 % of DIIS)
  DIIS work                 ....       0.624 sec  ( 85.9 % of DIIS)
  Form Q                    ....       0.000 sec  (  0.0 % of DIIS)
  Form QpQm                 ....       0.000 sec  (  0.0 % of DIIS)
  Exp/Cayley                ....       0.000 sec  (  0.0 % of DIIS)
  Orb update                ....       0.000 sec  (  0.0 % of DIIS)
  Wake-sleep                ....       0.039 sec  (  5.4 % of DIIS)
SOSCF solution              ....       0.059 sec  (  0.2%)
  MO trafo                  ....       0.045 sec  ( 76.3 % of SOSCF)
  Orb grad                  ....       0.001 sec  (  2.0 % of SOSCF)
  Rot update                ....       0.000 sec  (  0.1 % of SOSCF)
  Step                      ....       0.013 sec  ( 21.5 % of SOSCF)
Finished LeanSCF after  35.5 sec

Maximum memory used throughout the entire LEANSCF-calculation: 30.3 MB


-------------------------------------------------------------------------------
                          DFT DISPERSION CORRECTION                            
                                                                               
                                DFTD4 V3.4.0                                   
-------------------------------------------------------------------------------
The R2SCAN3C composite method is recognized
Using three-body term ABC
Active option DFTDOPT                   ...         5   

-------------------------   ----------------
Dispersion correction           -0.004944042
-------------------------   ----------------

------------------   -----------------
gCP correction             0.011710808
------------------   -----------------

-------------------------   --------------------
FINAL SINGLE POINT ENERGY      -386.240804176073
-------------------------   --------------------


------------------------------------------------------------------------------
                              ORCA PROPERTY CALCULATIONS
------------------------------------------------------------------------------

GBWName                                 ... sp_solv.gbw
Number of atoms                         ...     20
Number of basis functions               ...    222
Max core memory                         ...   1024 MB

Electric properties:
Dipole moment                           ... YES
Quadrupole moment                       ...  NO
Static polarizability (Dipole/Dipole)   ...  NO
Static polarizability (Dipole/Quad.)    ...  NO
Static polarizability (Quad./Quad.)     ...  NO
Static polarizability (Velocity)        ...  NO

Atomic electric properties:
Dipole moment                           ...  NO
Quadrupole moment                       ...  NO
Static polarizability                   ...  NO

Choice of electric origin               ... Center of mass
Position of electric origin             ...    -0.000015    -0.000016     0.000004

General magnetic properties:
Magnetizability                         ...  NO

EPR properties:
g-Tensor (aka g-matrix)                 ...  NO
Zero-Field splitting spin-orbit         ...  NO
Zero-field splitting spin-spin          ...  NO
Hyperfine couplings                     ...  NO (   0 nuclei)
Quadrupole couplings                    ...  NO (   0 nuclei)
Contact density                         ...  NO (   0 nuclei)

NMR properties:
Chemical shifts                         ...  NO (   0 nuclei)
Spin-rotation constants                 ...  NO (   0 nuclei)
Spin-spin couplings                     ...  NO (   0 nuclei,    0 pairs)

Choice of magnetic origin               ... GIAO
Position of magnetic origin             ...     0.000000     0.000000     0.000000

Properties with geometric perturbations:
SCF Hessian                             ...  NO
IR spectrum                             ...  NO
VCD spectrum                            ...  NO
X-ray spectroscopy properties:
SCF XES/XAS/RIXS spectra                ...  NO


-------------
DIPOLE MOMENT
-------------

Method             : SCF
Type of density    : Electron Density
Multiplicity       :   1
Irrep              :   0
Energy             :  -386.2475709421074725 Eh
Relativity type    : 
Basis              : AO
                                X                 Y                 Z
Electronic contribution:      3.660310170       4.224018537       0.167824629
Nuclear contribution   :     -3.437079047      -4.751235745       0.761936398
                        -----------------------------------------
Total Dipole Moment    :      0.223231123      -0.527217208       0.929761028
                        -----------------------------------------
Magnitude (a.u.)       :      1.091900035
Magnitude (Debye)      :      2.775389326



--------------------
Rotational spectrum 
--------------------
 
Rotational constants in cm-1:             0.159045             0.029841             0.029286 
Rotational constants in MHz :          4768.048432           894.609417           877.962134 

Dipole components along the rotational axes: 
x,y,z [a.u.] :    -0.161605     0.946383    -0.520086 
x,y,z [Debye]:    -0.410767     2.405514    -1.321953 

 

Dipole moment calculation done in   0.0 sec 

Maximum memory used throughout the entire PROP-calculation: 13.6 MB

--------------------------------
SUGGESTED CITATIONS FOR THIS RUN
--------------------------------

Below you find a list of papers that are relevant to this ORCA run
We neither can nor want to force you to cite these papers, but we appreciate if you do
You receive ORCA, which is the product of decades of hard work by many enthusiastic individuals, for free
The only thing we kindly ask in return is that you cite our papers,
We deeply appreciate it, if you show your appreciation for ORCA by not just citing the generic ORCA reference.

Please note that relegating all ORCA citations to the supporting information does *not* help us.
SI sections are not indexed - citations you put there will not count into any citation statistics
But we need these citations in order to attract the funding resources that allow us to do what we are doing

Therefore, if you are a happy ORCA user, please consider citing a few of the papers listed below in the main body of your paper

In addition to the list printed below, the program has created the file sp_solv.bibtex that contains the list in bibtex format
You can import this file easily into all common literature databanks and citation aid programs


List of essential papers. We consider these as the minimum necessary citations

  1. Neese,F.
     Software update: the ORCA program system, version 5.0
     WIRES Comput. Molec. Sci., 2022 12(1)e1606
     doi.org/10.1002/wcms.1606
  2. Grimme,S.; Hansen,A.; Ehlert,S.; Mewes,J.
     r2SCAN-3c: A 'Swiss army knife' composite electronic-structure method
     J. Chem. Phys., 2021 154 064103
     doi.org/10.1063/5.0040021

List of papers to cite with high priority. The work reported in these papers was absolutely
necessary for this run to complete.
Our perspective: the developers of density functionals and basis sets usually get cited in chemistry papers
Good! But without the algorithms to do something with them, the functionals or basis sets would not do anything.
Hence, in our opinion, the algorithm design and method developments papers are equally worthy of getting cited

  1. Neese,F.
     An improvement of the resolution of the identity approximation for the formation of the Coulomb matrix
     J. Comp. Chem., 2003 24(14)1740-1747
     doi.org/10.1002/jcc.10318
  2. Garcia-Rates,M.; Neese,F.
     Effect of the Solute Cavity on the Solvation Energy and its Derivatives within the Framework of the Gaussian Charge Scheme
     J. Comput. Chem., 2020 41 922-939
     doi.org/10.1002/jcc.26139
  3. Neese,F.
     The SHARK Integral Generation and Digestion System
     J. Comp. Chem., 2022  1-16
     doi.org/10.1002/jcc.26942
  4. Lehtola,S.; Steigemann,C.; Oliveira,M.; Marques,M.
     Recent developments in Libxc - A comprehensive library of functionals for density functional theory
     Software X, 2018 7 
     doi.org/10.1016/j.softx.2017.11.002
  5. Caldeweyher,E.; Bannwarth,C.; Grimme,S.
     Extension of the D3 dispersion coefficient model
     J. Chem. Phys., 2017 147 034112-XXXX
     doi.org/10.1063/1.4993215
  6. Caldeweyher,E.; Ehlert,S.; Hansen,A.; Neugebauer,H.; Spicher,S.; Bannwarth,C.; Grimme,S.
     A generally applicable atomic-charge dependent London dispersion correction
     J. Chem. Phys., 2019 150 154122-XXXX
     doi.org/10.1063/1.5090222
  7. Caldeweyher,E.; Mewes,J.; Ehlert,S.; Grimme,S.
     Extension and evaluation of the D4 London-dispersion model for periodic systems
     Phys. Chem. Chem. Phys., 2020 22(16)8499-8512
     doi.org/10.1039/D0CP00502A

List of suggested additional citations. These are papers that are important in the 'surrounding' of 
of this run, or papers that preceded the highly important papers. If you like your results we are grateful for a citation.

  1. Neese,F.
     The ORCA program system
     WIRES Comput. Molec. Sci., 2012 2(1)73-78
     doi.org/10.1002/wcms.81
  2. Neese,F.
     Software update: the ORCA program system, version 4.0
     WIRES Comput. Molec. Sci., 2018 8(1)1-6
     doi.org/10.1002/wcms.1327
  3. Neese,F.; Wennmohs,F.; Becker,U.; Riplinger,C.
     The ORCA quantum chemistry program package
     J. Chem. Phys., 2020 152 Art. No. L224108
     doi.org/10.1063/5.0004608

List of optional additional citations

  1. Neese,F.
     Approximate second-order SCF convergence for spin unrestricted wavefunctions
     Chem. Phys. Lett., 2000 325(1-3)93-98
     doi.org/10.1016/s0009-2614(00)00662-x

Timings for individual modules:

Sum of individual times          ...       37.760 sec (=   0.629 min)
Startup calculation              ...        1.605 sec (=   0.027 min)   4.2 %
SCF iterations                   ...       36.004 sec (=   0.600 min)  95.4 %
Property calculations            ...        0.151 sec (=   0.003 min)   0.4 %
                             ****ORCA TERMINATED NORMALLY****
TOTAL RUN TIME: 0 days 0 hours 0 minutes 38 seconds 626 msec
