 Entering Gaussian System
 *********************************************
 Gaussian 98:
 frequency output generated by the xtb code
 *********************************************
                         Standard orientation:
 --------------------------------------------------------------------
  Center     Atomic     Atomic              Coordinates (Angstroms)
  Number     Number      Type              X           Y           Z
 --------------------------------------------------------------------
    1          6             0       -3.543060   -0.611356    0.466559
    2          6             0       -2.189047    0.085057    0.510986
    3          6             0       -1.211196   -0.538984   -0.496133
    4          6             0        0.097867    0.200427   -0.435832
    5          8             0        0.376597    1.171238   -1.109179
    6          8             0        0.901219   -0.309631    0.488620
    7          6             0        2.180792    0.308830    0.704415
    8          6             0        3.230198   -0.261572   -0.237320
    9          1             0       -3.436391   -1.665806    0.707148
   10          1             0       -4.219961   -0.158831    1.185940
   11          1             0       -3.983427   -0.525223   -0.523404
   12          1             0       -1.764761    0.005183    1.513631
   13          1             0       -2.309361    1.145143    0.277721
   14          1             0       -1.616543   -0.451934   -1.503820
   15          1             0       -1.042871   -1.585207   -0.244828
   16          1             0        2.076123    1.387910    0.556201
   17          1             0        2.420432    0.089649    1.745334
   18          1             0        3.287425   -1.340740   -0.124291
   19          1             0        2.972870   -0.026030   -1.267624
   20          1             0        4.196142    0.175550   -0.006633
 --------------------------------------------------------------------
     1 basis functions        1 primitive gaussians
     1 alpha electrons        1 beta electrons
 
 Harmonic frequencies (cm**-1), IR intensities (km*mol⁻¹),
 Raman scattering activities (A**4/amu), Raman depolarization ratios,
 reduced masses (AMU), force constants (mDyne/A) and normal coordinates:
                      1                      2                      3
                        a                      a                      a 
 Frequencies --    20.9594                49.5400                80.0213
 Red. masses --     9.2838                 9.8692                 7.2224
 Frc consts  --     0.0000                 0.0000                 0.0000
 IR Inten    --     1.1054                 2.8579                 0.4236
 Raman Activ --     0.0000                 0.0000                 0.0000
 Depolar     --     0.0000                 0.0000                 0.0000
 Atom AN      X      Y      Z        X      Y      Z        X      Y      Z
   1   6    -0.14   0.15  -0.21    -0.01  -0.19  -0.04    -0.18   0.32  -0.29
   2   6    -0.15   0.18  -0.21    -0.12   0.03  -0.08     0.11  -0.27   0.29
   3   6     0.07  -0.22   0.26     0.03  -0.00   0.09     0.01  -0.15   0.12
   4   6     0.02  -0.12   0.19    -0.05   0.15   0.05    -0.02  -0.07   0.03
   5   8    -0.17  -0.03   0.30    -0.29   0.33   0.18    -0.19  -0.06  -0.00
   6   8     0.19  -0.17   0.06     0.12   0.12  -0.14     0.11   0.01  -0.04
   7   6     0.13  -0.05  -0.04     0.12   0.10  -0.22     0.04   0.16  -0.12
   8   6     0.06   0.21  -0.28     0.17  -0.46   0.17     0.13   0.03   0.05
   9   1    -0.05   0.07   0.07     0.04  -0.04   0.04    -0.19   0.03  -0.28
  10   1    -0.08   0.13  -0.16    -0.04  -0.05  -0.05    -0.02   0.04  -0.02
  11   1     0.02  -0.07  -0.10     0.01  -0.13  -0.03    -0.01   0.33  -0.08
  12   1    -0.11   0.17  -0.02    -0.05   0.08  -0.01    -0.02  -0.27   0.09
  13   1    -0.03   0.02  -0.20    -0.08  -0.01  -0.08     0.16  -0.03   0.23
  14   1     0.07  -0.19   0.04     0.02  -0.05   0.01    -0.03  -0.01   0.05
  15   1     0.02  -0.03   0.21     0.04   0.02   0.07     0.02  -0.05  -0.01
  16   1     0.00  -0.01   0.04     0.07   0.01  -0.21    -0.01   0.03  -0.11
  17   1     0.09  -0.06  -0.03    -0.00   0.17  -0.03     0.01   0.12  -0.02
  18   1     0.05   0.06  -0.13     0.01  -0.12   0.20     0.07   0.02   0.09
  19   1    -0.03   0.10  -0.06     0.09  -0.27   0.01     0.04  -0.07  -0.01
  20   1     0.01   0.08  -0.10     0.06  -0.13   0.02     0.02   0.05  -0.01
                      4                      5                      6
                        a                      a                      a 
 Frequencies --    85.5334               187.4945               199.9067
 Red. masses --    11.0967                10.3646                 3.0723
 Frc consts  --     0.0000                 0.0000                 0.0000
 IR Inten    --     0.1647                 3.8810                 3.7072
 Raman Activ --     0.0000                 0.0000                 0.0000
 Depolar     --     0.0000                 0.0000                 0.0000
 Atom AN      X      Y      Z        X      Y      Z        X      Y      Z
   1   6     0.03   0.17   0.25     0.21   0.21   0.09     0.01   0.04  -0.01
   2   6     0.08   0.09  -0.07     0.36  -0.11  -0.21     0.05  -0.06   0.03
   3   6    -0.07  -0.09  -0.11     0.18  -0.31  -0.25     0.06  -0.13   0.08
   4   6    -0.06  -0.12  -0.16     0.00  -0.06  -0.03    -0.02   0.05  -0.06
   5   8    -0.21   0.07   0.06    -0.20   0.18   0.24    -0.20   0.05  -0.14
   6   8     0.05  -0.35  -0.41    -0.12   0.09   0.15     0.00   0.17  -0.05
   7   6    -0.13  -0.06   0.01    -0.12   0.09   0.05     0.06  -0.02   0.07
   8   6     0.29   0.21   0.32    -0.32  -0.10  -0.05     0.02  -0.06   0.04
   9   1     0.00   0.06   0.12    -0.00   0.06   0.08    -0.03   0.01   0.02
  10   1     0.05   0.10   0.08     0.12   0.14   0.03    -0.00   0.04  -0.02
  11   1    -0.03   0.01   0.09     0.02   0.04   0.04     0.02   0.00  -0.01
  12   1     0.06   0.06  -0.03     0.14  -0.02  -0.08     0.00  -0.01   0.01
  13   1     0.03   0.02  -0.06     0.16  -0.03  -0.09     0.04  -0.02  -0.00
  14   1    -0.04  -0.04  -0.02     0.05  -0.10  -0.07     0.00  -0.10   0.03
  15   1    -0.04  -0.02  -0.01     0.07  -0.08  -0.05     0.06  -0.02   0.07
  16   1    -0.09  -0.02   0.01    -0.03   0.02  -0.01     0.07   0.01   0.08
  17   1    -0.11  -0.01   0.02    -0.01   0.05   0.01    -0.01  -0.08   0.01
  18   1     0.15   0.06   0.09    -0.10  -0.02   0.04    -0.37  -0.07  -0.33
  19   1     0.16   0.05   0.07    -0.16  -0.09  -0.01     0.27   0.41   0.04
  20   1     0.03   0.13   0.19    -0.07  -0.03  -0.11     0.11  -0.42   0.34
                      7                      8                      9
                        a                      a                      a 
 Frequencies --   233.9077               281.1742               314.3822
 Red. masses --     2.0163                 8.6443                 9.1304
 Frc consts  --     0.0000                 0.0000                 0.0000
 IR Inten    --     0.0455                11.0437                 3.5096
 Raman Activ --     0.0000                 0.0000                 0.0000
 Depolar     --     0.0000                 0.0000                 0.0000
 Atom AN      X      Y      Z        X      Y      Z        X      Y      Z
   1   6    -0.02   0.03  -0.05    -0.12   0.01   0.09    -0.43   0.07   0.26
   2   6     0.07  -0.16   0.20    -0.08  -0.04  -0.11    -0.18  -0.30  -0.22
   3   6    -0.02   0.07  -0.03    -0.10   0.08  -0.22     0.02  -0.08  -0.21
   4   6    -0.00   0.04  -0.03     0.03  -0.17   0.14     0.03   0.10   0.02
   5   8     0.04   0.03  -0.03     0.26  -0.15   0.32     0.03   0.05  -0.07
   6   8    -0.02  -0.00  -0.04     0.08  -0.17   0.15     0.05   0.25   0.11
   7   6    -0.02  -0.01  -0.00    -0.06   0.31  -0.29     0.25  -0.10   0.10
   8   6    -0.00   0.00   0.00     0.01   0.04  -0.05     0.22  -0.01  -0.02
   9   1    -0.14   0.11   0.47    -0.05   0.01   0.06    -0.22   0.02   0.13
  10   1    -0.18   0.36  -0.40    -0.00   0.04   0.03     0.01   0.15   0.12
  11   1     0.28  -0.39  -0.18    -0.07  -0.02   0.04    -0.22   0.02   0.12
  12   1     0.01  -0.14   0.05     0.01  -0.03  -0.04    -0.02  -0.09  -0.07
  13   1     0.05  -0.02   0.14    -0.03  -0.01  -0.01    -0.04  -0.08  -0.05
  14   1    -0.04   0.10   0.01     0.02   0.16  -0.07     0.06   0.01  -0.08
  15   1    -0.01  -0.00  -0.10    -0.11  -0.01  -0.17     0.04  -0.03  -0.11
  16   1    -0.00  -0.00   0.00    -0.10   0.06  -0.26     0.13  -0.01   0.11
  17   1    -0.01  -0.01  -0.00     0.03   0.28  -0.05     0.07  -0.12   0.01
  18   1     0.02   0.00   0.02    -0.19  -0.01  -0.08     0.14   0.00   0.00
  19   1    -0.01  -0.02  -0.00     0.17   0.13  -0.03     0.02  -0.03  -0.00
  20   1    -0.01   0.03  -0.01     0.05  -0.17   0.15     0.04   0.06  -0.04
                     10                     11                     12
                        a                      a                      a 
 Frequencies --   384.1853               453.8893               626.9004
 Red. masses --    11.0553                10.7461                11.1603
 Frc consts  --     0.0000                 0.0000                 0.0000
 IR Inten    --    10.1431                 6.8639                22.7365
 Raman Activ --     0.0000                 0.0000                 0.0000
 Depolar     --     0.0000                 0.0000                 0.0000
 Atom AN      X      Y      Z        X      Y      Z        X      Y      Z
   1   6     0.22  -0.00  -0.09    -0.08  -0.02   0.02    -0.00   0.01   0.01
   2   6     0.10   0.16  -0.03    -0.08   0.03  -0.01     0.05  -0.11  -0.13
   3   6    -0.18   0.11  -0.22    -0.02   0.14  -0.06     0.36   0.24   0.08
   4   6    -0.11  -0.16   0.14     0.17  -0.13   0.01     0.05   0.32   0.40
   5   8    -0.49  -0.21  -0.02    -0.25  -0.08  -0.09    -0.25  -0.07  -0.31
   6   8    -0.05   0.15   0.32     0.48  -0.14  -0.24     0.01  -0.31   0.10
   7   6     0.19  -0.10  -0.00     0.19   0.24   0.33    -0.18  -0.14  -0.08
   8   6     0.26   0.00  -0.04    -0.27  -0.03   0.08    -0.06   0.02   0.01
   9   1     0.12   0.00  -0.03    -0.01  -0.00   0.01    -0.05   0.01   0.03
  10   1     0.02  -0.05  -0.04    -0.02  -0.01   0.01     0.07   0.07   0.04
  11   1     0.09  -0.02  -0.04    -0.04  -0.01   0.01    -0.06   0.01   0.03
  12   1     0.07   0.02  -0.03    -0.02  -0.00  -0.00    -0.01  -0.02  -0.02
  13   1     0.02   0.05   0.02    -0.04   0.01   0.02    -0.01  -0.03  -0.04
  14   1    -0.02   0.24  -0.06     0.03   0.18  -0.02     0.21   0.13  -0.02
  15   1    -0.20  -0.02  -0.21    -0.11  -0.00  -0.13     0.15   0.06  -0.05
  16   1     0.09  -0.02   0.03     0.03   0.07   0.13    -0.13  -0.06  -0.14
  17   1     0.08  -0.06  -0.01     0.02   0.02   0.09     0.00   0.11  -0.00
  18   1     0.13   0.00  -0.03    -0.21  -0.01   0.05     0.03   0.00  -0.04
  19   1     0.10   0.01  -0.01    -0.24  -0.02   0.06     0.02   0.03  -0.00
  20   1     0.05   0.04   0.03     0.02  -0.13  -0.17    -0.05   0.04   0.07
                     13                     14                     15
                        a                      a                      a 
 Frequencies --   716.2780               785.8676               812.1477
 Red. masses --    12.0148                 2.5883                 3.6281
 Frc consts  --     0.0000                 0.0000                 0.0000
 IR Inten    --    20.7527                 1.5159                25.0416
 Raman Activ --     0.0000                 0.0000                 0.0000
 Depolar     --     0.0000                 0.0000                 0.0000
 Atom AN      X      Y      Z        X      Y      Z        X      Y      Z
   1   6     0.15   0.05  -0.02     0.01  -0.02   0.02     0.02  -0.00   0.02
   2   6     0.07  -0.06  -0.09     0.07  -0.14   0.14     0.02  -0.05   0.08
   3   6    -0.22  -0.14  -0.05     0.08  -0.09   0.14    -0.15  -0.11  -0.05
   4   6    -0.50   0.34   0.47     0.03  -0.02   0.02    -0.10   0.12  -0.03
   5   8     0.21  -0.24   0.02     0.04  -0.02   0.04     0.05   0.10  -0.09
   6   8     0.06   0.03  -0.31     0.00   0.12  -0.09    -0.05  -0.11   0.04
   7   6     0.10   0.11   0.02    -0.10  -0.00  -0.10     0.18  -0.09   0.25
   8   6     0.02   0.01   0.02    -0.05   0.01  -0.00     0.10  -0.06   0.04
   9   1     0.05   0.01  -0.01    -0.21  -0.05  -0.09    -0.08  -0.02  -0.05
  10   1     0.04   0.01  -0.01    -0.02   0.05  -0.05    -0.04   0.00  -0.04
  11   1     0.05   0.01  -0.01     0.14   0.18  -0.04     0.11   0.09  -0.03
  12   1     0.06  -0.03  -0.04    -0.02   0.46   0.09     0.05   0.17   0.02
  13   1     0.06  -0.01  -0.03    -0.13  -0.15  -0.43    -0.06  -0.06  -0.15
  14   1    -0.01  -0.06  -0.04    -0.08   0.33   0.11    -0.12  -0.02   0.02
  15   1     0.03  -0.02  -0.00    -0.01  -0.12  -0.33     0.01  -0.03  -0.06
  16   1     0.06   0.05   0.12     0.01   0.02   0.10     0.03  -0.08  -0.39
  17   1    -0.03  -0.10  -0.01    -0.02  -0.14  -0.06    -0.07   0.42   0.18
  18   1    -0.07   0.00   0.06    -0.02   0.01   0.07     0.13  -0.04  -0.30
  19   1    -0.03  -0.04   0.00     0.07  -0.06  -0.03    -0.27   0.24   0.13
  20   1     0.04  -0.05  -0.05    -0.03   0.01   0.07     0.05   0.03  -0.17
                     16                     17                     18
                        a                      a                      a 
 Frequencies --   871.7614               913.2208               928.9468
 Red. masses --     7.0964                 5.4591                 7.0110
 Frc consts  --     0.0000                 0.0000                 0.0000
 IR Inten    --    12.9970                 3.1729                 0.2219
 Raman Activ --     0.0000                 0.0000                 0.0000
 Depolar     --     0.0000                 0.0000                 0.0000
 Atom AN      X      Y      Z        X      Y      Z        X      Y      Z
   1   6    -0.02   0.05  -0.06    -0.12   0.12  -0.05    -0.22   0.03   0.19
   2   6    -0.02   0.05  -0.08    -0.03   0.09   0.05    -0.04   0.19   0.19
   3   6     0.09  -0.09   0.17     0.02  -0.33   0.07     0.02  -0.23  -0.33
   4   6     0.03  -0.10   0.08     0.03   0.16  -0.01     0.08   0.12   0.13
   5   8     0.05  -0.12   0.14     0.05   0.18  -0.16     0.00   0.04  -0.08
   6   8     0.16   0.38  -0.25    -0.13  -0.22   0.11     0.28   0.04   0.06
   7   6    -0.16  -0.20  -0.08     0.06   0.08   0.06    -0.08  -0.12  -0.09
   8   6    -0.15  -0.08   0.10     0.10   0.04  -0.06    -0.19  -0.01   0.04
   9   1     0.20   0.05   0.07     0.35   0.08   0.05     0.08  -0.02  -0.12
  10   1     0.05  -0.05   0.07    -0.10  -0.19   0.06    -0.39  -0.25  -0.11
  11   1    -0.17  -0.15   0.05    -0.15  -0.21   0.02     0.25   0.04  -0.09
  12   1    -0.15  -0.13   0.03    -0.21  -0.03   0.09     0.18   0.05  -0.03
  13   1     0.17   0.05   0.05     0.30   0.04  -0.07     0.02   0.05   0.03
  14   1     0.08   0.21   0.04    -0.12   0.19   0.09     0.10  -0.14  -0.13
  15   1    -0.09  -0.09  -0.15     0.01  -0.16  -0.29     0.02  -0.04  -0.01
  16   1     0.15  -0.05  -0.18    -0.11   0.01   0.05     0.02  -0.02  -0.02
  17   1    -0.19   0.06   0.04     0.10   0.02  -0.00     0.06  -0.02  -0.04
  18   1     0.19  -0.03  -0.20    -0.10   0.01   0.09     0.06   0.01   0.01
  19   1    -0.10   0.16   0.08     0.04  -0.08  -0.04     0.07   0.01  -0.01
  20   1    -0.14   0.17   0.09     0.09  -0.10  -0.07    -0.14   0.11   0.17
                     19                     20                     21
                        a                      a                      a 
 Frequencies --   970.8892              1049.0281              1075.1457
 Red. masses --     8.9396                 7.0771                 8.5944
 Frc consts  --     0.0000                 0.0000                 0.0000
 IR Inten    --     5.2242                 9.1094               136.2175
 Raman Activ --     0.0000                 0.0000                 0.0000
 Depolar     --     0.0000                 0.0000                 0.0000
 Atom AN      X      Y      Z        X      Y      Z        X      Y      Z
   1   6    -0.21  -0.01   0.10     0.10  -0.02   0.06    -0.00  -0.05   0.08
   2   6     0.03   0.14   0.11    -0.08   0.00  -0.10     0.01   0.05  -0.12
   3   6     0.42   0.09  -0.09    -0.15  -0.20   0.13     0.03  -0.14   0.22
   4   6    -0.08  -0.14   0.02     0.23   0.08   0.11     0.14   0.01   0.05
   5   8    -0.04  -0.21   0.16     0.04   0.13  -0.10     0.04   0.08  -0.04
   6   8    -0.34   0.08  -0.20     0.12   0.11   0.03    -0.42  -0.10  -0.17
   7   6    -0.04   0.12   0.07    -0.43  -0.05   0.08     0.44   0.03  -0.10
   8   6     0.27  -0.02  -0.05     0.29  -0.02  -0.13    -0.19   0.09   0.13
   9   1     0.04  -0.01  -0.05    -0.08  -0.02  -0.03    -0.09  -0.04  -0.04
  10   1    -0.21  -0.14  -0.04    -0.00   0.03  -0.03    -0.05   0.00  -0.04
  11   1     0.07  -0.01  -0.03     0.11   0.08  -0.02     0.10   0.07  -0.02
  12   1     0.05   0.04   0.01     0.09  -0.09  -0.08     0.12  -0.09  -0.09
  13   1     0.03   0.04   0.03    -0.08   0.02   0.09    -0.03   0.03   0.09
  14   1     0.24   0.05  -0.07     0.18   0.06  -0.05     0.31   0.14  -0.05
  15   1     0.18   0.03  -0.03    -0.41  -0.11   0.04    -0.37  -0.10   0.02
  16   1    -0.00   0.03   0.03    -0.18  -0.01   0.05     0.10  -0.01  -0.08
  17   1    -0.21  -0.02   0.05    -0.19   0.00   0.04     0.11  -0.00  -0.04
  18   1    -0.05  -0.02  -0.06    -0.07  -0.02  -0.02    -0.03   0.03   0.06
  19   1    -0.12   0.01   0.04    -0.04  -0.06  -0.02    -0.01   0.03   0.03
  20   1     0.18  -0.13  -0.24     0.17  -0.14  -0.20    -0.07   0.05   0.09
                     22                     23                     24
                        a                      a                      a 
 Frequencies --  1088.3393              1096.5367              1105.3470
 Red. masses --     8.8897                 7.6016                 7.4286
 Frc consts  --     0.0000                 0.0000                 0.0000
 IR Inten    --     2.2374                28.0118                43.9163
 Raman Activ --     0.0000                 0.0000                 0.0000
 Depolar     --     0.0000                 0.0000                 0.0000
 Atom AN      X      Y      Z        X      Y      Z        X      Y      Z
   1   6     0.41   0.34   0.13    -0.02   0.01  -0.00    -0.13   0.14   0.15
   2   6    -0.57  -0.27   0.01     0.02  -0.03  -0.00     0.19  -0.32  -0.33
   3   6     0.04  -0.01  -0.04    -0.04   0.03  -0.02    -0.26   0.31   0.30
   4   6     0.04  -0.06  -0.05    -0.01  -0.00  -0.02     0.11  -0.06  -0.04
   5   8    -0.01  -0.00   0.02    -0.01   0.00   0.01    -0.03  -0.01   0.03
   6   8    -0.04  -0.00  -0.01     0.10   0.09   0.12    -0.01   0.01   0.00
   7   6     0.05   0.01  -0.02     0.07  -0.37  -0.42    -0.02   0.04   0.02
   8   6    -0.02   0.01   0.02     0.00   0.32   0.36     0.01  -0.03  -0.02
   9   1     0.25   0.09  -0.03     0.02   0.01   0.00     0.21   0.03  -0.09
  10   1    -0.02  -0.03  -0.02    -0.01  -0.02   0.00    -0.28  -0.21  -0.05
  11   1     0.24   0.08  -0.03    -0.01  -0.01  -0.00     0.17  -0.04  -0.06
  12   1    -0.19  -0.07   0.02     0.01   0.01  -0.00     0.20  -0.04  -0.15
  13   1    -0.18  -0.08   0.00     0.03  -0.01  -0.03     0.25  -0.08  -0.19
  14   1     0.15  -0.02  -0.07    -0.06  -0.03   0.01    -0.08   0.01   0.07
  15   1     0.17   0.00  -0.08     0.05   0.02   0.00     0.07   0.09   0.06
  16   1     0.01   0.00  -0.00    -0.02  -0.09  -0.08     0.00   0.01   0.02
  17   1     0.00  -0.01  -0.01    -0.02  -0.08  -0.09    -0.04  -0.01   0.01
  18   1    -0.00   0.00   0.00    -0.33   0.07   0.13     0.03  -0.01  -0.02
  19   1    -0.01   0.01   0.01    -0.31   0.03   0.15     0.01   0.01  -0.01
  20   1    -0.01   0.01   0.00     0.18  -0.17  -0.25    -0.01   0.01   0.00
                     25                     26                     27
                        a                      a                      a 
 Frequencies --  1151.0206              1193.6749              1222.2163
 Red. masses --     6.5806                 8.6928                 4.9420
 Frc consts  --     0.0000                 0.0000                 0.0000
 IR Inten    --    40.3616               289.5970                79.7782
 Raman Activ --     0.0000                 0.0000                 0.0000
 Depolar     --     0.0000                 0.0000                 0.0000
 Atom AN      X      Y      Z        X      Y      Z        X      Y      Z
   1   6     0.01   0.01  -0.03    -0.03   0.11  -0.14    -0.09   0.16  -0.18
   2   6     0.00  -0.01   0.05     0.08  -0.17   0.23     0.11  -0.23   0.24
   3   6    -0.07  -0.04  -0.09    -0.14   0.06  -0.24     0.01   0.07   0.01
   4   6     0.23   0.05   0.15     0.45  -0.00   0.31    -0.28  -0.01  -0.19
   5   8    -0.02   0.07  -0.09    -0.06  -0.06   0.02     0.05   0.06  -0.02
   6   8    -0.08  -0.21   0.12    -0.21   0.12  -0.21     0.10  -0.04   0.08
   7   6    -0.03   0.35  -0.31     0.09  -0.09   0.08    -0.06   0.04  -0.03
   8   6     0.05  -0.20   0.20    -0.03   0.10  -0.10     0.03  -0.08   0.08
   9   1     0.01   0.01   0.01     0.15   0.06   0.06     0.22   0.09   0.07
  10   1     0.03   0.01   0.01     0.05  -0.04   0.06     0.04  -0.08   0.08
  11   1    -0.03  -0.02   0.01    -0.15  -0.12   0.02    -0.18  -0.17   0.01
  12   1    -0.04   0.03   0.03    -0.07   0.17   0.11     0.17   0.19   0.02
  13   1    -0.01  -0.01  -0.02    -0.05  -0.09  -0.14    -0.14  -0.12  -0.13
  14   1    -0.11  -0.08   0.01    -0.05  -0.21  -0.07     0.43   0.04  -0.17
  15   1    -0.04  -0.00   0.03    -0.13   0.05   0.16    -0.27   0.01   0.16
  16   1     0.23   0.14   0.20    -0.01  -0.05  -0.12    -0.09   0.02   0.08
  17   1    -0.25  -0.30  -0.10    -0.16   0.06   0.07     0.22  -0.01  -0.06
  18   1     0.17  -0.07  -0.26    -0.07   0.04   0.13     0.05  -0.03  -0.09
  19   1    -0.20   0.19   0.15     0.09  -0.08  -0.07    -0.06   0.06   0.05
  20   1    -0.02   0.10  -0.10     0.01  -0.04   0.04    -0.00   0.03  -0.03
                     28                     29                     30
                        a                      a                      a 
 Frequencies --  1254.5960              1257.0542              1266.8731
 Red. masses --     3.5297                 4.4739                 2.2818
 Frc consts  --     0.0000                 0.0000                 0.0000
 IR Inten    --    34.7214                67.6371                18.3307
 Raman Activ --     0.0000                 0.0000                 0.0000
 Depolar     --     0.0000                 0.0000                 0.0000
 Atom AN      X      Y      Z        X      Y      Z        X      Y      Z
   1   6     0.02   0.00   0.08     0.03  -0.15  -0.08     0.06  -0.11   0.16
   2   6     0.03  -0.02  -0.07    -0.09   0.13   0.14     0.03  -0.04   0.01
   3   6     0.09   0.03  -0.10    -0.41  -0.01   0.09     0.01   0.13  -0.14
   4   6     0.13   0.00   0.12     0.19  -0.06   0.03    -0.13   0.00  -0.07
   5   8    -0.02  -0.08   0.05    -0.01   0.02  -0.00     0.02   0.03  -0.02
   6   8    -0.10   0.17  -0.19    -0.05   0.06  -0.06     0.06  -0.04   0.06
   7   6    -0.04   0.03  -0.02     0.01   0.01  -0.02    -0.02  -0.01   0.01
   8   6     0.05  -0.15   0.15     0.01  -0.05   0.04    -0.00   0.03  -0.02
   9   1    -0.03  -0.01  -0.03    -0.10  -0.03   0.04    -0.14  -0.06  -0.05
  10   1    -0.06  -0.02  -0.03     0.14   0.11   0.02    -0.04   0.02  -0.04
  11   1     0.06   0.03  -0.01    -0.04   0.05   0.01     0.14   0.11  -0.01
  12   1    -0.19  -0.03   0.06     0.10   0.01  -0.02    -0.54   0.00   0.23
  13   1     0.00   0.00   0.01     0.31   0.04  -0.11     0.50  -0.00  -0.22
  14   1    -0.23  -0.04   0.08     0.42  -0.07  -0.20     0.20  -0.04  -0.12
  15   1    -0.11   0.01   0.08     0.43   0.02  -0.21    -0.26   0.06   0.21
  16   1    -0.49  -0.02   0.11    -0.21  -0.01   0.04     0.12   0.01  -0.02
  17   1     0.57   0.02  -0.14     0.12  -0.01  -0.03    -0.05   0.01   0.01
  18   1     0.10  -0.05  -0.16     0.03  -0.02  -0.05    -0.02   0.01   0.02
  19   1    -0.11   0.11   0.10    -0.03   0.04   0.03     0.01  -0.02  -0.01
  20   1     0.00   0.04  -0.07    -0.00   0.02  -0.02     0.00  -0.01   0.01
                     31                     32                     33
                        a                      a                      a 
 Frequencies --  1314.2606              1337.7752              1394.0766
 Red. masses --     3.4554                 4.6124                 3.1102
 Frc consts  --     0.0000                 0.0000                 0.0000
 IR Inten    --     6.8636                20.0994                 5.2856
 Raman Activ --     0.0000                 0.0000                 0.0000
 Depolar     --     0.0000                 0.0000                 0.0000
 Atom AN      X      Y      Z        X      Y      Z        X      Y      Z
   1   6     0.00  -0.00  -0.01     0.03  -0.08  -0.09    -0.00  -0.00  -0.00
   2   6    -0.01   0.01   0.01    -0.45  -0.03   0.17     0.00   0.00  -0.00
   3   6    -0.04   0.00   0.01     0.26   0.06  -0.07    -0.01   0.00   0.00
   4   6     0.11   0.00   0.05    -0.02   0.01   0.03     0.03  -0.00   0.01
   5   8    -0.02  -0.03   0.01    -0.00  -0.02   0.01    -0.00  -0.01   0.00
   6   8    -0.09  -0.06  -0.10    -0.01   0.01  -0.02    -0.03  -0.01  -0.03
   7   6    -0.38   0.01   0.12     0.00   0.00   0.01    -0.07  -0.03  -0.02
   8   6     0.04   0.12   0.08     0.00  -0.00  -0.00     0.33  -0.14  -0.23
   9   1    -0.00   0.00   0.00     0.04   0.01   0.07     0.00   0.00   0.00
  10   1     0.01   0.01   0.00     0.14   0.10   0.03     0.00   0.00   0.00
  11   1    -0.01   0.00   0.00     0.01   0.08  -0.01     0.00   0.00  -0.00
  12   1     0.03  -0.00  -0.01     0.46   0.01  -0.20    -0.00   0.00   0.00
  13   1     0.00   0.00   0.00     0.47   0.01  -0.20    -0.00   0.00   0.00
  14   1     0.00  -0.03  -0.00    -0.22  -0.00   0.10     0.00  -0.01  -0.00
  15   1     0.04  -0.00  -0.04    -0.21   0.00   0.10     0.01  -0.00  -0.01
  16   1     0.66   0.05  -0.15    -0.01  -0.00  -0.00     0.14   0.03   0.14
  17   1     0.51   0.03  -0.11     0.01   0.00  -0.00     0.09   0.16   0.01
  18   1    -0.01   0.01  -0.06    -0.00  -0.00  -0.00    -0.41  -0.01   0.29
  19   1     0.04  -0.09  -0.02    -0.00   0.00   0.00    -0.42   0.19   0.14
  20   1     0.10  -0.10  -0.13    -0.00   0.00   0.00    -0.19   0.31   0.35
                     34                     35                     36
                        a                      a                      a 
 Frequencies --  1408.5996              1429.7385              1438.7199
 Red. masses --     3.1462                 2.0168                 2.1914
 Frc consts  --     0.0000                 0.0000                 0.0000
 IR Inten    --     1.3050                 4.1243                 6.7100
 Raman Activ --     0.0000                 0.0000                 0.0000
 Depolar     --     0.0000                 0.0000                 0.0000
 Atom AN      X      Y      Z        X      Y      Z        X      Y      Z
   1   6     0.39   0.18  -0.01    -0.00   0.00   0.00     0.00  -0.00  -0.00
   2   6    -0.07   0.01   0.04     0.00  -0.00  -0.00     0.02   0.01   0.00
   3   6     0.01   0.01   0.00    -0.00  -0.02  -0.02     0.12   0.24   0.16
   4   6     0.00  -0.00  -0.00    -0.03  -0.03   0.00    -0.06   0.04  -0.03
   5   8    -0.00  -0.00   0.00     0.01   0.03  -0.02    -0.00  -0.03   0.02
   6   8    -0.00  -0.00  -0.00     0.04   0.01   0.03     0.02  -0.00   0.02
   7   6     0.00   0.00  -0.00    -0.01   0.17   0.21     0.01   0.02   0.02
   8   6     0.00  -0.00  -0.00     0.09  -0.02  -0.05     0.00  -0.00  -0.00
   9   1    -0.51  -0.04  -0.02    -0.00  -0.00  -0.01    -0.01   0.00   0.02
  10   1    -0.35  -0.33  -0.15    -0.00   0.00  -0.00    -0.02  -0.02  -0.00
  11   1    -0.42  -0.23   0.18     0.00  -0.00  -0.00    -0.01   0.02   0.00
  12   1     0.08  -0.07  -0.04    -0.00   0.00   0.00    -0.02  -0.01   0.01
  13   1     0.05  -0.02  -0.10     0.00   0.00   0.00    -0.02  -0.00  -0.01
  14   1     0.00   0.01   0.00    -0.00   0.07   0.01     0.01  -0.66  -0.04
  15   1     0.00   0.01   0.01     0.03   0.02   0.06    -0.27  -0.16  -0.59
  16   1     0.00   0.00   0.00    -0.13  -0.09  -0.65    -0.03  -0.01  -0.07
  17   1    -0.00   0.00   0.00     0.04  -0.63  -0.13    -0.01  -0.07  -0.01
  18   1    -0.00  -0.00   0.00    -0.11   0.00   0.07    -0.01  -0.00   0.01
  19   1    -0.00   0.00   0.00    -0.10   0.04   0.03    -0.00   0.01   0.00
  20   1    -0.00   0.00   0.00    -0.04   0.07   0.08    -0.00   0.01   0.00
                     37                     38                     39
                        a                      a                      a 
 Frequencies --  1470.5712              1484.9941              1486.8948
 Red. masses --     1.5105                 1.5783                 1.8729
 Frc consts  --     0.0000                 0.0000                 0.0000
 IR Inten    --     6.3580                 2.3031                 1.0842
 Raman Activ --     0.0000                 0.0000                 0.0000
 Depolar     --     0.0000                 0.0000                 0.0000
 Atom AN      X      Y      Z        X      Y      Z        X      Y      Z
   1   6     0.00  -0.00   0.00    -0.01  -0.00  -0.00    -0.04  -0.02  -0.01
   2   6    -0.00   0.00   0.00     0.01   0.03   0.02     0.08   0.21   0.16
   3   6     0.00   0.00   0.00     0.00   0.00   0.00     0.01   0.01   0.00
   4   6     0.00  -0.00   0.00     0.00   0.00  -0.00    -0.00  -0.00   0.00
   5   8     0.00   0.00  -0.00    -0.00  -0.00   0.00     0.00   0.00   0.00
   6   8    -0.00  -0.00   0.00    -0.01  -0.00  -0.00    -0.00   0.00  -0.00
   7   6    -0.02   0.03  -0.03     0.05   0.02   0.00    -0.01  -0.00   0.00
   8   6    -0.05   0.11  -0.17     0.12   0.16   0.08    -0.01  -0.02  -0.01
   9   1     0.00  -0.00   0.00     0.01   0.00   0.01     0.06   0.02   0.08
  10   1    -0.00   0.00  -0.00     0.00  -0.00   0.00     0.01   0.00   0.01
  11   1    -0.00   0.00   0.00     0.01   0.01  -0.00     0.04   0.09  -0.01
  12   1    -0.00  -0.00   0.00    -0.00  -0.08  -0.00    -0.01  -0.66  -0.04
  13   1     0.00  -0.00  -0.00    -0.03  -0.02  -0.07    -0.26  -0.15  -0.59
  14   1     0.00  -0.00  -0.00    -0.00  -0.00   0.00    -0.01   0.02   0.01
  15   1    -0.00  -0.00  -0.00    -0.00  -0.00  -0.00    -0.01   0.01   0.02
  16   1    -0.00   0.01   0.02    -0.04   0.01   0.02     0.01  -0.00  -0.00
  17   1     0.03  -0.01  -0.02    -0.03   0.00   0.01     0.00  -0.00  -0.00
  18   1     0.49   0.06   0.18    -0.17  -0.05  -0.56     0.02   0.01   0.07
  19   1    -0.42  -0.01   0.09    -0.23  -0.65  -0.08     0.03   0.08   0.01
  20   1     0.14  -0.54   0.42    -0.07   0.05   0.31     0.01  -0.00  -0.04
                     40                     41                     42
                        a                      a                      a 
 Frequencies --  1492.5890              1495.2388              1699.8420
 Red. masses --     1.5296                 1.5879                13.2971
 Frc consts  --     0.0000                 0.0000                 0.0000
 IR Inten    --     2.4356                 1.2001               672.1871
 Raman Activ --     0.0000                 0.0000                 0.0000
 Depolar     --     0.0000                 0.0000                 0.0000
 Atom AN      X      Y      Z        X      Y      Z        X      Y      Z
   1   6    -0.05   0.10  -0.18     0.07  -0.17  -0.11     0.00  -0.00  -0.00
   2   6    -0.01   0.01  -0.05     0.03  -0.06  -0.05    -0.01   0.00   0.01
   3   6    -0.00  -0.00   0.00    -0.01  -0.00   0.00    -0.05  -0.07   0.01
   4   6     0.00   0.00  -0.00    -0.00  -0.00  -0.00     0.23   0.64  -0.42
   5   8    -0.00  -0.00   0.00    -0.00   0.00  -0.00    -0.14  -0.47   0.32
   6   8    -0.00   0.00  -0.00     0.00  -0.00   0.00     0.01  -0.04   0.04
   7   6    -0.00   0.00   0.00     0.00   0.00   0.00     0.01   0.02  -0.00
   8   6    -0.00  -0.00  -0.00     0.00   0.00   0.00    -0.00  -0.01  -0.00
   9   1    -0.31   0.08   0.45     0.18   0.13   0.53    -0.00  -0.00  -0.00
  10   1     0.16  -0.50   0.46    -0.27  -0.10  -0.21     0.01   0.01   0.00
  11   1     0.36   0.00  -0.17    -0.22   0.64   0.15    -0.00   0.00   0.00
  12   1    -0.03   0.01  -0.00    -0.03   0.07   0.01    -0.00   0.00   0.00
  13   1     0.02   0.02   0.03    -0.01   0.01   0.07     0.01   0.00  -0.01
  14   1    -0.01   0.01   0.01     0.01   0.03   0.00     0.03   0.04  -0.02
  15   1     0.02   0.00   0.00     0.01   0.01   0.02    -0.05  -0.01   0.02
  16   1    -0.00  -0.00  -0.00    -0.00  -0.00  -0.00    -0.01   0.00  -0.03
  17   1     0.00  -0.00  -0.00    -0.00  -0.00  -0.00    -0.02  -0.04  -0.01
  18   1     0.00   0.00   0.00    -0.00  -0.00  -0.00     0.00  -0.00   0.00
  19   1     0.00   0.00   0.00    -0.00  -0.00  -0.00    -0.01   0.01   0.00
  20   1     0.00  -0.00  -0.00    -0.00   0.00   0.00    -0.00   0.00   0.01
                     43                     44                     45
                        a                      a                      a 
 Frequencies --  2947.3575              2972.0845              2986.7943
 Red. masses --     1.7177                 1.9626                 1.4814
 Frc consts  --     0.0000                 0.0000                 0.0000
 IR Inten    --    29.3901                48.5638                35.9567
 Raman Activ --     0.0000                 0.0000                 0.0000
 Depolar     --     0.0000                 0.0000                 0.0000
 Atom AN      X      Y      Z        X      Y      Z        X      Y      Z
   1   6     0.00   0.00  -0.00     0.01  -0.01   0.01    -0.01   0.01   0.02
   2   6    -0.00  -0.00   0.00    -0.08   0.21  -0.19    -0.06  -0.13  -0.15
   3   6     0.00  -0.00   0.00     0.01  -0.02   0.03     0.01   0.01   0.02
   4   6    -0.00   0.00  -0.00     0.00  -0.00   0.00    -0.00  -0.00  -0.00
   5   8    -0.00  -0.00   0.00    -0.00  -0.00   0.00     0.00   0.00  -0.00
   6   8     0.01   0.01   0.00    -0.00   0.00   0.00     0.00   0.00   0.00
   7   6    -0.03   0.25  -0.04    -0.00   0.00  -0.00    -0.00  -0.00  -0.00
   8   6    -0.00  -0.01   0.00    -0.00   0.00  -0.00    -0.00  -0.00  -0.00
   9   1     0.00  -0.00   0.00    -0.00   0.06  -0.01    -0.00  -0.02   0.01
  10   1    -0.00   0.00   0.00    -0.00  -0.00   0.01     0.03  -0.02  -0.03
  11   1    -0.00   0.00  -0.00    -0.02   0.00  -0.05    -0.02   0.00  -0.04
  12   1     0.00  -0.00   0.00     0.22  -0.02   0.52     0.30  -0.09   0.70
  13   1    -0.00   0.01  -0.00     0.08  -0.74   0.15    -0.08   0.56  -0.16
  14   1    -0.00  -0.00  -0.00    -0.03   0.00  -0.08    -0.05   0.01  -0.12
  15   1    -0.00   0.00  -0.00    -0.02   0.10  -0.02     0.01  -0.07   0.02
  16   1     0.09  -0.95   0.14     0.00  -0.00   0.00    -0.00   0.01  -0.00
  17   1    -0.01   0.03  -0.02     0.00  -0.00   0.00     0.00  -0.00   0.02
  18   1    -0.00   0.06  -0.01     0.00   0.00  -0.00    -0.00   0.00  -0.00
  19   1    -0.00  -0.00  -0.02     0.00  -0.00   0.00     0.00  -0.00   0.00
  20   1     0.01   0.00   0.00     0.00  -0.00  -0.00    -0.00  -0.00  -0.00
                     46                     47                     48
                        a                      a                      a 
 Frequencies --  2990.4684              3006.1094              3011.8777
 Red. masses --     1.7429                 1.4925                 2.0177
 Frc consts  --     0.0000                 0.0000                 0.0000
 IR Inten    --    13.9532                20.8792                36.5772
 Raman Activ --     0.0000                 0.0000                 0.0000
 Depolar     --     0.0000                 0.0000                 0.0000
 Atom AN      X      Y      Z        X      Y      Z        X      Y      Z
   1   6    -0.00  -0.00  -0.00    -0.00   0.01   0.02    -0.00   0.01  -0.01
   2   6     0.00   0.00   0.00    -0.01  -0.02  -0.03     0.01  -0.03   0.03
   3   6     0.00   0.00   0.00    -0.06  -0.13  -0.15     0.09  -0.21   0.19
   4   6     0.00  -0.00  -0.00    -0.00  -0.00  -0.00     0.00  -0.01   0.01
   5   8     0.00  -0.00   0.00     0.00  -0.00   0.00    -0.00   0.00  -0.00
   6   8    -0.01  -0.00  -0.01    -0.00  -0.00  -0.00    -0.00   0.00  -0.00
   7   6    -0.05   0.06  -0.24    -0.00   0.00  -0.00     0.00  -0.00   0.00
   8   6     0.01  -0.01   0.03     0.00   0.00   0.00     0.00   0.00   0.00
   9   1    -0.00   0.00  -0.00     0.00  -0.03   0.01     0.00  -0.03   0.01
  10   1    -0.00   0.00   0.00     0.03  -0.02  -0.03     0.00  -0.00  -0.00
  11   1     0.00  -0.00   0.00    -0.02   0.01  -0.04     0.01  -0.00   0.02
  12   1    -0.01   0.00  -0.02     0.05  -0.01   0.11    -0.04   0.01  -0.08
  13   1     0.00  -0.01   0.00    -0.01   0.08  -0.02    -0.01   0.09  -0.02
  14   1    -0.00   0.00  -0.01     0.29  -0.09   0.71    -0.21   0.03  -0.52
  15   1     0.00  -0.00   0.00    -0.10   0.55  -0.16    -0.11   0.73  -0.17
  16   1    -0.00   0.00  -0.03     0.00   0.00  -0.00     0.00   0.00  -0.00
  17   1     0.22  -0.20   0.91     0.00  -0.00   0.01    -0.00   0.00  -0.00
  18   1     0.00   0.02   0.00     0.00  -0.00   0.00     0.00  -0.01   0.00
  19   1    -0.03   0.03  -0.11    -0.00   0.00  -0.01    -0.00   0.00  -0.00
  20   1    -0.02  -0.01  -0.00    -0.00  -0.00  -0.00    -0.00  -0.00  -0.00
                     49                     50                     51
                        a                      a                      a 
 Frequencies --  3039.3091              3039.6948              3042.0018
 Red. masses --     1.9567                 1.7970                 1.8933
 Frc consts  --     0.0000                 0.0000                 0.0000
 IR Inten    --    75.6248                32.4921                62.4930
 Raman Activ --     0.0000                 0.0000                 0.0000
 Depolar     --     0.0000                 0.0000                 0.0000
 Atom AN      X      Y      Z        X      Y      Z        X      Y      Z
   1   6    -0.08   0.15  -0.23    -0.00   0.00  -0.02    -0.07   0.22   0.16
   2   6    -0.01   0.02  -0.03    -0.00   0.00  -0.00     0.00   0.02   0.01
   3   6    -0.00   0.00  -0.01    -0.00   0.00  -0.00     0.00   0.01   0.01
   4   6    -0.00   0.00  -0.00    -0.00   0.00   0.00    -0.00   0.00   0.00
   5   8     0.00  -0.00   0.00     0.00   0.00  -0.00    -0.00  -0.00  -0.00
   6   8     0.00   0.00   0.00     0.00  -0.00   0.00     0.00  -0.00  -0.00
   7   6    -0.00   0.00  -0.00     0.01  -0.01   0.04     0.00  -0.00   0.00
   8   6    -0.00   0.00  -0.01     0.07  -0.09   0.24     0.00  -0.00   0.00
   9   1     0.06  -0.55   0.10     0.00  -0.02   0.00     0.07  -0.62   0.17
  10   1    -0.07   0.06   0.03    -0.01   0.01   0.01     0.36  -0.23  -0.38
  11   1     0.30  -0.05   0.70     0.02  -0.00   0.05    -0.18   0.07  -0.36
  12   1     0.03  -0.01   0.07     0.00  -0.00   0.01    -0.02   0.01  -0.04
  13   1     0.01  -0.05   0.01    -0.00  -0.00  -0.00     0.01  -0.06   0.02
  14   1     0.01  -0.00   0.02     0.00   0.00   0.00    -0.01   0.01  -0.04
  15   1     0.00  -0.01   0.00     0.00  -0.01   0.00     0.01  -0.04   0.01
  16   1     0.00  -0.00  -0.00    -0.00   0.02  -0.00    -0.00   0.00   0.00
  17   1     0.00  -0.00   0.01    -0.03   0.03  -0.11    -0.00   0.00  -0.00
  18   1    -0.00  -0.00  -0.00     0.01   0.12   0.02    -0.00   0.01  -0.00
  19   1     0.01  -0.01   0.05    -0.23   0.21  -0.89    -0.00   0.00  -0.02
  20   1    -0.00   0.00  -0.00    -0.00  -0.02   0.03     0.00   0.00   0.00
                     52                     53                     54
                        a                      a                      a 
 Frequencies --  3048.7234              3050.2435              3063.0225
 Red. masses --     1.3053                 1.6253                 1.7516
 Frc consts  --     0.0000                 0.0000                 0.0000
 IR Inten    --    34.7224                27.3391                23.0589
 Raman Activ --     0.0000                 0.0000                 0.0000
 Depolar     --     0.0000                 0.0000                 0.0000
 Atom AN      X      Y      Z        X      Y      Z        X      Y      Z
   1   6     0.15   0.01  -0.06    -0.00  -0.00   0.00     0.00  -0.00  -0.00
   2   6     0.00  -0.00  -0.00     0.00  -0.00   0.00    -0.00  -0.00  -0.00
   3   6     0.00   0.00   0.00     0.00  -0.00   0.00    -0.00  -0.00  -0.00
   4   6    -0.00  -0.00  -0.00     0.00  -0.00  -0.00     0.00  -0.00   0.00
   5   8     0.00   0.00  -0.00    -0.00   0.00  -0.00     0.00   0.00  -0.00
   6   8     0.00  -0.00   0.00    -0.00  -0.00   0.00    -0.00   0.00   0.00
   7   6     0.00  -0.00   0.00     0.00  -0.02   0.00    -0.01  -0.01  -0.01
   8   6     0.00  -0.01   0.00     0.02  -0.24   0.00    -0.22  -0.12  -0.05
   9   1     0.07  -0.43   0.09    -0.00   0.02  -0.00     0.00  -0.00  -0.00
  10   1    -0.46   0.34   0.52     0.01  -0.01  -0.02    -0.00   0.00   0.00
  11   1    -0.15   0.04  -0.39     0.01  -0.00   0.01     0.00  -0.00   0.00
  12   1     0.01  -0.00   0.01    -0.00   0.00  -0.00     0.00  -0.00   0.00
  13   1     0.00   0.01  -0.00    -0.00  -0.00   0.00    -0.00   0.00  -0.00
  14   1    -0.00   0.00  -0.00    -0.00  -0.00  -0.00     0.00  -0.00   0.00
  15   1     0.00  -0.00   0.00    -0.00   0.01  -0.00    -0.00   0.00  -0.00
  16   1    -0.00   0.00  -0.00    -0.00   0.05  -0.01    -0.00   0.02  -0.00
  17   1     0.00  -0.00   0.00    -0.00  -0.00  -0.01     0.00  -0.00   0.02
  18   1    -0.00   0.03  -0.00    -0.04   0.95  -0.11    -0.03   0.05  -0.02
  19   1    -0.00  -0.00  -0.00     0.03  -0.06   0.13    -0.03  -0.02  -0.02
  20   1    -0.00  -0.00  -0.00    -0.06  -0.06  -0.01     0.85   0.39   0.21
