      -----------------------------------------------------------      
     |                   =====================                   |     
     |                           x T B                           |     
     |                   =====================                   |     
     |                         S. Grimme                         |     
     |          Mulliken Center for Theoretical Chemistry        |     
     |                    University of Bonn                     |     
      -----------------------------------------------------------      

   * xtb version 6.7.1 (edcfbbe) compiled by 'albert@albert-system' on 2024-07-22

   xtb is free software: you can redistribute it and/or modify it under
   the terms of the GNU Lesser General Public License as published by
   the Free Software Foundation, either version 3 of the License, or
   (at your option) any later version.
   
   xtb is distributed in the hope that it will be useful,
   but WITHOUT ANY WARRANTY; without even the implied warranty of
   MERCHANTABILITY or FITNESS FOR A PARTICULAR PURPOSE.  See the
   GNU Lesser General Public License for more details.
   
   Cite this work as:
   * C. Bannwarth, E. Caldeweyher, S. Ehlert, A. Hansen, P. Pracht,
     J. Seibert, S. Spicher, S. Grimme, WIREs Comput. Mol. Sci., 2020, 11,
     e01493. DOI: 10.1002/wcms.1493
   
   for GFN2-xTB:
   * C. Bannwarth, S. Ehlert and S. Grimme., J. Chem. Theory Comput., 2019,
     15, 1652-1671. DOI: 10.1021/acs.jctc.8b01176
   for GFN1-xTB:
   * S. Grimme, C. Bannwarth, P. Shushkov, J. Chem. Theory Comput., 2017,
     13, 1989-2009. DOI: 10.1021/acs.jctc.7b00118
   for GFN0-xTB:
   * P. Pracht, E. Caldeweyher, S. Ehlert, S. Grimme, ChemRxiv, 2019, preprint.
     DOI: 10.26434/chemrxiv.8326202.v1
   for GFN-FF:
   * S. Spicher and S. Grimme, Angew. Chem. Int. Ed., 2020, 59, 15665-15673.
     DOI: 10.1002/anie.202004239
   
   for ALPB and GBSA implicit solvation:
   * S. Ehlert, M. Stahn, S. Spicher, S. Grimme, J. Chem. Theory Comput.,
     2021, 17, 4250-4261. DOI: 10.1021/acs.jctc.1c00471
   
   for ddCOSMO and CPCM-X implicit solvation:
   * M. Stahn, S. Ehlert, S. Grimme, J. Phys. Chem. A,
     2023, XX, XXXX-XXXX. DOI: 10.1021/acs.jpca.3c04382
   
   for DFT-D4:
   * E. Caldeweyher, C. Bannwarth and S. Grimme, J. Chem. Phys., 2017,
     147, 034112. DOI: 10.1063/1.4993215
   * E. Caldeweyher, S. Ehlert, A. Hansen, H. Neugebauer, S. Spicher,
     C. Bannwarth and S. Grimme, J. Chem. Phys., 2019, 150, 154122.
     DOI: 10.1063/1.5090222
   * E. Caldeweyher, J.-M. Mewes, S. Ehlert and S. Grimme, Phys. Chem. Chem. Phys.
     2020, 22, 8499-8512. DOI: 10.1039/D0CP00502A
   
   for sTDA-xTB:
   * S. Grimme and C. Bannwarth, J. Chem. Phys., 2016, 145, 054103.
     DOI: 10.1063/1.4959605
   
   in the mass-spec context:
   * V. Asgeirsson, C. Bauer and S. Grimme, Chem. Sci., 2017, 8, 4879.
     DOI: 10.1039/c7sc00601b
   * J. Koopman and S. Grimme, ACS Omega 2019, 4, 12, 15120-15133.
     DOI: 10.1021/acsomega.9b02011
   
   for metadynamics refer to:
   * S. Grimme, J. Chem. Theory Comput., 2019, 155, 2847-2862
     DOI: 10.1021/acs.jctc.9b00143
   
   for SPH calculations refer to:
   * S. Spicher and S. Grimme, J. Chem. Theory Comput., 2021, 17, 1701-1714
     DOI: 10.1021/acs.jctc.0c01306
   
   for ONIOM refer to:
   * C. Plett, A. Katbashev, S. Ehlert, S. Grimme, M. Bursch,
     Phys. Chem. Chem. Phys., 2023, 25, 17860-17868. DOI: 10.1039/D3CP02178E
   
   for DIPRO refer to:
   * J. Kohn, N. Gildemeister, S. Grimme, D. Fazzi, A. Hansen,
     J. Chem. Phys., 2023, just accepted.
   
   for PTB refer to:
   * S. Grimme, M. Mueller, A. Hansen, J. Chem. Phys., 2023, 158, 124111.
     DOI: 10.1063/5.0137838
   
   with help from (in alphabetical order)
   P. Atkinson, C. Bannwarth, F. Bohle, G. Brandenburg, E. Caldeweyher
   M. Checinski, S. Dohm, S. Ehlert, S. Ehrlich, I. Gerasimov, C. Hölzer
   A. Katbashev, J. Kohn, J. Koopman, C. Lavigne, S. Lehtola, F. März, M. Müller,
   F. Musil, H. Neugebauer, J. Pisarek, C. Plett, P. Pracht, F. Pultar,
   J. Seibert, P. Shushkov, S. Spicher, M. Stahn, M. Steiner, T. Strunk,
   J. Stückrath, T. Rose, and J. Unsleber
   
 * started run on 2025/04/11 at 12:29:48.019     
   ID    Z sym.   atoms
    1    6 C      1-3, 5-7
    2   16 S      4
    3    1 H      8-21

           -------------------------------------------------
          |                Calculation Setup                |
           -------------------------------------------------

          program call               : /srv/scratch/z5358697/.xtb/bin/xtb solv.coord --gfn2 --sp --chrg 0 --norestart --parallel 1 --alpb water reference -I xtb_sp-xcontrol-inp
          hostname                   : k075
          coordinate file            : solv.coord
          omp threads                :                     1


           -------------------------------------------------
          |                 G F N 2 - x T B                 |
           -------------------------------------------------

        Reference                      10.1021/acs.jctc.8b01176
      * Hamiltonian:
        H0-scaling (s, p, d)           1.850000    2.230000    2.230000
        zeta-weighting                 0.500000
      * Dispersion:
        s8                             2.700000
        a1                             0.520000
        a2                             5.000000
        s9                             5.000000
      * Repulsion:
        kExp                           1.500000    1.000000
        rExp                           1.000000
      * Coulomb:
        alpha                          2.000000
        third order                    shell-resolved
        anisotropic                    true
        a3                             3.000000
        a5                             4.000000
        cn-shift                       1.200000
        cn-exp                         4.000000
        max-rad                        5.000000

      * Solvation model:               ALPB
        Solvent                        water
        Parameter file                 internal GFN2-xTB/ALPB
        Dielectric constant                8.0200E+01
        Reference state                gsolv=reference [X=1]
        Free energy shift                  2.8945E-03 Eh       1.8164E+00 kcal/mol
        Temperature                        2.9815E+02 K
        Density                            1.0000E+00 kg/L
        Solvent mass                       1.8000E+01 g/mol
        Interaction kernel             P16
        Born radius scaling (c1)           1.4744E+00
        Born radii integrator          GBOBC
        Born offset                        0.0000E+00 a0       0.0000E+00 AA
        H-bond correction              true
        Ion screening                  false
        Surface tension                    1.0000E-05 Eh       1.5569E+01 dyn/cm
        Grid points                               974 per atom

          ...................................................
          :                      SETUP                      :
          :.................................................:
          :  # basis functions                  48          :
          :  # atomic orbitals                  47          :
          :  # shells                           29          :
          :  # electrons                        44          :
          :  max. iterations                   250          :
          :  Hamiltonian                  GFN2-xTB          :
          :  restarted?                      false          :
          :  GBSA solvation                   true          :
          :  PC potential                    false          :
          :  electronic temp.          300.0000000     K    :
          :  accuracy                    1.0000000          :
          :  -> integral cutoff          0.2500000E+02      :
          :  -> integral neglect         0.1000000E-07      :
          :  -> SCF convergence          0.1000000E-05 Eh   :
          :  -> wf. convergence          0.1000000E-03 e    :
          :  Broyden damping             0.4000000          :
          :  net charge                          0          :
          :  unpaired electrons                  0          :
          ...................................................

 iter      E             dE          RMSdq      gap      omega  full diag
   1    -23.4911378 -0.234911E+02  0.334E+00    5.20       0.0  T
   2    -23.5398944 -0.487566E-01  0.186E+00    4.57       1.0  T
   3    -23.5416187 -0.172434E-02  0.744E-01    4.42       1.0  T
   4    -23.5423496 -0.730860E-03  0.272E-01    4.27       1.0  T
   5    -23.5424707 -0.121076E-03  0.120E-01    4.28       1.0  T
   6    -23.5424832 -0.125326E-04  0.264E-02    4.28       1.0  T
   7    -23.5424839 -0.682072E-06  0.577E-03    4.28       3.8  T
   8    -23.5424840 -0.116912E-06  0.295E-03    4.28       7.4  T
   9    -23.5424840 -0.893412E-08  0.939E-04    4.28      23.2  T
  10    -23.5424840 -0.438960E-08  0.337E-04    4.28      64.7  T

   *** convergence criteria satisfied after 10 iterations ***

         #    Occupation            Energy/Eh            Energy/eV
      -------------------------------------------------------------
         1        2.0000           -0.6995671             -19.0362
       ...           ...                  ...                  ...
        16        2.0000           -0.4510938             -12.2749
        17        2.0000           -0.4488325             -12.2134
        18        2.0000           -0.4464356             -12.1481
        19        2.0000           -0.4403293             -11.9820
        20        2.0000           -0.4291096             -11.6767
        21        2.0000           -0.4175906             -11.3632
        22        2.0000           -0.3510269              -9.5519 (HOMO)
        23                         -0.1936060              -5.2683 (LUMO)
        24                         -0.1481114              -4.0303
        25                          0.0009651               0.0263
        26                          0.0058624               0.1595
        27                          0.0097254               0.2646
       ...                                ...                  ...
        47                          0.3946589              10.7392
      -------------------------------------------------------------
                  HL-Gap            0.1574209 Eh            4.2836 eV
             Fermi-level           -0.2723165 Eh           -7.4101 eV

 SCC (total)                   0 d,  0 h,  0 min,  0.017 sec
 SCC setup                      ...        0 min,  0.001 sec (  8.014%)
 Dispersion                     ...        0 min,  0.000 sec (  0.730%)
 classical contributions        ...        0 min,  0.000 sec (  0.160%)
 integral evaluation            ...        0 min,  0.003 sec ( 16.623%)
 iterations                     ...        0 min,  0.007 sec ( 38.740%)
 molecular gradient             ...        0 min,  0.006 sec ( 34.647%)
 printout                       ...        0 min,  0.000 sec (  0.973%)

         :::::::::::::::::::::::::::::::::::::::::::::::::::::
         ::                     SUMMARY                     ::
         :::::::::::::::::::::::::::::::::::::::::::::::::::::
         :: total energy             -23.233763907664 Eh    ::
         :: total w/o Gsasa/hb       -23.235729630157 Eh    ::
         :: gradient norm              0.000129360577 Eh/a0 ::
         :: HOMO-LUMO gap              4.283639782709 eV    ::
         ::.................................................::
         :: SCC energy               -23.542416210573 Eh    ::
         :: -> isotropic ES            0.009525090608 Eh    ::
         :: -> anisotropic ES          0.004986687452 Eh    ::
         :: -> anisotropic XC          0.016265346666 Eh    ::
         :: -> dispersion             -0.014211158774 Eh    ::
         :: -> Gsolv                   0.000121223117 Eh    ::
         ::    -> Gelec               -0.001844499376 Eh    ::
         ::    -> Gsasa                0.000002332449 Eh    ::
         ::    -> Ghb                 -0.000931159117 Eh    ::
         ::    -> Gshift               0.002894549160 Eh    ::
         :: repulsion energy           0.308652302908 Eh    ::
         :: add. restraining           0.000000000000 Eh    ::
         :: total charge               0.000000000000 e     ::
         :::::::::::::::::::::::::::::::::::::::::::::::::::::

           -------------------------------------------------
          |                Property Printout                |
           -------------------------------------------------

    * Orbital Energies and Occupations

         #    Occupation            Energy/Eh            Energy/eV
      -------------------------------------------------------------
         1        2.0000           -0.6995671             -19.0362
       ...           ...                  ...                  ...
        10        2.0000           -0.5011587             -13.6372
        11        2.0000           -0.4951272             -13.4731
        12        2.0000           -0.4886960             -13.2981
        13        2.0000           -0.4842152             -13.1762
        14        2.0000           -0.4659376             -12.6788
        15        2.0000           -0.4653678             -12.6633
        16        2.0000           -0.4510938             -12.2749
        17        2.0000           -0.4488325             -12.2134
        18        2.0000           -0.4464356             -12.1481
        19        2.0000           -0.4403293             -11.9820
        20        2.0000           -0.4291096             -11.6767
        21        2.0000           -0.4175906             -11.3632
        22        2.0000           -0.3510269              -9.5519 (HOMO)
        23                         -0.1936060              -5.2683 (LUMO)
        24                         -0.1481114              -4.0303
        25                          0.0009651               0.0263
        26                          0.0058624               0.1595
        27                          0.0097254               0.2646
        28                          0.0853606               2.3228
        29                          0.0984700               2.6795
        30                          0.1165143               3.1705
        31                          0.1487106               4.0466
        32                          0.1556683               4.2359
        33                          0.1574821               4.2853
       ...                                ...                  ...
        47                          0.3946589              10.7392
      -------------------------------------------------------------
                  HL-Gap            0.1574209 Eh            4.2836 eV
             Fermi-level           -0.2723165 Eh           -7.4101 eV

     #   Z          covCN         q      C6AA      α(0)
     1   6 C        3.789    -0.113    22.672     6.781
     2   6 C        3.841     0.042    19.839     6.336
     3   6 C        3.789    -0.113    22.679     6.782
     4  16 S        2.084    -0.283   153.294    20.838
     5   6 C        3.841     0.043    19.818     6.333
     6   6 C        3.800    -0.115    22.697     6.783
     7   6 C        3.785    -0.111    22.638     6.777
     8   1 H        0.925     0.047     2.363     2.404
     9   1 H        0.925     0.048     2.341     2.393
    10   1 H        0.925     0.049     2.326     2.385
    11   1 H        0.924     0.037     2.494     2.470
    12   1 H        0.925     0.045     2.387     2.416
    13   1 H        0.925     0.049     2.337     2.391
    14   1 H        0.925     0.049     2.333     2.388
    15   1 H        0.924     0.034     2.527     2.486
    16   1 H        0.925     0.050     2.317     2.380
    17   1 H        0.925     0.053     2.279     2.361
    18   1 H        0.925     0.049     2.330     2.387
    19   1 H        0.925     0.049     2.333     2.389
    20   1 H        0.925     0.040     2.443     2.444
    21   1 H        0.925     0.050     2.315     2.379

 Mol. C6AA /au·bohr⁶  :       3809.828748
 Mol. C8AA /au·bohr⁸  :      96745.437791
 Mol. α(0) /au        :         94.305259


Wiberg/Mayer (AO) data.
largest (>0.10) Wiberg bond orders for each atom

 ---------------------------------------------------------------------------
     #   Z sym  total        # sym  WBO       # sym  WBO       # sym  WBO
 ---------------------------------------------------------------------------
     1   6 C    3.994 --     2 C    1.017     8 H    0.986     9 H    0.985
                            10 H    0.979
     2   6 C    3.976 --     3 C    1.017     1 C    1.017    11 H    0.965
                             4 S    0.957
     3   6 C    3.994 --     2 C    1.017    12 H    0.986    13 H    0.986
                            14 H    0.979
     4  16 S    2.044 --     5 C    0.959     2 C    0.957
     5   6 C    3.975 --     7 C    1.018     6 C    1.015    15 H    0.967
                             4 S    0.959
     6   6 C    3.993 --     5 C    1.015    18 H    0.985    16 H    0.985
                            17 H    0.979
     7   6 C    3.995 --     5 C    1.018    21 H    0.985    20 H    0.984
                            19 H    0.978
     8   1 H    0.998 --     1 C    0.986
     9   1 H    0.998 --     1 C    0.985
    10   1 H    0.997 --     1 C    0.979
    11   1 H    0.999 --     2 C    0.965
    12   1 H    0.998 --     3 C    0.986
    13   1 H    0.998 --     3 C    0.986
    14   1 H    0.997 --     3 C    0.979
    15   1 H    0.999 --     5 C    0.967
    16   1 H    0.997 --     6 C    0.985
    17   1 H    0.997 --     6 C    0.979
    18   1 H    0.998 --     6 C    0.985
    19   1 H    0.998 --     7 C    0.978
    20   1 H    0.998 --     7 C    0.984
    21   1 H    0.997 --     7 C    0.985
 ---------------------------------------------------------------------------

Topologies differ in total number of bonds
Writing topology from bond orders to xtbtopo.mol

molecular dipole:
                 x           y           z       tot (Debye)
 q only:       -0.072      -0.473      -0.446
   full:       -0.076      -0.750      -0.663       2.553
molecular quadrupole (traceless):
                xx          xy          yy          xz          yz          zz
 q only:        4.328      -0.250      -2.530      -0.481      -1.009      -1.797
  q+dip:        4.010      -0.154      -1.753      -0.111      -1.163      -2.258
   full:        4.782      -0.154      -2.336      -0.354      -0.931      -2.446


           -------------------------------------------------
          | TOTAL ENERGY              -23.233763907664 Eh   |
          | GRADIENT NORM               0.000129360577 Eh/α |
          | HOMO-LUMO GAP               4.283639782709 eV   |
           -------------------------------------------------

------------------------------------------------------------------------
 * finished run on 2025/04/11 at 12:29:48.084     
------------------------------------------------------------------------
 total:
 * wall-time:     0 d,  0 h,  0 min,  0.065 sec
 *  cpu-time:     0 d,  0 h,  0 min,  0.025 sec
 * ratio c/w:     0.389 speedup
 SCF:
 * wall-time:     0 d,  0 h,  0 min,  0.017 sec
 *  cpu-time:     0 d,  0 h,  0 min,  0.017 sec
 * ratio c/w:     0.991 speedup

