      -----------------------------------------------------------      
     |                   =====================                   |     
     |                           x T B                           |     
     |                   =====================                   |     
     |                         S. Grimme                         |     
     |          Mulliken Center for Theoretical Chemistry        |     
     |                    University of Bonn                     |     
      -----------------------------------------------------------      

   * xtb version 6.7.1 (edcfbbe) compiled by 'albert@albert-system' on 2024-07-22

   xtb is free software: you can redistribute it and/or modify it under
   the terms of the GNU Lesser General Public License as published by
   the Free Software Foundation, either version 3 of the License, or
   (at your option) any later version.
   
   xtb is distributed in the hope that it will be useful,
   but WITHOUT ANY WARRANTY; without even the implied warranty of
   MERCHANTABILITY or FITNESS FOR A PARTICULAR PURPOSE.  See the
   GNU Lesser General Public License for more details.
   
   Cite this work as:
   * C. Bannwarth, E. Caldeweyher, S. Ehlert, A. Hansen, P. Pracht,
     J. Seibert, S. Spicher, S. Grimme, WIREs Comput. Mol. Sci., 2020, 11,
     e01493. DOI: 10.1002/wcms.1493
   
   for GFN2-xTB:
   * C. Bannwarth, S. Ehlert and S. Grimme., J. Chem. Theory Comput., 2019,
     15, 1652-1671. DOI: 10.1021/acs.jctc.8b01176
   for GFN1-xTB:
   * S. Grimme, C. Bannwarth, P. Shushkov, J. Chem. Theory Comput., 2017,
     13, 1989-2009. DOI: 10.1021/acs.jctc.7b00118
   for GFN0-xTB:
   * P. Pracht, E. Caldeweyher, S. Ehlert, S. Grimme, ChemRxiv, 2019, preprint.
     DOI: 10.26434/chemrxiv.8326202.v1
   for GFN-FF:
   * S. Spicher and S. Grimme, Angew. Chem. Int. Ed., 2020, 59, 15665-15673.
     DOI: 10.1002/anie.202004239
   
   for ALPB and GBSA implicit solvation:
   * S. Ehlert, M. Stahn, S. Spicher, S. Grimme, J. Chem. Theory Comput.,
     2021, 17, 4250-4261. DOI: 10.1021/acs.jctc.1c00471
   
   for ddCOSMO and CPCM-X implicit solvation:
   * M. Stahn, S. Ehlert, S. Grimme, J. Phys. Chem. A,
     2023, XX, XXXX-XXXX. DOI: 10.1021/acs.jpca.3c04382
   
   for DFT-D4:
   * E. Caldeweyher, C. Bannwarth and S. Grimme, J. Chem. Phys., 2017,
     147, 034112. DOI: 10.1063/1.4993215
   * E. Caldeweyher, S. Ehlert, A. Hansen, H. Neugebauer, S. Spicher,
     C. Bannwarth and S. Grimme, J. Chem. Phys., 2019, 150, 154122.
     DOI: 10.1063/1.5090222
   * E. Caldeweyher, J.-M. Mewes, S. Ehlert and S. Grimme, Phys. Chem. Chem. Phys.
     2020, 22, 8499-8512. DOI: 10.1039/D0CP00502A
   
   for sTDA-xTB:
   * S. Grimme and C. Bannwarth, J. Chem. Phys., 2016, 145, 054103.
     DOI: 10.1063/1.4959605
   
   in the mass-spec context:
   * V. Asgeirsson, C. Bauer and S. Grimme, Chem. Sci., 2017, 8, 4879.
     DOI: 10.1039/c7sc00601b
   * J. Koopman and S. Grimme, ACS Omega 2019, 4, 12, 15120-15133.
     DOI: 10.1021/acsomega.9b02011
   
   for metadynamics refer to:
   * S. Grimme, J. Chem. Theory Comput., 2019, 155, 2847-2862
     DOI: 10.1021/acs.jctc.9b00143
   
   for SPH calculations refer to:
   * S. Spicher and S. Grimme, J. Chem. Theory Comput., 2021, 17, 1701-1714
     DOI: 10.1021/acs.jctc.0c01306
   
   for ONIOM refer to:
   * C. Plett, A. Katbashev, S. Ehlert, S. Grimme, M. Bursch,
     Phys. Chem. Chem. Phys., 2023, 25, 17860-17868. DOI: 10.1039/D3CP02178E
   
   for DIPRO refer to:
   * J. Kohn, N. Gildemeister, S. Grimme, D. Fazzi, A. Hansen,
     J. Chem. Phys., 2023, just accepted.
   
   for PTB refer to:
   * S. Grimme, M. Mueller, A. Hansen, J. Chem. Phys., 2023, 158, 124111.
     DOI: 10.1063/5.0137838
   
   with help from (in alphabetical order)
   P. Atkinson, C. Bannwarth, F. Bohle, G. Brandenburg, E. Caldeweyher
   M. Checinski, S. Dohm, S. Ehlert, S. Ehrlich, I. Gerasimov, C. Hölzer
   A. Katbashev, J. Kohn, J. Koopman, C. Lavigne, S. Lehtola, F. März, M. Müller,
   F. Musil, H. Neugebauer, J. Pisarek, C. Plett, P. Pracht, F. Pultar,
   J. Seibert, P. Shushkov, S. Spicher, M. Stahn, M. Steiner, T. Strunk,
   J. Stückrath, T. Rose, and J. Unsleber
   
 * started run on 2025/04/11 at 15:53:53.986     
   ID    Z sym.   atoms
    1    6 C      1-4, 7, 8
    2    8 O      5, 6
    3    1 H      9-20

           -------------------------------------------------
          |                Calculation Setup                |
           -------------------------------------------------

          program call               : /srv/scratch/z5358697/.xtb/bin/xtb gas.coord --gfn2 --sp --chrg 0 --norestart --parallel 1
          hostname                   : k061
          coordinate file            : gas.coord
          omp threads                :                     1


           -------------------------------------------------
          |                 G F N 2 - x T B                 |
           -------------------------------------------------

        Reference                      10.1021/acs.jctc.8b01176
      * Hamiltonian:
        H0-scaling (s, p, d)           1.850000    2.230000    2.230000
        zeta-weighting                 0.500000
      * Dispersion:
        s8                             2.700000
        a1                             0.520000
        a2                             5.000000
        s9                             5.000000
      * Repulsion:
        kExp                           1.500000    1.000000
        rExp                           1.000000
      * Coulomb:
        alpha                          2.000000
        third order                    shell-resolved
        anisotropic                    true
        a3                             3.000000
        a5                             4.000000
        cn-shift                       1.200000
        cn-exp                         4.000000
        max-rad                        5.000000


          ...................................................
          :                      SETUP                      :
          :.................................................:
          :  # basis functions                  44          :
          :  # atomic orbitals                  44          :
          :  # shells                           28          :
          :  # electrons                        48          :
          :  max. iterations                   250          :
          :  Hamiltonian                  GFN2-xTB          :
          :  restarted?                      false          :
          :  GBSA solvation                  false          :
          :  PC potential                    false          :
          :  electronic temp.          300.0000000     K    :
          :  accuracy                    1.0000000          :
          :  -> integral cutoff          0.2500000E+02      :
          :  -> integral neglect         0.1000000E-07      :
          :  -> SCF convergence          0.1000000E-05 Eh   :
          :  -> wf. convergence          0.1000000E-03 e    :
          :  Broyden damping             0.4000000          :
          :  net charge                          0          :
          :  unpaired electrons                  0          :
          ...................................................

 iter      E             dE          RMSdq      gap      omega  full diag
   1    -27.3560855 -0.273561E+02  0.385E+00    5.92       0.0  T
   2    -27.4268068 -0.707213E-01  0.199E+00    4.69       1.0  T
   3    -27.4301054 -0.329854E-02  0.112E+00    5.17       1.0  T
   4    -27.4323412 -0.223582E-02  0.182E-01    4.89       1.0  T
   5    -27.4326241 -0.282897E-03  0.713E-02    4.96       1.0  T
   6    -27.4326299 -0.582045E-05  0.248E-02    4.95       1.0  T
   7    -27.4326312 -0.129523E-05  0.793E-03    4.95       2.8  T
   8    -27.4326313 -0.151980E-06  0.181E-03    4.95      12.3  T
   9    -27.4326313 -0.578098E-08  0.869E-04    4.95      25.7  T
  10    -27.4326313 -0.216626E-08  0.266E-04    4.95      84.0  T

   *** convergence criteria satisfied after 10 iterations ***

         #    Occupation            Energy/Eh            Energy/eV
      -------------------------------------------------------------
         1        2.0000           -0.7410226             -20.1643
       ...           ...                  ...                  ...
        18        2.0000           -0.4712887             -12.8244
        19        2.0000           -0.4639629             -12.6251
        20        2.0000           -0.4506105             -12.2617
        21        2.0000           -0.4486222             -12.2076
        22        2.0000           -0.4450719             -12.1110
        23        2.0000           -0.4363908             -11.8748
        24        2.0000           -0.4086313             -11.1194 (HOMO)
        25                         -0.2266161              -6.1665 (LUMO)
        26                         -0.0020564              -0.0560
        27                          0.1003481               2.7306
        28                          0.1071555               2.9158
        29                          0.1104888               3.0066
       ...                                ...                  ...
        44                          0.6299500              17.1418
      -------------------------------------------------------------
                  HL-Gap            0.1820152 Eh            4.9529 eV
             Fermi-level           -0.3176237 Eh           -8.6430 eV

 SCC (total)                   0 d,  0 h,  0 min,  0.020 sec
 SCC setup                      ...        0 min,  0.000 sec (  1.073%)
 Dispersion                     ...        0 min,  0.000 sec (  0.582%)
 classical contributions        ...        0 min,  0.000 sec (  0.128%)
 integral evaluation            ...        0 min,  0.002 sec (  8.946%)
 iterations                     ...        0 min,  0.012 sec ( 62.899%)
 molecular gradient             ...        0 min,  0.005 sec ( 25.521%)
 printout                       ...        0 min,  0.000 sec (  0.782%)

         :::::::::::::::::::::::::::::::::::::::::::::::::::::
         ::                     SUMMARY                     ::
         :::::::::::::::::::::::::::::::::::::::::::::::::::::
         :: total energy             -27.116015582951 Eh    ::
         :: gradient norm              0.026854427634 Eh/a0 ::
         :: HOMO-LUMO gap              4.952885312758 eV    ::
         ::.................................................::
         :: SCC energy               -27.432609770106 Eh    ::
         :: -> isotropic ES            0.047909704603 Eh    ::
         :: -> anisotropic ES          0.002532264570 Eh    ::
         :: -> anisotropic XC          0.007801575515 Eh    ::
         :: -> dispersion             -0.011591978203 Eh    ::
         :: repulsion energy           0.316594187155 Eh    ::
         :: add. restraining           0.000000000000 Eh    ::
         :: total charge               0.000000000000 e     ::
         :::::::::::::::::::::::::::::::::::::::::::::::::::::

           -------------------------------------------------
          |                Property Printout                |
           -------------------------------------------------

    * Orbital Energies and Occupations

         #    Occupation            Energy/Eh            Energy/eV
      -------------------------------------------------------------
         1        2.0000           -0.7410226             -20.1643
       ...           ...                  ...                  ...
        12        2.0000           -0.5206012             -14.1663
        13        2.0000           -0.5148294             -14.0092
        14        2.0000           -0.5081311             -13.8270
        15        2.0000           -0.4949339             -13.4678
        16        2.0000           -0.4873056             -13.2603
        17        2.0000           -0.4758642             -12.9489
        18        2.0000           -0.4712887             -12.8244
        19        2.0000           -0.4639629             -12.6251
        20        2.0000           -0.4506105             -12.2617
        21        2.0000           -0.4486222             -12.2076
        22        2.0000           -0.4450719             -12.1110
        23        2.0000           -0.4363908             -11.8748
        24        2.0000           -0.4086313             -11.1194 (HOMO)
        25                         -0.2266161              -6.1665 (LUMO)
        26                         -0.0020564              -0.0560
        27                          0.1003481               2.7306
        28                          0.1071555               2.9158
        29                          0.1104888               3.0066
        30                          0.1291537               3.5144
        31                          0.1391087               3.7853
        32                          0.1498378               4.0773
        33                          0.1555754               4.2334
        34                          0.1627369               4.4283
        35                          0.1734817               4.7207
       ...                                ...                  ...
        44                          0.6299500              17.1418
      -------------------------------------------------------------
                  HL-Gap            0.1820152 Eh            4.9529 eV
             Fermi-level           -0.3176237 Eh           -8.6430 eV

     #   Z          covCN         q      C6AA      α(0)
     1   6 C        3.753    -0.106    22.586     6.777
     2   6 C        3.803    -0.046    21.397     6.585
     3   6 C        3.805    -0.092    22.241     6.714
     4   6 C        2.715     0.358    20.928     7.489
     5   8 O        0.856    -0.424    22.157     6.311
     6   8 O        1.703    -0.266    18.407     5.793
     7   6 C        3.693     0.077    19.471     6.313
     8   6 C        3.750    -0.113    22.732     6.800
     9   1 H        0.925     0.041     2.431     2.438
    10   1 H        0.925     0.041     2.431     2.438
    11   1 H        0.925     0.040     2.450     2.448
    12   1 H        0.924     0.040     2.452     2.449
    13   1 H        0.924     0.043     2.413     2.429
    14   1 H        0.925     0.066     2.129     2.282
    15   1 H        0.925     0.061     2.193     2.316
    16   1 H        0.924     0.056     2.242     2.342
    17   1 H        0.924     0.061     2.192     2.315
    18   1 H        0.925     0.051     2.307     2.375
    19   1 H        0.925     0.060     2.202     2.321
    20   1 H        0.925     0.053     2.289     2.366

 Mol. C6AA /au·bohr⁶  :       3018.841298
 Mol. C8AA /au·bohr⁸  :      64016.889092
 Mol. α(0) /au        :         81.299509


Wiberg/Mayer (AO) data.
largest (>0.10) Wiberg bond orders for each atom

 ---------------------------------------------------------------------------
     #   Z sym  total        # sym  WBO       # sym  WBO       # sym  WBO
 ---------------------------------------------------------------------------
     1   6 C    3.995 --     2 C    1.018    11 H    0.988    10 H    0.987
                             9 H    0.986
     2   6 C    3.994 --     1 C    1.018     3 C    0.980    12 H    0.979
                            13 H    0.979
     3   6 C    3.993 --     2 C    0.980     4 C    0.973    14 H    0.970
                            15 H    0.970
     4   6 C    3.915 --     5 O    1.737     6 O    1.148     3 C    0.973
     5   8 O    2.019 --     4 C    1.737     6 O    0.174
     6   8 O    2.313 --     4 C    1.148     7 C    0.932     5 O    0.174
     7   6 C    3.926 --     8 C    1.014    16 H    0.973    17 H    0.969
                             6 O    0.932
     8   6 C    3.992 --     7 C    1.014    20 H    0.986    19 H    0.985
                            18 H    0.983
     9   1 H    0.997 --     1 C    0.986
    10   1 H    0.998 --     1 C    0.987
    11   1 H    0.998 --     1 C    0.988
    12   1 H    0.998 --     2 C    0.979
    13   1 H    0.998 --     2 C    0.979
    14   1 H    0.996 --     3 C    0.970
    15   1 H    0.996 --     3 C    0.970
    16   1 H    0.997 --     7 C    0.973
    17   1 H    0.996 --     7 C    0.969
    18   1 H    0.997 --     8 C    0.983
    19   1 H    0.996 --     8 C    0.985
    20   1 H    0.997 --     8 C    0.986
 ---------------------------------------------------------------------------

Topologies differ in total number of bonds
Writing topology from bond orders to xtbtopo.mol

molecular dipole:
                 x           y           z       tot (Debye)
 q only:        0.036      -0.820      -0.328
   full:        0.042      -0.854      -0.426       2.428
molecular quadrupole (traceless):
                xx          xy          yy          xz          yz          zz
 q only:        8.100      -1.173      -5.827       0.072      -3.056      -2.272
  q+dip:        6.730      -1.676      -5.403      -0.629      -3.153      -1.327
   full:        7.198      -1.443      -5.786      -0.485      -4.056      -1.412


           -------------------------------------------------
          | TOTAL ENERGY              -27.116015582951 Eh   |
          | GRADIENT NORM               0.026854427634 Eh/α |
          | HOMO-LUMO GAP               4.952885312758 eV   |
           -------------------------------------------------

------------------------------------------------------------------------
 * finished run on 2025/04/11 at 15:53:54.040     
------------------------------------------------------------------------
 total:
 * wall-time:     0 d,  0 h,  0 min,  0.054 sec
 *  cpu-time:     0 d,  0 h,  0 min,  0.024 sec
 * ratio c/w:     0.440 speedup
 SCF:
 * wall-time:     0 d,  0 h,  0 min,  0.020 sec
 *  cpu-time:     0 d,  0 h,  0 min,  0.014 sec
 * ratio c/w:     0.707 speedup

