      -----------------------------------------------------------      
     |                   =====================                   |     
     |                           x T B                           |     
     |                   =====================                   |     
     |                         S. Grimme                         |     
     |          Mulliken Center for Theoretical Chemistry        |     
     |                    University of Bonn                     |     
      -----------------------------------------------------------      

   * xtb version 6.7.1 (edcfbbe) compiled by 'albert@albert-system' on 2024-07-22

   xtb is free software: you can redistribute it and/or modify it under
   the terms of the GNU Lesser General Public License as published by
   the Free Software Foundation, either version 3 of the License, or
   (at your option) any later version.
   
   xtb is distributed in the hope that it will be useful,
   but WITHOUT ANY WARRANTY; without even the implied warranty of
   MERCHANTABILITY or FITNESS FOR A PARTICULAR PURPOSE.  See the
   GNU Lesser General Public License for more details.
   
   Cite this work as:
   * C. Bannwarth, E. Caldeweyher, S. Ehlert, A. Hansen, P. Pracht,
     J. Seibert, S. Spicher, S. Grimme, WIREs Comput. Mol. Sci., 2020, 11,
     e01493. DOI: 10.1002/wcms.1493
   
   for GFN2-xTB:
   * C. Bannwarth, S. Ehlert and S. Grimme., J. Chem. Theory Comput., 2019,
     15, 1652-1671. DOI: 10.1021/acs.jctc.8b01176
   for GFN1-xTB:
   * S. Grimme, C. Bannwarth, P. Shushkov, J. Chem. Theory Comput., 2017,
     13, 1989-2009. DOI: 10.1021/acs.jctc.7b00118
   for GFN0-xTB:
   * P. Pracht, E. Caldeweyher, S. Ehlert, S. Grimme, ChemRxiv, 2019, preprint.
     DOI: 10.26434/chemrxiv.8326202.v1
   for GFN-FF:
   * S. Spicher and S. Grimme, Angew. Chem. Int. Ed., 2020, 59, 15665-15673.
     DOI: 10.1002/anie.202004239
   
   for ALPB and GBSA implicit solvation:
   * S. Ehlert, M. Stahn, S. Spicher, S. Grimme, J. Chem. Theory Comput.,
     2021, 17, 4250-4261. DOI: 10.1021/acs.jctc.1c00471
   
   for ddCOSMO and CPCM-X implicit solvation:
   * M. Stahn, S. Ehlert, S. Grimme, J. Phys. Chem. A,
     2023, XX, XXXX-XXXX. DOI: 10.1021/acs.jpca.3c04382
   
   for DFT-D4:
   * E. Caldeweyher, C. Bannwarth and S. Grimme, J. Chem. Phys., 2017,
     147, 034112. DOI: 10.1063/1.4993215
   * E. Caldeweyher, S. Ehlert, A. Hansen, H. Neugebauer, S. Spicher,
     C. Bannwarth and S. Grimme, J. Chem. Phys., 2019, 150, 154122.
     DOI: 10.1063/1.5090222
   * E. Caldeweyher, J.-M. Mewes, S. Ehlert and S. Grimme, Phys. Chem. Chem. Phys.
     2020, 22, 8499-8512. DOI: 10.1039/D0CP00502A
   
   for sTDA-xTB:
   * S. Grimme and C. Bannwarth, J. Chem. Phys., 2016, 145, 054103.
     DOI: 10.1063/1.4959605
   
   in the mass-spec context:
   * V. Asgeirsson, C. Bauer and S. Grimme, Chem. Sci., 2017, 8, 4879.
     DOI: 10.1039/c7sc00601b
   * J. Koopman and S. Grimme, ACS Omega 2019, 4, 12, 15120-15133.
     DOI: 10.1021/acsomega.9b02011
   
   for metadynamics refer to:
   * S. Grimme, J. Chem. Theory Comput., 2019, 155, 2847-2862
     DOI: 10.1021/acs.jctc.9b00143
   
   for SPH calculations refer to:
   * S. Spicher and S. Grimme, J. Chem. Theory Comput., 2021, 17, 1701-1714
     DOI: 10.1021/acs.jctc.0c01306
   
   for ONIOM refer to:
   * C. Plett, A. Katbashev, S. Ehlert, S. Grimme, M. Bursch,
     Phys. Chem. Chem. Phys., 2023, 25, 17860-17868. DOI: 10.1039/D3CP02178E
   
   for DIPRO refer to:
   * J. Kohn, N. Gildemeister, S. Grimme, D. Fazzi, A. Hansen,
     J. Chem. Phys., 2023, just accepted.
   
   for PTB refer to:
   * S. Grimme, M. Mueller, A. Hansen, J. Chem. Phys., 2023, 158, 124111.
     DOI: 10.1063/5.0137838
   
   with help from (in alphabetical order)
   P. Atkinson, C. Bannwarth, F. Bohle, G. Brandenburg, E. Caldeweyher
   M. Checinski, S. Dohm, S. Ehlert, S. Ehrlich, I. Gerasimov, C. Hölzer
   A. Katbashev, J. Kohn, J. Koopman, C. Lavigne, S. Lehtola, F. März, M. Müller,
   F. Musil, H. Neugebauer, J. Pisarek, C. Plett, P. Pracht, F. Pultar,
   J. Seibert, P. Shushkov, S. Spicher, M. Stahn, M. Steiner, T. Strunk,
   J. Stückrath, T. Rose, and J. Unsleber
   
 * started run on 2025/04/11 at 12:28:16.418     
   ID    Z sym.   atoms
    1    6 C      1-3
    2    7 N      4
    3    8 O      5, 6
    4    1 H      7-13

           -------------------------------------------------
          |                Calculation Setup                |
           -------------------------------------------------

          program call               : /srv/scratch/z5358697/.xtb/bin/xtb xtb_opt.coord --opt normal --orca -I xtb_opt-xcontrol-inp
          hostname                   : k061
          coordinate file            : xtb_opt.coord
          omp threads                :                     9

           -------------------------------------------------
          |                   Orca driver                   |
           -------------------------------------------------
orca executable           : /apps/z_install_tree/linux-rocky8-ivybridge/gcc-12.2.0/orca-6.0.0-srtngmq3qlimg2qxbl6avaaiffipurdx/bin/orca
orca input file           : xtb_opt.inp
orca input line           : 
orca parallel             : true
orca number of threads    : 9
                         * ORCA takes the control...
  ------------------------------------------------------------------------

                                 *****************
                                 * O   R   C   A *
                                 *****************

                                            #,                                       
                                            ###                                      
                                            ####                                     
                                            #####                                    
                                            ######                                   
                                           ########,                                 
                                     ,,################,,,,,                         
                               ,,#################################,,                 
                          ,,##########################################,,             
                       ,#########################################, ''#####,          
                    ,#############################################,,   '####,        
                  ,##################################################,,,,####,       
                ,###########''''           ''''###############################       
              ,#####''   ,,,,##########,,,,          '''####'''          '####       
            ,##' ,,,,###########################,,,                        '##       
           ' ,,###''''                  '''############,,,                           
         ,,##''                                '''############,,,,        ,,,,,,###''
      ,#''                                            '''#######################'''  
     '                                                          ''''####''''         
             ,#######,   #######,   ,#######,      ##                                
            ,#'     '#,  ##    ##  ,#'     '#,    #''#        ,####,   ,####,        
            ##       ##  ##   ,#'  ##            #'  '#       #'       #'  '#        
            ##       ##  #######   ##           ,######,      #####,   #    #        
            '#,     ,#'  ##    ##  '#,     ,#' ,#      #,     #,   #   #,  ,#        
             '#######'   ##     ##  '#######'  #'      '#     '####' # '####'        



                #########################################################
                #                        -***-                          #
                #          Department of theory and spectroscopy        #
                #                                                       #
                #                      Frank Neese                      #
                #                                                       #
                #     Directorship, Architecture, Infrastructure        #
                #                    SHARK, DRIVERS                     #
                #        Core code/Algorithms in most modules           #
                #                                                       #
                #        Max Planck Institute fuer Kohlenforschung      #
                #                Kaiser Wilhelm Platz 1                 #
                #                 D-45470 Muelheim/Ruhr                 #
                #                      Germany                          #
                #                                                       #
                #                  All rights reserved                  #
                #                        -***-                          #
                #########################################################


                         Program Version 6.0.0  -   RELEASE  -


 With contributions from (in alphabetic order):
   Daniel Aravena         : Magnetic Suceptibility
   Michael Atanasov       : Ab Initio Ligand Field Theory (pilot matlab implementation)
   Alexander A. Auer      : GIAO ZORA, VPT2 properties, NMR spectrum
   Ute Becker             : All parallelization in ORCA, NUMFREQ, NUMCALC
   Giovanni Bistoni       : ED, misc. LED, open-shell LED, HFLD
   Martin Brehm           : Molecular dynamics
   Dmytro Bykov           : pre 5.0 version of the SCF Hessian
   Marcos Casanova-Páez   : Triplet and SCS-CIS(D). UHF-(DLPNO)-IP/EA/STEOM-CCSD. UHF-CVS-IP/STEOM-CCSD
   Vijay G. Chilkuri      : MRCI spin determinant printing, contributions to CSF-ICE
   Pauline Colinet        : FMM embedding
   Dipayan Datta          : RHF DLPNO-CCSD density
   Achintya Kumar Dutta   : EOM-CC, STEOM-CC
   Nicolas Foglia         : Exact transition moments, OPA infrastructure, MCD improvements
   Dmitry Ganyushin       : Spin-Orbit,Spin-Spin,Magnetic field MRCI
   Miquel Garcia          : C-PCM and meta-GGA Hessian, CCSD/C-PCM, Gaussian charge scheme
   Tiago L. C. Gouveia    : GS-ROHF, GS-ROCIS
   Yang Guo               : DLPNO-NEVPT2, F12-NEVPT2, CIM, IAO-localization
   Andreas Hansen         : Spin unrestricted coupled pair/coupled cluster methods
   Ingolf Harden          : AUTO-CI MPn and infrastructure 
   Benjamin Helmich-Paris : MC-RPA, TRAH-(SCF,CASSCF), AVAS, COSX integrals, SCF dyn. polar.
   Lee Huntington         : MR-EOM, pCC
   Robert Izsak           : Overlap fitted RIJCOSX, COSX-SCS-MP3, EOM
   Riya Kayal             : Wick's Theorem for AUTO-CI, AUTO-CI UHF-CCSDT
   Emily Kempfer          : AUTO-CI, RHF CISDT and CCSDT
   Christian Kollmar      : KDIIS, OOCD, Brueckner-CCSD(T), CCSD density, CASPT2, CASPT2-K, improved NEVPT2
   Axel Koslowski         : Symmetry handling
   Simone Kossmann        : Meta GGA functionals, TD-DFT gradient, OOMP2, (MP2 Hessian; deprecated post 5.0)
   Lucas Lang             : DCDCAS
   Marvin Lechner         : AUTO-CI (C++ implementation), FIC-MRCC
   Spencer Leger          : CASSCF response
   Dagmar Lenk            : GEPOL surface, SMD, ORCA-2-JSON
   Dimitrios Liakos       : Extrapolation schemes; Compound Job, initial MDCI parallelization
   Dimitrios Manganas     : Further ROCIS development; embedding schemes. LFT, Crystal Embedding
   Dimitrios Pantazis     : SARC Basis sets
   Anastasios Papadopoulos: AUTO-CI, single reference methods and gradients
   Taras Petrenko         : pre 6.0 DFT Hessian and TD-DFT gradient, (ASA, deprecated), ECA, 1-Electron XAS/XES, NRVS
   Peter Pinski           : DLPNO-MP2, DLPNO-MP2 Gradient
   Christoph Reimann      : Effective Core Potentials
   Marius Retegan         : Local ZFS, SOC
   Christoph Riplinger    : Optimizer, TS searches, QM/MM, DLPNO-CCSD(T), (RO)-DLPNO pert. Triples
   Michael Roemelt        : Original ROCIS implementation
   Masaaki Saitow         : Open-shell DLPNO-CCSD energy and density
   Barbara Sandhoefer     : DKH picture change effects
   Kantharuban Sivalingam : CASSCF convergence/infrastructure, NEVPT2 and variants, FIC-MRCI
   Bernardo de Souza      : ESD, SOC TD-DFT
   Georgi Stoychev        : AutoAux, RI-MP2 NMR, DLPNO-MP2 response, X2C
   Van Anh Tran           : RI-MP2 g-tensors
   Willem Van den Heuvel  : Paramagnetic NMR
   Zikuan Wang            : NOTCH, Electric field optimization 
   Frank Wennmohs         : Technical directorship and infrastructure
   Hang Xu                : AUTO-CI-Response properties 


 We gratefully acknowledge several colleagues who have allowed us to
 interface, adapt or use parts of their codes:
   Stefan Grimme, W. Hujo, H. Kruse, P. Pracht,  : VdW corrections, initial TS optimization,
                  C. Bannwarth, S. Ehlert,         DFT functionals, gCP, sTDA/sTD-DF
                  L. Wittmann, M. Mueller
   Ed Valeev, F. Pavosevic, A. Kumar             : LibInt (2-el integral package), F12 methods
   Garnet Chan, S. Sharma, J. Yang, R. Olivares  : DMRG
   Ulf Ekstrom                                   : XCFun DFT Library
   Mihaly Kallay                                 : mrcc  (arbitrary order and MRCC methods)
   Frank Weinhold                                : gennbo (NPA and NBO analysis)
   Simon Mueller                                 : openCOSMO-RS
   Christopher J. Cramer and Donald G. Truhlar   : smd solvation model
   Lars Goerigk                                  : TD-DFT with DH, B97 family of functionals
   V. Asgeirsson, H. Jonsson                     : NEB implementation
   FAccTs GmbH                                   : IRC, NEB, NEB-TS, DLPNO-Multilevel, CI-OPT
                                                   MM, QMMM, 2- and 3-layer-ONIOM, Crystal-QMMM,
                                                   LR-CPCM, SF, NACMEs, symmetry and pop. for TD-DFT,
                                                   nearIR, NL-DFT gradient (VV10), updates on ESD,
                                                   ML-optimized integration grids, MBIS, APM,
                                                   GOAT, DOCKER, SOLVATOR, interface openCOSMO-RS
   S Lehtola, MJT Oliveira, MAL Marques          : LibXC Library
   Liviu Ungur et al                             : ANISO software


 Your calculation uses the libint2 library for the computation of 2-el integrals
 For citations please refer to: http://libint.valeyev.net

 Your ORCA version has been built with support for libXC version: 6.2.2
 For citations please refer to: https://libxc.gitlab.io

 This ORCA versions uses:
   CBLAS   interface :  Fast vector & matrix operations
   LAPACKE interface :  Fast linear algebra routines
   SCALAPACK package :  Parallel linear algebra routines
   Shared memory     :  Shared parallel matrices
   BLAS/LAPACK       :  OpenBLAS 0.3.27  USE64BITINT DYNAMIC_ARCH NO_AFFINITY SkylakeX SINGLE_THREADED
        Core in use  :  SkylakeX
   Copyright (c) 2011-2014, The OpenBLAS Project




***************************************
The coordinates will be read from file: xtb_opt.xyz
***************************************


Your calculation utilizes the geometrical counterpoise correction gCP
Please cite in your paper:
H.Kruse, S. Grimme J.Chem.Phys., 136, (2012), 154101 
   

Your calculation utilizes the atom-pairwise dispersion correction
based on EEQ partial charges (D4)


Your calculation utilizes the SMD solvation module
Please cite in your paper:
A.V. Marenich, C.J. Cramer, D.G. Truhlar J. Phys. Chem. B, 113, (2009), 6378 

================================================================================

----- Orbital basis set information -----
Your calculation utilizes the basis: def2-mTZVPP
   Stefan Grimme, Andreas Hansen, Sebastian Ehlert, and Jan-Michael Mewes 
   J. Chem. Phys. 154, 064103 (2021). DOI: 10.1063/5.0040021

----- AuxJ basis set information -----
Your calculation utilizes the auxiliary basis: def2/J
   F. Weigend, Phys. Chem. Chem. Phys. 8, 1057 (2006).

================================================================================
                                        WARNINGS
                       Please study these warnings very carefully!
================================================================================

Using LibXC functional ID 497 : Re-regularized SCAN exchange by Furness et al
[ 1]  J. W. Furness, A. D. Kaplan, J. Ning, J. P. Perdew, and J. Sun.,  J. Phys. Chem. Lett. 11, 8208-8215 (2020)
[ 2]  J. W. Furness, A. D. Kaplan, J. Ning, J. P. Perdew, and J. Sun.,  J. Phys. Chem. Lett. 11, 9248-9248 (2020)
Using LibXC functional ID 498 : Re-regularized SCAN correlation by Furness et al
[ 1]  J. W. Furness, A. D. Kaplan, J. Ning, J. P. Perdew, and J. Sun.,  J. Phys. Chem. Lett. 11, 8208-8215 (2020)
[ 2]  J. W. Furness, A. D. Kaplan, J. Ning, J. P. Perdew, and J. Sun.,  J. Phys. Chem. Lett. 11, 9248-9248 (2020)
Using LibXC functional ID 497 : Re-regularized SCAN exchange by Furness et al
[ 1]  J. W. Furness, A. D. Kaplan, J. Ning, J. P. Perdew, and J. Sun.,  J. Phys. Chem. Lett. 11, 8208-8215 (2020)
[ 2]  J. W. Furness, A. D. Kaplan, J. Ning, J. P. Perdew, and J. Sun.,  J. Phys. Chem. Lett. 11, 9248-9248 (2020)
Using LibXC functional ID 498 : Re-regularized SCAN correlation by Furness et al
[ 1]  J. W. Furness, A. D. Kaplan, J. Ning, J. P. Perdew, and J. Sun.,  J. Phys. Chem. Lett. 11, 8208-8215 (2020)
[ 2]  J. W. Furness, A. D. Kaplan, J. Ning, J. P. Perdew, and J. Sun.,  J. Phys. Chem. Lett. 11, 9248-9248 (2020)

================================================================================
                                       INPUT FILE
================================================================================
NAME = xtb_opt.inp
|  1> ! r2scan-3c def2/J RI DEFGRID2 scfconv7 ENGRAD tightSCF miniprint
|  2> %cpcm
|  3>     smd true
|  4>     smdsolvent "water"
|  5> end
|  6> * xyzfile 0 1 xtb_opt.xyz
|  7> 
|  8>                          ****END OF INPUT****
================================================================================

                     *******************************
                     * Energy+Gradient Calculation *
                     *******************************

---------------------------------
CARTESIAN COORDINATES (ANGSTROEM)
---------------------------------
  C     -2.758101    0.134798    0.003465
  C     -1.362419   -0.411877    0.280262
  C     -0.301465    0.519772   -0.285664
  N      1.055534    0.038274   -0.054015
  O      1.967636    0.722377   -0.481138
  O      1.219457   -1.003679    0.543180
  H     -2.928068    0.229799   -1.065600
  H     -3.508032   -0.536301    0.410790
  H     -2.886330    1.111218    0.462797
  H     -1.254225   -1.400465   -0.168376
  H     -1.212407   -0.523352    1.355143
  H     -0.412400    0.644105   -1.366622
  H     -0.363630    1.516366    0.160756

----------------------------
CARTESIAN COORDINATES (A.U.)
----------------------------
  NO LB      ZA    FRAG     MASS         X           Y           Z
   0 C     6.0000    0    12.011   -5.212055    0.254731    0.006549
   1 C     6.0000    0    12.011   -2.574598   -0.778335    0.529618
   2 C     6.0000    0    12.011   -0.569687    0.982227   -0.539826
   3 N     7.0000    0    14.007    1.994670    0.072327   -0.102074
   4 O     8.0000    0    15.999    3.718294    1.365095   -0.909219
   5 O     8.0000    0    15.999    2.304441   -1.896678    1.026461
   6 H     1.0000    0     1.008   -5.533247    0.434258   -2.013692
   7 H     1.0000    0     1.008   -6.629219   -1.013462    0.776280
   8 H     1.0000    0     1.008   -5.454372    2.099898    0.874560
   9 H     1.0000    0     1.008   -2.370141   -2.646496   -0.318185
  10 H     1.0000    0     1.008   -2.291117   -0.988992    2.560849
  11 H     1.0000    0     1.008   -0.779322    1.217183   -2.582542
  12 H     1.0000    0     1.008   -0.687160    2.865517    0.303785

------------------------------------------------------------------------------
                   ___                                                        
                  /   \      - P O W E R E D   B Y -                         
                 /     \                                                     
                 |  |  |   _    _      __       _____    __    __             
                 |  |  |  | |  | |    /  \     |  _  \  |  |  /  |          
                  \  \/   | |  | |   /    \    | | | |  |  | /  /          
                 / \  \   | |__| |  /  /\  \   | |_| |  |  |/  /          
                |  |  |   |  __  | /  /__\  \  |    /   |      \           
                |  |  |   | |  | | |   __   |  |    \   |  |\   \          
                \     /   | |  | | |  |  |  |  | |\  \  |  | \   \       
                 \___/    |_|  |_| |__|  |__|  |_| \__\ |__|  \__/        
                                                                              
                      - O R C A' S   B I G   F R I E N D -                    
                                      &                                       
                       - I N T E G R A L  F E E D E R -                       
                                                                              
 v1 FN, 2020, v2 2021, v3 2022-2024                                           
------------------------------------------------------------------------------


----------------------
SHARK INTEGRAL PACKAGE
----------------------

Number of atoms                             ...     13
Number of basis functions                   ...    164
Number of shells                            ...     78
Maximum angular momentum                    ...      2
Integral batch strategy                     ... SHARK/LIBINT Hybrid
RI-J (if used) integral strategy            ... SPLIT-RIJ (Revised 2003 algorithm where possible)
Printlevel                                  ...      1
Contraction scheme used                     ... SEGMENTED contraction
Prescreening option                         ... SCHWARTZ
   Thresh                                   ... 3.000e-11
   Tcut                                     ... 1.000e-12
   Tpresel                                  ... 1.000e-12 
Coulomb Range Separation                    ... NOT USED
Exchange Range Separation                   ... NOT USED
Multipole approximations                    ... NOT USED
Finite Nucleus Model                        ... NOT USED
CABS basis                                  ... NOT available
Auxiliary Coulomb fitting basis             ... AVAILABLE
   # of basis functions in Aux-J            ...    371
   # of shells in Aux-J                     ...    125
   Maximum angular momentum in Aux-J        ...      4
Auxiliary J/K fitting basis                 ... NOT available
Auxiliary Correlation fitting basis         ... NOT available
Auxiliary 'external' fitting basis          ... NOT available

Checking pre-screening integrals            ... done (  0.0 sec) Dimension = 78
Check shell pair data                       ... done (  0.0 sec)
Shell pair information
Shell pair cut-off parameter TPreSel        ...   1.0e-12
Total number of shell pairs                 ...      3081
Shell pairs after pre-screening             ...      2873
Total number of primitive shell pairs       ...     10884
Primitive shell pairs kept                  ...      7661
          la=0 lb=0:    896 shell pairs
          la=1 lb=0:   1035 shell pairs
          la=1 lb=1:    311 shell pairs
          la=2 lb=0:    371 shell pairs
          la=2 lb=1:    216 shell pairs
          la=2 lb=2:     44 shell pairs

Calculating one electron integrals          ... done (  0.0 sec)
Calculating RI/J V-Matrix + Cholesky decomp.... done (  0.2 sec)
Calculating Nuclear repulsion               ... done (  0.0 sec) ENN=    246.684277498424 Eh

Diagonalization of the overlap matrix:
Smallest eigenvalue                        ... 1.888e-04
Time for diagonalization                   ...    0.006 sec
Threshold for overlap eigenvalues          ... 1.000e-07
Number of eigenvalues below threshold      ... 0
Time for construction of square roots      ...    0.029 sec
Total time needed                          ...    0.045 sec

-------------------
DFT GRID GENERATION
-------------------

General Integration Accuracy     IntAcc      ... 4.388
Radial Grid Type                 RadialGrid  ... OptM3 with GC (2021)
Angular Grid (max. ang.)         AngularGrid ... 4 (Lebedev-302)
Angular grid pruning method      GridPruning ... 4 (adaptive)
Weight generation scheme         WeightScheme... mBecke (2022)
Basis function cutoff            BFCut       ... 1.0000e-11
Integration weight cutoff        WCut        ... 1.0000e-14
Partially contracted basis set               ... off
Rotationally invariant grid construction     ... off
Angular grids for H and He will be reduced by one unit
Diffuse basis detected: some atoms will have their outermost
                        angular grid increased by 1.

Total number of grid points                  ...    59488
Total number of batches                      ...      934
Average number of points per batch           ...       63
Average number of grid points per atom       ...     4576
Initializing property integral containers    ... done (  0.0 sec)

SHARK setup successfully completed in   1.1 seconds

Maximum memory used throughout the entire STARTUP-calculation: 27.0 MB
Occupation numbers will be reassigned to an Aufbau configuration
             **** ENERGY FILE WAS UPDATED (xtb_opt.en.tmp) ****
Finished Guess after   0.4 sec
Maximum memory used throughout the entire GUESS-calculation: 11.1 MB
--------------------
CPCM SOLVATION MODEL
--------------------
CPCM parameters:
  Epsilon                                         ...      78.3550
  Refrac                                          ...       1.3328
  Rsolv                                           ...       1.3000
  Surface type                                    ... GAUSSIAN VDW
  Discretization scheme                           ... Constant charge density
    Threshold for H atoms                         ...       5.0000 (charges/Ang^2)
    Threshold for non-H atoms                     ...       5.0000 (charges/Ang^2)
  Epsilon function type                           ...         CPCM
Solvent:                                          ... WATER
SMD-CDS solvent descriptors:
  Soln                                            ...       1.3328
  Soln25                                          ...       1.3323
  Sola                                            ...       0.0000
  Solb                                            ...       0.0000
  Solg                                            ...       0.0000
  Solc                                            ...       0.0000
  Solh                                            ...       0.0000
Radii:
  Scheme                                          ... Element-dependent radii
  Radius for C  used is    3.4960 Bohr (=   1.8500 Ang.)
  Radius for N  used is    3.5716 Bohr (=   1.8900 Ang.)
  Radius for O  used is    2.8724 Bohr (=   1.5200 Ang.)
  Radius for H  used is    2.2677 Bohr (=   1.2000 Ang.)
Calculating surface                               ...        done! (  0.0s)
Cavity surface points                             ...         1006
Cavity Volume                                     ...     613.0179
Cavity Surface-area                               ...     422.3876
Calculating surface distance matrix               ...        done! (  0.0s)
Performing Cholesky decomposition & store         ...        done! (  0.1s)
Overall time for CPCM initialization              ...                 0.1s

----------------------------------------D-I-I-S--------------------------------------------
Iteration    Energy (Eh)           Delta-E    RMSDP     MaxDP     DIISErr   Damp  Time(sec)
-------------------------------------------------------------------------------------------
               ***  Starting incremental Fock matrix formation  ***
                              *** Initializing SOSCF ***
---------------------------------------S-O-S-C-F--------------------------------------
Iteration    Energy (Eh)           Delta-E    RMSDP     MaxDP     MaxGrad    Time(sec)
--------------------------------------------------------------------------------------
    1    -323.6037373939553845     0.00e+00  2.35e-06  6.91e-05  1.75e-05     2.2
               *** Restarting incremental Fock matrix formation ***
    2    -323.6037373857055854     8.25e-09  5.06e-06  1.58e-04  3.63e-05     1.9
    3    -323.6037372306907400     1.55e-07  4.04e-06  1.17e-04  1.34e-04     1.6
    4    -323.6037374053062194    -1.75e-07  1.50e-06  3.30e-05  1.04e-05     1.9
                  *** Gradient check signals convergence ***

               *****************************************************
               *                     SUCCESS                       *
               *           SCF CONVERGED AFTER   4 CYCLES          *
               *****************************************************


SMD CDS free energy correction energy :                 4.92080     Kcal/mol
Total Energy after SMD CDS correction =              -323.595895619 Eh
             **** ENERGY FILE WAS UPDATED (xtb_opt.en.tmp) ****

----------------
TOTAL SCF ENERGY
----------------

Total Energy       :       -323.59589561909337 Eh           -8805.49198 eV

Components:
Nuclear Repulsion  :        246.68427749842442 Eh            6712.62045 eV
Electronic Energy  :       -570.27063128408622 Eh          -15517.85279 eV
One Electron Energy:       -928.36866842783718 Eh          -25262.19577 eV
Two Electron Energy:        358.09803714375096 Eh            9744.34298 eV
CPCM Dielectric    :         -0.01738361964444 Eh              -0.47303 eV
SMD CDS (Gcds)     :          0.00784178621287 Eh               0.21339 eV

Virial components:
Potential Energy   :       -646.03543530611000 Eh          -17579.51792 eV
Kinetic Energy     :        322.43953968701658 Eh            8774.02594 eV
Virial Ratio       :          2.00358627212159

DFT components:
N(Alpha)           :       23.999963915240 electrons
N(Beta)            :       23.999963915240 electrons
N(Total)           :       47.999927830480 electrons
E(X)               :      -41.270148562337 Eh       
E(C)               :       -1.561895022708 Eh       
E(XC)              :      -42.832043585044 Eh       

CPCM Solvation Model Properties:
Surface-charge          :         -0.03871114770031
Corrected charge        :         -0.00000000000000
Outlying charge corr.   :          0.00013170486752 Eh               0.00358 eV
Free-energy (cav+disp)  :          0.00784178621287 Eh               0.21339 eV

---------------
SCF CONVERGENCE
---------------

  Last Energy change         ...    1.7462e-07  Tolerance :   1.0000e-07
  Last MAX-Density change    ...    3.3037e-05  Tolerance :   1.0000e-07
  Last RMS-Density change    ...    1.4960e-06  Tolerance :   5.0000e-09
  Last DIIS Error            ...    7.8854e-05  Tolerance :   1.0000e-07
  Last Orbital Gradient      ...    1.0380e-05  Tolerance :   1.0000e-04
  Last Orbital Rotation      ...    2.9007e-05  Tolerance :   1.0000e-04


----------------
ORBITAL ENERGIES
----------------

  NO   OCC          E(Eh)            E(eV) 
   0   2.0000     -18.997761      -516.9554 
   1   2.0000     -18.992890      -516.8228 
   2   2.0000     -14.399386      -391.8272 
   3   2.0000     -10.080334      -274.2998 
   4   2.0000     -10.033087      -273.0142 
   5   2.0000     -10.015718      -272.5415 
   6   2.0000      -1.215559       -33.0770 
   7   2.0000      -1.037732       -28.2381 
   8   2.0000      -0.804476       -21.8909 
   9   2.0000      -0.715756       -19.4767 
  10   2.0000      -0.602023       -16.3819 
  11   2.0000      -0.557240       -15.1633 
  12   2.0000      -0.529380       -14.4052 
  13   2.0000      -0.514188       -13.9918 
  14   2.0000      -0.497007       -13.5243 
  15   2.0000      -0.429810       -11.6957 
  16   2.0000      -0.390746       -10.6327 
  17   2.0000      -0.361589        -9.8393 
  18   2.0000      -0.348120        -9.4728 
  19   2.0000      -0.320486        -8.7209 
  20   2.0000      -0.313090        -8.5196 
  21   2.0000      -0.297549        -8.0967 
  22   2.0000      -0.287447        -7.8218 
  23   2.0000      -0.268669        -7.3109 
  24   0.0000      -0.108715        -2.9583 
  25   0.0000       0.087568         2.3828 
  26   0.0000       0.096550         2.6273 
  27   0.0000       0.140677         3.8280 
  28   0.0000       0.144147         3.9224 
  29   0.0000       0.153170         4.1680 
  30   0.0000       0.153960         4.1895 
  31   0.0000       0.181083         4.9275 
  32   0.0000       0.195795         5.3279 
  33   0.0000       0.199360         5.4249 
  34   0.0000       0.219497         5.9728 
*Only the first 10 virtual orbitals were printed.
Total SCF time: 0 days 0 hours 0 min 8 sec 
Finished LeanSCF after   8.4 sec

Maximum memory used throughout the entire LEANSCF-calculation: 17.0 MB


-------------------------------------------------------------------------------
                          DFT DISPERSION CORRECTION                            
                                                                               
                                DFTD4 V3.4.0                                   
-------------------------------------------------------------------------------
-------------------------   ----------------
Dispersion correction           -0.002798118
-------------------------   ----------------

------------------   -----------------
gCP correction             0.012541447
------------------   -----------------

-------------------------   --------------------
FINAL SINGLE POINT ENERGY      -323.586152290053
-------------------------   --------------------

------------------------------------------------------------------------------
                         ORCA SCF GRADIENT CALCULATION
------------------------------------------------------------------------------

Nuc. rep. gradient        (SHARK) ... done (  0.0 sec)
HCore & Overlap gradient  (SHARK) ... done (  0.1 sec)
Split-RIJ-J gradient      (SHARK) ... done (  0.8 sec)
XC gradient                       ... done (  3.2 sec)
CPCM gradient                     ... done (  0.6 sec)
SMD gradient                      ... done (  0.0 sec)
Dispersion correction             ... done (  0.0 sec)

-------------------
DISPERSION GRADIENT
-------------------

   1   C   :   -0.000064672    0.000004066   -0.000000484
   2   C   :   -0.000026252   -0.000012110    0.000007816
   3   C   :    0.000007598    0.000013258   -0.000007743
   4   N   :    0.000054278    0.000000812   -0.000002106
   5   O   :    0.000059162    0.000019600   -0.000013223
   6   O   :    0.000049313   -0.000027447    0.000014350
   7   H   :   -0.000027762    0.000000473   -0.000006732
   8   H   :   -0.000026891   -0.000004358    0.000003265
   9   H   :   -0.000027410    0.000006729    0.000004133
  10   H   :   -0.000009324   -0.000013535    0.000000250
  11   H   :   -0.000009028   -0.000006751    0.000012052
  12   H   :    0.000010278    0.000005835   -0.000012433
  13   H   :    0.000010709    0.000013427    0.000000856

Difference to translation invariance:
           :    0.0000000000   -0.0000000000   -0.0000000000

Difference to rotation invariance:
           :    0.0000000000   -0.0000000000    0.0000000000

Norm of the Dispersion gradient    ...    0.0001389466
RMS gradient                       ...    0.0000222493
MAX gradient                       ...    0.0000646716
gCP correction                   ... done

------------------
CARTESIAN GRADIENT
------------------

   1   C   :   -0.005907128    0.001224528   -0.000557295
   2   C   :   -0.000637189   -0.002145719    0.001206318
   3   C   :    0.028790211   -0.001873643    0.000328096
   4   N   :   -0.006630726   -0.000853404    0.000623093
   5   O   :   -0.014051437   -0.010961783    0.006806255
   6   O   :   -0.003840338    0.016976768   -0.009749510
   7   H   :    0.001853850   -0.001040155    0.005071534
   8   H   :    0.003839988    0.002619827   -0.001637313
   9   H   :    0.001721425   -0.004944817   -0.001736546
  10   H   :   -0.000400827    0.001923116    0.001081064
  11   H   :   -0.000512590    0.000032721   -0.002161115
  12   H   :   -0.002072649    0.000007284    0.001221950
  13   H   :   -0.002152591   -0.000964721   -0.000496532

Difference to translation invariance:
           :    0.0000000000   -0.0000000000   -0.0000000000

Difference to rotation invariance:
           :    0.0002987170    0.0001226649   -0.0000442011

Norm of the Cartesian gradient     ...    0.0422990368
RMS gradient                       ...    0.0067732667
MAX gradient                       ...    0.0287902111

-------
TIMINGS
-------

Total SCF gradient time     ....        5.220 sec

Densities                   ....       0.000 sec  (  0.0%)
One electron gradient       ....       0.129 sec  (  2.5%)
RI-J Coulomb gradient       ....       0.824 sec  ( 15.8%)
XC gradient                 ....       3.164 sec  ( 60.6%)
CPCM gradient               ....       0.635 sec  ( 12.2%)
   A-Matrix (El+Nuc)        ....       0.035 sec  (  0.7%)
   Potential                ....       0.601 sec  ( 11.5%)
SMD gradient                ....       0.020 sec  (  0.4%)

Maximum memory used throughout the entire SCFGRAD-calculation: 31.2 MB

------------------------------------------------------------------------------
                              ORCA PROPERTY CALCULATIONS
------------------------------------------------------------------------------

GBWName                                 ... xtb_opt.gbw
Number of atoms                         ...     13
Number of basis functions               ...    164
Max core memory                         ...   1024 MB

Electric properties:
Dipole moment                           ... YES
Quadrupole moment                       ...  NO
Static polarizability (Dipole/Dipole)   ...  NO
Static polarizability (Dipole/Quad.)    ...  NO
Static polarizability (Quad./Quad.)     ...  NO
Static polarizability (Velocity)        ...  NO

Atomic electric properties:
Dipole moment                           ...  NO
Quadrupole moment                       ...  NO
Static polarizability                   ...  NO

Choice of electric origin               ... Center of mass
Position of electric origin             ...    -0.000061     0.000005    -0.000001

General magnetic properties:
Magnetizability                         ...  NO

EPR properties:
g-Tensor (aka g-matrix)                 ...  NO
Zero-Field splitting spin-orbit         ...  NO
Zero-field splitting spin-spin          ...  NO
Hyperfine couplings                     ...  NO (   0 nuclei)
Quadrupole couplings                    ...  NO (   0 nuclei)
Contact density                         ...  NO (   0 nuclei)

NMR properties:
Chemical shifts                         ...  NO (   0 nuclei)
Spin-rotation constants                 ...  NO (   0 nuclei)
Spin-spin couplings                     ...  NO (   0 nuclei,    0 pairs)

Choice of magnetic origin               ... GIAO
Position of magnetic origin             ...     0.000000     0.000000     0.000000

Properties with geometric perturbations:
SCF Hessian                             ...  NO
IR spectrum                             ...  NO
VCD spectrum                            ...  NO
X-ray spectroscopy properties:
SCF XES/XAS/RIXS spectra                ...  NO


-------------
DIPOLE MOMENT
-------------

Method             : SCF
Type of density    : Electron Density
Multiplicity       :   1
Irrep              :   0
Energy             :  -323.5958956190933691 Eh
Relativity type    : 
Basis              : AO
                                X                 Y                 Z
Electronic contribution:      9.868184273      -0.463878776      -0.033293696
Nuclear contribution   :    -11.735110048       0.973021434      -0.197436288
                        -----------------------------------------
Total Dipole Moment    :     -1.866925776       0.509142658      -0.230729984
                        -----------------------------------------
Magnitude (a.u.)       :      1.948813594
Magnitude (Debye)      :      4.953490495



--------------------
Rotational spectrum 
--------------------
 
Rotational constants in cm-1:             0.325543             0.066346             0.056857 
Rotational constants in MHz :          9759.540796          1988.988697          1704.522910 

Dipole components along the rotational axes: 
x,y,z [a.u.] :    -1.844245     0.629764     0.005716 
x,y,z [Debye]:    -4.687698     1.600732     0.014529 

 

Dipole moment calculation done in   0.0 sec 

Maximum memory used throughout the entire PROP-calculation: 9.4 MB

--------------------------------
SUGGESTED CITATIONS FOR THIS RUN
--------------------------------

Below you find a list of papers that are relevant to this ORCA run
We neither can nor want to force you to cite these papers, but we appreciate if you do
You receive ORCA, which is the product of decades of hard work by many enthusiastic individuals, for free
The only thing we kindly ask in return is that you cite our papers,
We deeply appreciate it, if you show your appreciation for ORCA by not just citing the generic ORCA reference.

Please note that relegating all ORCA citations to the supporting information does *not* help us.
SI sections are not indexed - citations you put there will not count into any citation statistics
But we need these citations in order to attract the funding resources that allow us to do what we are doing

Therefore, if you are a happy ORCA user, please consider citing a few of the papers listed below in the main body of your paper

In addition to the list printed below, the program has created the file xtb_opt.bibtex that contains the list in bibtex format
You can import this file easily into all common literature databanks and citation aid programs


List of essential papers. We consider these as the minimum necessary citations

  1. Neese,F.
     Software update: the ORCA program system, version 5.0
     WIRES Comput. Molec. Sci., 2022 12(1)e1606
     doi.org/10.1002/wcms.1606
  2. Grimme,S.; Hansen,A.; Ehlert,S.; Mewes,J.
     r2SCAN-3c: A 'Swiss army knife' composite electronic-structure method
     J. Chem. Phys., 2021 154 064103
     doi.org/10.1063/5.0040021

List of papers to cite with high priority. The work reported in these papers was absolutely
necessary for this run to complete.
Our perspective: the developers of density functionals and basis sets usually get cited in chemistry papers
Good! But without the algorithms to do something with them, the functionals or basis sets would not do anything.
Hence, in our opinion, the algorithm design and method developments papers are equally worthy of getting cited

  1. Neese,F.
     An improvement of the resolution of the identity approximation for the formation of the Coulomb matrix
     J. Comp. Chem., 2003 24(14)1740-1747
     doi.org/10.1002/jcc.10318
  2. Garcia-Rates,M.; Neese,F.
     Effect of the Solute Cavity on the Solvation Energy and its Derivatives within the Framework of the Gaussian Charge Scheme
     J. Comput. Chem., 2020 41 922-939
     doi.org/10.1002/jcc.26139
  3. Neese,F.
     The SHARK Integral Generation and Digestion System
     J. Comp. Chem., 2022  1-16
     doi.org/10.1002/jcc.26942
  4. Lehtola,S.; Steigemann,C.; Oliveira,M.; Marques,M.
     Recent developments in Libxc - A comprehensive library of functionals for density functional theory
     Software X, 2018 7 
     doi.org/10.1016/j.softx.2017.11.002
  5. Caldeweyher,E.; Bannwarth,C.; Grimme,S.
     Extension of the D3 dispersion coefficient model
     J. Chem. Phys., 2017 147 034112-XXXX
     doi.org/10.1063/1.4993215
  6. Caldeweyher,E.; Ehlert,S.; Hansen,A.; Neugebauer,H.; Spicher,S.; Bannwarth,C.; Grimme,S.
     A generally applicable atomic-charge dependent London dispersion correction
     J. Chem. Phys., 2019 150 154122-XXXX
     doi.org/10.1063/1.5090222
  7. Caldeweyher,E.; Mewes,J.; Ehlert,S.; Grimme,S.
     Extension and evaluation of the D4 London-dispersion model for periodic systems
     Phys. Chem. Chem. Phys., 2020 22(16)8499-8512
     doi.org/10.1039/D0CP00502A

List of suggested additional citations. These are papers that are important in the 'surrounding' of 
of this run, or papers that preceded the highly important papers. If you like your results we are grateful for a citation.

  1. Neese,F.
     The ORCA program system
     WIRES Comput. Molec. Sci., 2012 2(1)73-78
     doi.org/10.1002/wcms.81
  2. Neese,F.
     Software update: the ORCA program system, version 4.0
     WIRES Comput. Molec. Sci., 2018 8(1)1-6
     doi.org/10.1002/wcms.1327
  3. Neese,F.; Wennmohs,F.; Becker,U.; Riplinger,C.
     The ORCA quantum chemistry program package
     J. Chem. Phys., 2020 152 Art. No. L224108
     doi.org/10.1063/5.0004608

List of optional additional citations

  1. Neese,F.
     Approximate second-order SCF convergence for spin unrestricted wavefunctions
     Chem. Phys. Lett., 2000 325(1-3)93-98
     doi.org/10.1016/s0009-2614(00)00662-x

Timings for individual modules:

Sum of individual times          ...       15.447 sec (=   0.257 min)
Startup calculation              ...        1.179 sec (=   0.020 min)   7.6 %
SCF iterations                   ...        8.835 sec (=   0.147 min)  57.2 %
Property calculations            ...        0.111 sec (=   0.002 min)   0.7 %
SCF Gradient evaluation          ...        5.321 sec (=   0.089 min)  34.4 %
                             ****ORCA TERMINATED NORMALLY****
TOTAL RUN TIME: 0 days 0 hours 0 minutes 16 seconds 431 msec
  ------------------------------------------------------------------------
          * successful ORCA run, taking over control again...

         :::::::::::::::::::::::::::::::::::::::::::::::::::::
         ::                  ORCA SUMMARY                   ::
         :::::::::::::::::::::::::::::::::::::::::::::::::::::
         :: total energy            -323.586152290053 Eh    ::
         :: gradient norm              0.042299036806 Eh/a0 ::
         :: HOMO-LUMO gap              0.000000000000 eV    ::
         :::::::::::::::::::::::::::::::::::::::::::::::::::::

      ----------------------------------------------------------- 
     |                       L-ANC optimizer                     |
      ----------------------------------------------------------- 
          low memory version by Sebastian Ehlert

          ...................................................
          :                      SETUP                      :
          :.................................................:
          :   energy convergence        0.5000000E-05 Eh    :
          :   grad. convergence         0.1000000E-02 Eh/a0 :
          :   optimization log               true           :
          :   writing optlog all                1     steps :
          :   Hessian reset                     8     steps :
          :   maximium step len.        1.0000000     a0    :
          :   LBFGS images                      8           :
          ...................................................
 * calculating model hessian...
Using Lindh-Hessian (1995)
 Shifting diagonal of input Hessian by   1.000000000000000E-002
 Lowest  eigenvalues of input Hessian
    0.000000    0.000000    0.000000    0.000000    0.000000    0.000000
    0.015453    0.018945    0.019929    0.030043    0.031902    0.054175
    0.057637    0.064688    0.068354    0.071023    0.086709    0.089203
 Highest eigenvalues
    1.131968    1.202774    1.246380    1.310621    2.075638    2.563584
 

........................................................................
.............................. CYCLE    1 ..............................
........................................................................
                         * ORCA takes the control...
  ------------------------------------------------------------------------

                                 *****************
                                 * O   R   C   A *
                                 *****************

                                            #,                                       
                                            ###                                      
                                            ####                                     
                                            #####                                    
                                            ######                                   
                                           ########,                                 
                                     ,,################,,,,,                         
                               ,,#################################,,                 
                          ,,##########################################,,             
                       ,#########################################, ''#####,          
                    ,#############################################,,   '####,        
                  ,##################################################,,,,####,       
                ,###########''''           ''''###############################       
              ,#####''   ,,,,##########,,,,          '''####'''          '####       
            ,##' ,,,,###########################,,,                        '##       
           ' ,,###''''                  '''############,,,                           
         ,,##''                                '''############,,,,        ,,,,,,###''
      ,#''                                            '''#######################'''  
     '                                                          ''''####''''         
             ,#######,   #######,   ,#######,      ##                                
            ,#'     '#,  ##    ##  ,#'     '#,    #''#        ,####,   ,####,        
            ##       ##  ##   ,#'  ##            #'  '#       #'       #'  '#        
            ##       ##  #######   ##           ,######,      #####,   #    #        
            '#,     ,#'  ##    ##  '#,     ,#' ,#      #,     #,   #   #,  ,#        
             '#######'   ##     ##  '#######'  #'      '#     '####' # '####'        



                #########################################################
                #                        -***-                          #
                #          Department of theory and spectroscopy        #
                #                                                       #
                #                      Frank Neese                      #
                #                                                       #
                #     Directorship, Architecture, Infrastructure        #
                #                    SHARK, DRIVERS                     #
                #        Core code/Algorithms in most modules           #
                #                                                       #
                #        Max Planck Institute fuer Kohlenforschung      #
                #                Kaiser Wilhelm Platz 1                 #
                #                 D-45470 Muelheim/Ruhr                 #
                #                      Germany                          #
                #                                                       #
                #                  All rights reserved                  #
                #                        -***-                          #
                #########################################################


                         Program Version 6.0.0  -   RELEASE  -


 With contributions from (in alphabetic order):
   Daniel Aravena         : Magnetic Suceptibility
   Michael Atanasov       : Ab Initio Ligand Field Theory (pilot matlab implementation)
   Alexander A. Auer      : GIAO ZORA, VPT2 properties, NMR spectrum
   Ute Becker             : All parallelization in ORCA, NUMFREQ, NUMCALC
   Giovanni Bistoni       : ED, misc. LED, open-shell LED, HFLD
   Martin Brehm           : Molecular dynamics
   Dmytro Bykov           : pre 5.0 version of the SCF Hessian
   Marcos Casanova-Páez   : Triplet and SCS-CIS(D). UHF-(DLPNO)-IP/EA/STEOM-CCSD. UHF-CVS-IP/STEOM-CCSD
   Vijay G. Chilkuri      : MRCI spin determinant printing, contributions to CSF-ICE
   Pauline Colinet        : FMM embedding
   Dipayan Datta          : RHF DLPNO-CCSD density
   Achintya Kumar Dutta   : EOM-CC, STEOM-CC
   Nicolas Foglia         : Exact transition moments, OPA infrastructure, MCD improvements
   Dmitry Ganyushin       : Spin-Orbit,Spin-Spin,Magnetic field MRCI
   Miquel Garcia          : C-PCM and meta-GGA Hessian, CCSD/C-PCM, Gaussian charge scheme
   Tiago L. C. Gouveia    : GS-ROHF, GS-ROCIS
   Yang Guo               : DLPNO-NEVPT2, F12-NEVPT2, CIM, IAO-localization
   Andreas Hansen         : Spin unrestricted coupled pair/coupled cluster methods
   Ingolf Harden          : AUTO-CI MPn and infrastructure 
   Benjamin Helmich-Paris : MC-RPA, TRAH-(SCF,CASSCF), AVAS, COSX integrals, SCF dyn. polar.
   Lee Huntington         : MR-EOM, pCC
   Robert Izsak           : Overlap fitted RIJCOSX, COSX-SCS-MP3, EOM
   Riya Kayal             : Wick's Theorem for AUTO-CI, AUTO-CI UHF-CCSDT
   Emily Kempfer          : AUTO-CI, RHF CISDT and CCSDT
   Christian Kollmar      : KDIIS, OOCD, Brueckner-CCSD(T), CCSD density, CASPT2, CASPT2-K, improved NEVPT2
   Axel Koslowski         : Symmetry handling
   Simone Kossmann        : Meta GGA functionals, TD-DFT gradient, OOMP2, (MP2 Hessian; deprecated post 5.0)
   Lucas Lang             : DCDCAS
   Marvin Lechner         : AUTO-CI (C++ implementation), FIC-MRCC
   Spencer Leger          : CASSCF response
   Dagmar Lenk            : GEPOL surface, SMD, ORCA-2-JSON
   Dimitrios Liakos       : Extrapolation schemes; Compound Job, initial MDCI parallelization
   Dimitrios Manganas     : Further ROCIS development; embedding schemes. LFT, Crystal Embedding
   Dimitrios Pantazis     : SARC Basis sets
   Anastasios Papadopoulos: AUTO-CI, single reference methods and gradients
   Taras Petrenko         : pre 6.0 DFT Hessian and TD-DFT gradient, (ASA, deprecated), ECA, 1-Electron XAS/XES, NRVS
   Peter Pinski           : DLPNO-MP2, DLPNO-MP2 Gradient
   Christoph Reimann      : Effective Core Potentials
   Marius Retegan         : Local ZFS, SOC
   Christoph Riplinger    : Optimizer, TS searches, QM/MM, DLPNO-CCSD(T), (RO)-DLPNO pert. Triples
   Michael Roemelt        : Original ROCIS implementation
   Masaaki Saitow         : Open-shell DLPNO-CCSD energy and density
   Barbara Sandhoefer     : DKH picture change effects
   Kantharuban Sivalingam : CASSCF convergence/infrastructure, NEVPT2 and variants, FIC-MRCI
   Bernardo de Souza      : ESD, SOC TD-DFT
   Georgi Stoychev        : AutoAux, RI-MP2 NMR, DLPNO-MP2 response, X2C
   Van Anh Tran           : RI-MP2 g-tensors
   Willem Van den Heuvel  : Paramagnetic NMR
   Zikuan Wang            : NOTCH, Electric field optimization 
   Frank Wennmohs         : Technical directorship and infrastructure
   Hang Xu                : AUTO-CI-Response properties 


 We gratefully acknowledge several colleagues who have allowed us to
 interface, adapt or use parts of their codes:
   Stefan Grimme, W. Hujo, H. Kruse, P. Pracht,  : VdW corrections, initial TS optimization,
                  C. Bannwarth, S. Ehlert,         DFT functionals, gCP, sTDA/sTD-DF
                  L. Wittmann, M. Mueller
   Ed Valeev, F. Pavosevic, A. Kumar             : LibInt (2-el integral package), F12 methods
   Garnet Chan, S. Sharma, J. Yang, R. Olivares  : DMRG
   Ulf Ekstrom                                   : XCFun DFT Library
   Mihaly Kallay                                 : mrcc  (arbitrary order and MRCC methods)
   Frank Weinhold                                : gennbo (NPA and NBO analysis)
   Simon Mueller                                 : openCOSMO-RS
   Christopher J. Cramer and Donald G. Truhlar   : smd solvation model
   Lars Goerigk                                  : TD-DFT with DH, B97 family of functionals
   V. Asgeirsson, H. Jonsson                     : NEB implementation
   FAccTs GmbH                                   : IRC, NEB, NEB-TS, DLPNO-Multilevel, CI-OPT
                                                   MM, QMMM, 2- and 3-layer-ONIOM, Crystal-QMMM,
                                                   LR-CPCM, SF, NACMEs, symmetry and pop. for TD-DFT,
                                                   nearIR, NL-DFT gradient (VV10), updates on ESD,
                                                   ML-optimized integration grids, MBIS, APM,
                                                   GOAT, DOCKER, SOLVATOR, interface openCOSMO-RS
   S Lehtola, MJT Oliveira, MAL Marques          : LibXC Library
   Liviu Ungur et al                             : ANISO software


 Your calculation uses the libint2 library for the computation of 2-el integrals
 For citations please refer to: http://libint.valeyev.net

 Your ORCA version has been built with support for libXC version: 6.2.2
 For citations please refer to: https://libxc.gitlab.io

 This ORCA versions uses:
   CBLAS   interface :  Fast vector & matrix operations
   LAPACKE interface :  Fast linear algebra routines
   SCALAPACK package :  Parallel linear algebra routines
   Shared memory     :  Shared parallel matrices
   BLAS/LAPACK       :  OpenBLAS 0.3.27  USE64BITINT DYNAMIC_ARCH NO_AFFINITY SkylakeX SINGLE_THREADED
        Core in use  :  SkylakeX
   Copyright (c) 2011-2014, The OpenBLAS Project




***************************************
The coordinates will be read from file: xtb_opt.xyz
***************************************


Your calculation utilizes the geometrical counterpoise correction gCP
Please cite in your paper:
H.Kruse, S. Grimme J.Chem.Phys., 136, (2012), 154101 
   

Your calculation utilizes the atom-pairwise dispersion correction
based on EEQ partial charges (D4)


Your calculation utilizes the SMD solvation module
Please cite in your paper:
A.V. Marenich, C.J. Cramer, D.G. Truhlar J. Phys. Chem. B, 113, (2009), 6378 

================================================================================

----- Orbital basis set information -----
Your calculation utilizes the basis: def2-mTZVPP
   Stefan Grimme, Andreas Hansen, Sebastian Ehlert, and Jan-Michael Mewes 
   J. Chem. Phys. 154, 064103 (2021). DOI: 10.1063/5.0040021

----- AuxJ basis set information -----
Your calculation utilizes the auxiliary basis: def2/J
   F. Weigend, Phys. Chem. Chem. Phys. 8, 1057 (2006).

================================================================================
                                        WARNINGS
                       Please study these warnings very carefully!
================================================================================

WARNING: Old DensityContainer found on disk!
         Will remove this file - 
         If you want to keep old densities, please start your calculation with a different basename. 

Using LibXC functional ID 497 : Re-regularized SCAN exchange by Furness et al
[ 1]  J. W. Furness, A. D. Kaplan, J. Ning, J. P. Perdew, and J. Sun.,  J. Phys. Chem. Lett. 11, 8208-8215 (2020)
[ 2]  J. W. Furness, A. D. Kaplan, J. Ning, J. P. Perdew, and J. Sun.,  J. Phys. Chem. Lett. 11, 9248-9248 (2020)
Using LibXC functional ID 498 : Re-regularized SCAN correlation by Furness et al
[ 1]  J. W. Furness, A. D. Kaplan, J. Ning, J. P. Perdew, and J. Sun.,  J. Phys. Chem. Lett. 11, 8208-8215 (2020)
[ 2]  J. W. Furness, A. D. Kaplan, J. Ning, J. P. Perdew, and J. Sun.,  J. Phys. Chem. Lett. 11, 9248-9248 (2020)
Using LibXC functional ID 497 : Re-regularized SCAN exchange by Furness et al
[ 1]  J. W. Furness, A. D. Kaplan, J. Ning, J. P. Perdew, and J. Sun.,  J. Phys. Chem. Lett. 11, 8208-8215 (2020)
[ 2]  J. W. Furness, A. D. Kaplan, J. Ning, J. P. Perdew, and J. Sun.,  J. Phys. Chem. Lett. 11, 9248-9248 (2020)
Using LibXC functional ID 498 : Re-regularized SCAN correlation by Furness et al
[ 1]  J. W. Furness, A. D. Kaplan, J. Ning, J. P. Perdew, and J. Sun.,  J. Phys. Chem. Lett. 11, 8208-8215 (2020)
[ 2]  J. W. Furness, A. D. Kaplan, J. Ning, J. P. Perdew, and J. Sun.,  J. Phys. Chem. Lett. 11, 9248-9248 (2020)

================================================================================
                                       INPUT FILE
================================================================================
NAME = xtb_opt.inp
|  1> ! r2scan-3c def2/J RI DEFGRID2 scfconv7 ENGRAD tightSCF miniprint
|  2> %cpcm
|  3>     smd true
|  4>     smdsolvent "water"
|  5> end
|  6> * xyzfile 0 1 xtb_opt.xyz
|  7> 
|  8>                          ****END OF INPUT****
================================================================================

                     *******************************
                     * Energy+Gradient Calculation *
                     *******************************

---------------------------------
CARTESIAN COORDINATES (ANGSTROEM)
---------------------------------
  C     -2.763439    0.139605    0.001214
  C     -1.371784   -0.418615    0.284074
  C     -0.312703    0.509355   -0.280135
  N      1.074190    0.039732   -0.055055
  O      1.979967    0.742578   -0.492465
  O      1.259355   -1.008410    0.545824
  H     -2.937166    0.238195   -1.073393
  H     -3.522992   -0.530537    0.408043
  H     -2.895282    1.122275    0.461295
  H     -1.262021   -1.408450   -0.167621
  H     -1.219454   -0.528377    1.361362
  H     -0.410833    0.635129   -1.363547
  H     -0.362285    1.508556    0.165383

----------------------------
CARTESIAN COORDINATES (A.U.)
----------------------------
  NO LB      ZA    FRAG     MASS         X           Y           Z
   0 C     6.0000    0    12.011   -5.222143    0.263815    0.002294
   1 C     6.0000    0    12.011   -2.592297   -0.791068    0.536822
   2 C     6.0000    0    12.011   -0.590922    0.962542   -0.529379
   3 N     7.0000    0    14.007    2.029925    0.075082   -0.104039
   4 O     8.0000    0    15.999    3.741595    1.403270   -0.930625
   5 O     8.0000    0    15.999    2.379836   -1.905618    1.031458
   6 H     1.0000    0     1.008   -5.550440    0.450124   -2.028420
   7 H     1.0000    0     1.008   -6.657490   -1.002570    0.771089
   8 H     1.0000    0     1.008   -5.471291    2.120792    0.871721
   9 H     1.0000    0     1.008   -2.384874   -2.661584   -0.316758
  10 H     1.0000    0     1.008   -2.304433   -0.998489    2.572601
  11 H     1.0000    0     1.008   -0.776361    1.200220   -2.576730
  12 H     1.0000    0     1.008   -0.684620    2.850758    0.312528

------------------------------------------------------------------------------
                   ___                                                        
                  /   \      - P O W E R E D   B Y -                         
                 /     \                                                     
                 |  |  |   _    _      __       _____    __    __             
                 |  |  |  | |  | |    /  \     |  _  \  |  |  /  |          
                  \  \/   | |  | |   /    \    | | | |  |  | /  /          
                 / \  \   | |__| |  /  /\  \   | |_| |  |  |/  /          
                |  |  |   |  __  | /  /__\  \  |    /   |      \           
                |  |  |   | |  | | |   __   |  |    \   |  |\   \          
                \     /   | |  | | |  |  |  |  | |\  \  |  | \   \       
                 \___/    |_|  |_| |__|  |__|  |_| \__\ |__|  \__/        
                                                                              
                      - O R C A' S   B I G   F R I E N D -                    
                                      &                                       
                       - I N T E G R A L  F E E D E R -                       
                                                                              
 v1 FN, 2020, v2 2021, v3 2022-2024                                           
------------------------------------------------------------------------------


----------------------
SHARK INTEGRAL PACKAGE
----------------------

Number of atoms                             ...     13
Number of basis functions                   ...    164
Number of shells                            ...     78
Maximum angular momentum                    ...      2
Integral batch strategy                     ... SHARK/LIBINT Hybrid
RI-J (if used) integral strategy            ... SPLIT-RIJ (Revised 2003 algorithm where possible)
Printlevel                                  ...      1
Contraction scheme used                     ... SEGMENTED contraction
Prescreening option                         ... SCHWARTZ
   Thresh                                   ... 3.000e-11
   Tcut                                     ... 1.000e-12
   Tpresel                                  ... 1.000e-12 
Coulomb Range Separation                    ... NOT USED
Exchange Range Separation                   ... NOT USED
Multipole approximations                    ... NOT USED
Finite Nucleus Model                        ... NOT USED
CABS basis                                  ... NOT available
Auxiliary Coulomb fitting basis             ... AVAILABLE
   # of basis functions in Aux-J            ...    371
   # of shells in Aux-J                     ...    125
   Maximum angular momentum in Aux-J        ...      4
Auxiliary J/K fitting basis                 ... NOT available
Auxiliary Correlation fitting basis         ... NOT available
Auxiliary 'external' fitting basis          ... NOT available

Checking pre-screening integrals            ... done (  0.0 sec) Dimension = 78
Check shell pair data                       ... done (  0.0 sec)
Shell pair information
Shell pair cut-off parameter TPreSel        ...   1.0e-12
Total number of shell pairs                 ...      3081
Shell pairs after pre-screening             ...      2872
Total number of primitive shell pairs       ...     10884
Primitive shell pairs kept                  ...      7652
          la=0 lb=0:    896 shell pairs
          la=1 lb=0:   1035 shell pairs
          la=1 lb=1:    311 shell pairs
          la=2 lb=0:    371 shell pairs
          la=2 lb=1:    215 shell pairs
          la=2 lb=2:     44 shell pairs

Calculating one electron integrals          ... done (  0.0 sec)
Calculating RI/J V-Matrix + Cholesky decomp.... done (  0.2 sec)
Calculating Nuclear repulsion               ... done (  0.0 sec) ENN=    244.935589938373 Eh

Diagonalization of the overlap matrix:
Smallest eigenvalue                        ... 1.967e-04
Time for diagonalization                   ...    0.005 sec
Threshold for overlap eigenvalues          ... 1.000e-07
Number of eigenvalues below threshold      ... 0
Time for construction of square roots      ...    0.015 sec
Total time needed                          ...    0.030 sec

-------------------
DFT GRID GENERATION
-------------------

General Integration Accuracy     IntAcc      ... 4.388
Radial Grid Type                 RadialGrid  ... OptM3 with GC (2021)
Angular Grid (max. ang.)         AngularGrid ... 4 (Lebedev-302)
Angular grid pruning method      GridPruning ... 4 (adaptive)
Weight generation scheme         WeightScheme... mBecke (2022)
Basis function cutoff            BFCut       ... 1.0000e-11
Integration weight cutoff        WCut        ... 1.0000e-14
Partially contracted basis set               ... off
Rotationally invariant grid construction     ... off
Angular grids for H and He will be reduced by one unit
Diffuse basis detected: some atoms will have their outermost
                        angular grid increased by 1.

Total number of grid points                  ...    59509
Total number of batches                      ...      937
Average number of points per batch           ...       63
Average number of grid points per atom       ...     4578
Initializing property integral containers    ... done (  0.0 sec)

SHARK setup successfully completed in   1.2 seconds

Maximum memory used throughout the entire STARTUP-calculation: 27.0 MB
Occupation numbers will be reassigned to an Aufbau configuration
             **** ENERGY FILE WAS UPDATED (xtb_opt.en.tmp) ****
Finished Guess after   0.4 sec
Maximum memory used throughout the entire GUESS-calculation: 11.1 MB
--------------------
CPCM SOLVATION MODEL
--------------------
CPCM parameters:
  Epsilon                                         ...      78.3550
  Refrac                                          ...       1.3328
  Rsolv                                           ...       1.3000
  Surface type                                    ... GAUSSIAN VDW
  Discretization scheme                           ... Constant charge density
    Threshold for H atoms                         ...       5.0000 (charges/Ang^2)
    Threshold for non-H atoms                     ...       5.0000 (charges/Ang^2)
  Epsilon function type                           ...         CPCM
Solvent:                                          ... WATER
SMD-CDS solvent descriptors:
  Soln                                            ...       1.3328
  Soln25                                          ...       1.3323
  Sola                                            ...       0.0000
  Solb                                            ...       0.0000
  Solg                                            ...       0.0000
  Solc                                            ...       0.0000
  Solh                                            ...       0.0000
Radii:
  Scheme                                          ... Element-dependent radii
  Radius for C  used is    3.4960 Bohr (=   1.8500 Ang.)
  Radius for N  used is    3.5716 Bohr (=   1.8900 Ang.)
  Radius for O  used is    2.8724 Bohr (=   1.5200 Ang.)
  Radius for H  used is    2.2677 Bohr (=   1.2000 Ang.)
Calculating surface                               ...        done! (  0.0s)
Cavity surface points                             ...         1009
Cavity Volume                                     ...     617.2009
Cavity Surface-area                               ...     425.6527
Calculating surface distance matrix               ...        done! (  0.0s)
Performing Cholesky decomposition & store         ...        done! (  0.1s)
Overall time for CPCM initialization              ...                 0.1s

----------------------------------------D-I-I-S--------------------------------------------
Iteration    Energy (Eh)           Delta-E    RMSDP     MaxDP     DIISErr   Damp  Time(sec)
-------------------------------------------------------------------------------------------
               ***  Starting incremental Fock matrix formation  ***
    1    -323.6044561311496750     0.00e+00  1.27e-04  3.85e-03  1.21e-02  0.700   2.2
    2    -323.6046955376445453    -2.39e-04  1.09e-04  3.46e-03  9.08e-03  0.700   2.0
                               ***Turning on AO-DIIS***
    3    -323.6048634796756573    -1.68e-04  7.93e-05  2.38e-03  6.48e-03  0.700   1.9
    4    -323.6049787820733741    -1.15e-04  1.93e-04  6.07e-03  4.56e-03  0.000   2.0
                              *** Initializing SOSCF ***
---------------------------------------S-O-S-C-F--------------------------------------
Iteration    Energy (Eh)           Delta-E    RMSDP     MaxDP     MaxGrad    Time(sec)
--------------------------------------------------------------------------------------
    5    -323.6052527824832055    -2.74e-04  1.70e-05  3.56e-04  4.94e-04     1.9
               *** Restarting incremental Fock matrix formation ***
    6    -323.6052535599473572    -7.77e-07  1.60e-05  4.36e-04  1.05e-04     2.2
    7    -323.6052526652017036     8.95e-07  1.07e-05  3.03e-04  3.43e-04     1.7
    8    -323.6052537151264801    -1.05e-06  7.96e-06  1.67e-04  5.20e-05     1.8
    9    -323.6052536433450655     7.18e-08  4.64e-06  9.74e-05  7.19e-05     1.7
                 **** Energy Check signals convergence ****

               *****************************************************
               *                     SUCCESS                       *
               *           SCF CONVERGED AFTER   9 CYCLES          *
               *****************************************************


SMD CDS free energy correction energy :                 4.91976     Kcal/mol
Total Energy after SMD CDS correction =              -323.597413514 Eh
             **** ENERGY FILE WAS UPDATED (xtb_opt.en.tmp) ****

----------------
TOTAL SCF ENERGY
----------------

Total Energy       :       -323.59741351407348 Eh           -8805.53329 eV

Components:
Nuclear Repulsion  :        244.93558993837343 Eh            6665.03625 eV
Electronic Energy  :       -568.52339349991257 Eh          -15470.30803 eV
One Electron Energy:       -924.93370463289182 Eh          -25168.72566 eV
Two Electron Energy:        356.41031113297919 Eh            9698.41762 eV
CPCM Dielectric    :         -0.01745008180594 Eh              -0.47484 eV
SMD CDS (Gcds)     :          0.00784012927159 Eh               0.21334 eV

Virial components:
Potential Energy   :       -645.89269241177408 Eh          -17575.63369 eV
Kinetic Energy     :        322.29527889770054 Eh            8770.10040 eV
Virial Ratio       :          2.00404019140717

DFT components:
N(Alpha)           :       23.999966927709 electrons
N(Beta)            :       23.999966927709 electrons
N(Total)           :       47.999933855417 electrons
E(X)               :      -41.233871793124 Eh       
E(C)               :       -1.559675060257 Eh       
E(XC)              :      -42.793546853381 Eh       

CPCM Solvation Model Properties:
Surface-charge          :         -0.03890880386832
Corrected charge        :          0.00000000000000
Outlying charge corr.   :          0.00013268145130 Eh               0.00361 eV
Free-energy (cav+disp)  :          0.00784012927159 Eh               0.21334 eV

---------------
SCF CONVERGENCE
---------------

  Last Energy change         ...   -7.1781e-08  Tolerance :   1.0000e-07
  Last MAX-Density change    ...    9.7360e-05  Tolerance :   1.0000e-07
  Last RMS-Density change    ...    4.6368e-06  Tolerance :   5.0000e-09
  Last DIIS Error            ...    4.9432e-04  Tolerance :   1.0000e-07
  Last Orbital Gradient      ...    7.1868e-05  Tolerance :   1.0000e-04
  Last Orbital Rotation      ...    6.0005e-05  Tolerance :   1.0000e-04


----------------
ORBITAL ENERGIES
----------------

  NO   OCC          E(Eh)            E(eV) 
   0   2.0000     -19.000201      -517.0217 
   1   2.0000     -18.995412      -516.8914 
   2   2.0000     -14.399684      -391.8353 
   3   2.0000     -10.082635      -274.3625 
   4   2.0000     -10.034919      -273.0640 
   5   2.0000     -10.018876      -272.6275 
   6   2.0000      -1.206564       -32.8323 
   7   2.0000      -1.032120       -28.0854 
   8   2.0000      -0.800200       -21.7746 
   9   2.0000      -0.713971       -19.4281 
  10   2.0000      -0.602972       -16.4077 
  11   2.0000      -0.558069       -15.1858 
  12   2.0000      -0.523597       -14.2478 
  13   2.0000      -0.511170       -13.9096 
  14   2.0000      -0.495834       -13.4923 
  15   2.0000      -0.429927       -11.6989 
  16   2.0000      -0.390629       -10.6296 
  17   2.0000      -0.360764        -9.8169 
  18   2.0000      -0.349089        -9.4992 
  19   2.0000      -0.321224        -8.7410 
  20   2.0000      -0.312540        -8.5046 
  21   2.0000      -0.298093        -8.1115 
  22   2.0000      -0.286759        -7.8031 
  23   2.0000      -0.270245        -7.3537 
  24   0.0000      -0.112349        -3.0572 
  25   0.0000       0.083758         2.2792 
  26   0.0000       0.093815         2.5528 
  27   0.0000       0.134757         3.6669 
  28   0.0000       0.142675         3.8824 
  29   0.0000       0.151324         4.1177 
  30   0.0000       0.153748         4.1837 
  31   0.0000       0.179706         4.8900 
  32   0.0000       0.192481         5.2377 
  33   0.0000       0.196677         5.3519 
  34   0.0000       0.219583         5.9751 
*Only the first 10 virtual orbitals were printed.
Total SCF time: 0 days 0 hours 0 min 18 sec 
Finished LeanSCF after  18.2 sec

Maximum memory used throughout the entire LEANSCF-calculation: 17.0 MB


-------------------------------------------------------------------------------
                          DFT DISPERSION CORRECTION                            
                                                                               
                                DFTD4 V3.4.0                                   
-------------------------------------------------------------------------------
-------------------------   ----------------
Dispersion correction           -0.002786613
-------------------------   ----------------

------------------   -----------------
gCP correction             0.012432214
------------------   -----------------

-------------------------   --------------------
FINAL SINGLE POINT ENERGY      -323.587767913638
-------------------------   --------------------

------------------------------------------------------------------------------
                         ORCA SCF GRADIENT CALCULATION
------------------------------------------------------------------------------

Nuc. rep. gradient        (SHARK) ... done (  0.0 sec)
HCore & Overlap gradient  (SHARK) ... done (  0.1 sec)
Split-RIJ-J gradient      (SHARK) ... done (  0.8 sec)
XC gradient                       ... done (  3.2 sec)
CPCM gradient                     ... done (  0.4 sec)
SMD gradient                      ... done (  0.0 sec)
Dispersion correction             ... done (  0.0 sec)

-------------------
DISPERSION GRADIENT
-------------------

   1   C   :   -0.000064197    0.000004246   -0.000000595
   2   C   :   -0.000027064   -0.000012433    0.000008012
   3   C   :    0.000007368    0.000013184   -0.000007712
   4   N   :    0.000054234    0.000001116   -0.000002272
   5   O   :    0.000058918    0.000019852   -0.000013344
   6   O   :    0.000050069   -0.000027414    0.000014337
   7   H   :   -0.000027430    0.000000521   -0.000006558
   8   H   :   -0.000026383   -0.000004143    0.000003131
   9   H   :   -0.000027094    0.000006600    0.000004006
  10   H   :   -0.000009713   -0.000013711    0.000000237
  11   H   :   -0.000009396   -0.000006825    0.000012213
  12   H   :    0.000010131    0.000005753   -0.000012300
  13   H   :    0.000010557    0.000013254    0.000000846

Difference to translation invariance:
           :   -0.0000000000    0.0000000000    0.0000000000

Difference to rotation invariance:
           :   -0.0000000000    0.0000000000    0.0000000000

Norm of the Dispersion gradient    ...    0.0001388785
RMS gradient                       ...    0.0000222384
MAX gradient                       ...    0.0000641965
gCP correction                   ... done

------------------
CARTESIAN GRADIENT
------------------

   1   C   :   -0.001454545    0.000567761   -0.000273368
   2   C   :   -0.002778638   -0.000849946    0.000541259
   3   C   :    0.014840715   -0.002894490    0.001233226
   4   N   :   -0.007985854    0.001747102   -0.000763002
   5   O   :   -0.001980176   -0.001909726    0.001155557
   6   O   :   -0.001028526    0.003248697   -0.001894127
   7   H   :    0.000395958   -0.000295554    0.001062589
   8   H   :    0.001188267    0.000317303   -0.000220988
   9   H   :    0.000364025   -0.001076859   -0.000312793
  10   H   :    0.000417865    0.000661980    0.000164950
  11   H   :    0.000335763    0.000164474   -0.000645122
[...]

----------------
TOTAL SCF ENERGY
----------------

Total Energy       :       -323.59771140175792 Eh           -8805.54139 eV

Components:
Nuclear Repulsion  :        243.99427144350940 Eh            6639.42167 eV
Electronic Energy  :       -567.58252046566963 Eh          -15444.70558 eV
One Electron Energy:       -923.09034364297179 Eh          -25118.56525 eV
Two Electron Energy:        355.50782317730221 Eh            9673.85968 eV
CPCM Dielectric    :         -0.01733200802350 Eh              -0.47163 eV
SMD CDS (Gcds)     :          0.00786962842576 Eh               0.21414 eV

Virial components:
Potential Energy   :       -645.84092961041551 Eh          -17574.22515 eV
Kinetic Energy     :        322.24321820865759 Eh            8768.68376 eV
Virial Ratio       :          2.00420332567627

DFT components:
N(Alpha)           :       23.999972166416 electrons
N(Beta)            :       23.999972166416 electrons
N(Total)           :       47.999944332831 electrons
E(X)               :      -41.220528602373 Eh       
E(C)               :       -1.558522291930 Eh       
E(XC)              :      -42.779050894302 Eh       

CPCM Solvation Model Properties:
Surface-charge          :         -0.03894420555012
Corrected charge        :         -0.00000000000000
Outlying charge corr.   :          0.00013272863353 Eh               0.00361 eV
Free-energy (cav+disp)  :          0.00786962842576 Eh               0.21414 eV

---------------
SCF CONVERGENCE
---------------

  Last Energy change         ...    1.3699e-10  Tolerance :   1.0000e-07
  Last MAX-Density change    ...    6.7480e-06  Tolerance :   1.0000e-07
  Last RMS-Density change    ...    2.9767e-07  Tolerance :   5.0000e-09
  Last DIIS Error            ...    8.2357e-06  Tolerance :   1.0000e-07
  Last Orbital Gradient      ...    2.1036e-06  Tolerance :   1.0000e-04
  Last Orbital Rotation      ...    4.7069e-06  Tolerance :   1.0000e-04


----------------
ORBITAL ENERGIES
----------------

  NO   OCC          E(Eh)            E(eV) 
   0   2.0000     -19.000432      -517.0280 
   1   2.0000     -18.996078      -516.9096 
   2   2.0000     -14.398782      -391.8108 
   3   2.0000     -10.083838      -274.3952 
   4   2.0000     -10.035567      -273.0817 
   5   2.0000     -10.019656      -272.6487 
   6   2.0000      -1.203959       -32.7614 
   7   2.0000      -1.031309       -28.0634 
   8   2.0000      -0.795295       -21.6411 
   9   2.0000      -0.710789       -19.3415 
  10   2.0000      -0.602920       -16.4063 
  11   2.0000      -0.558333       -15.1930 
  12   2.0000      -0.520465       -14.1626 
  13   2.0000      -0.508971       -13.8498 
  14   2.0000      -0.495200       -13.4751 
  15   2.0000      -0.431075       -11.7301 
  16   2.0000      -0.391282       -10.6473 
  17   2.0000      -0.361065        -9.8251 
  18   2.0000      -0.349553        -9.5118 
  19   2.0000      -0.321865        -8.7584 
  20   2.0000      -0.312325        -8.4988 
  21   2.0000      -0.298574        -8.1246 
  22   2.0000      -0.284580        -7.7438 
  23   2.0000      -0.271190        -7.3795 
  24   0.0000      -0.111763        -3.0412 
  25   0.0000       0.076358         2.0778 
  26   0.0000       0.092751         2.5239 
  27   0.0000       0.131360         3.5745 
  28   0.0000       0.141993         3.8638 
  29   0.0000       0.150359         4.0915 
  30   0.0000       0.155197         4.2231 
  31   0.0000       0.179697         4.8898 
  32   0.0000       0.191230         5.2036 
  33   0.0000       0.195715         5.3257 
  34   0.0000       0.220338         5.9957 
*Only the first 10 virtual orbitals were printed.
Total SCF time: 0 days 0 hours 0 min 4 sec 
Finished LeanSCF after   4.3 sec

Maximum memory used throughout the entire LEANSCF-calculation: 17.0 MB


-------------------------------------------------------------------------------
                          DFT DISPERSION CORRECTION                            
                                                                               
                                DFTD4 V3.4.0                                   
-------------------------------------------------------------------------------
-------------------------   ----------------
Dispersion correction           -0.002779929
-------------------------   ----------------

------------------   -----------------
gCP correction             0.012311209
------------------   -----------------

-------------------------   --------------------
FINAL SINGLE POINT ENERGY      -323.588180121844
-------------------------   --------------------

------------------------------------------------------------------------------
                         ORCA SCF GRADIENT CALCULATION
------------------------------------------------------------------------------

Nuc. rep. gradient        (SHARK) ... done (  0.0 sec)
HCore & Overlap gradient  (SHARK) ... done (  0.1 sec)
Split-RIJ-J gradient      (SHARK) ... done (  0.8 sec)
XC gradient                       ... done (  3.0 sec)
CPCM gradient                     ... done (  0.4 sec)
SMD gradient                      ... done (  0.0 sec)
Dispersion correction             ... done (  0.0 sec)

-------------------
DISPERSION GRADIENT
-------------------

   1   C   :   -0.000063611    0.000004310   -0.000000617
   2   C   :   -0.000027627   -0.000012615    0.000008070
   3   C   :    0.000007302    0.000013080   -0.000007733
   4   N   :    0.000053857    0.000001400   -0.000002395
   5   O   :    0.000058893    0.000019949   -0.000013339
   6   O   :    0.000050619   -0.000027415    0.000014441
   7   H   :   -0.000027145    0.000000541   -0.000006439
   8   H   :   -0.000026093   -0.000004069    0.000003092
   9   H   :   -0.000026844    0.000006516    0.000003987
  10   H   :   -0.000010036   -0.000013823    0.000000175
  11   H   :   -0.000009640   -0.000006857    0.000012291
  12   H   :    0.000009967    0.000005753   -0.000012302
  13   H   :    0.000010358    0.000013230    0.000000768

Difference to translation invariance:
           :    0.0000000000    0.0000000000   -0.0000000000

Difference to rotation invariance:
           :    0.0000000000   -0.0000000000   -0.0000000000

Norm of the Dispersion gradient    ...    0.0001386580
RMS gradient                       ...    0.0000222031
MAX gradient                       ...    0.0000636109
gCP correction                   ... done

------------------
CARTESIAN GRADIENT
------------------

   1   C   :   -0.000121901    0.000002341   -0.000000308
   2   C   :    0.000007469    0.000004069   -0.000007587
   3   C   :    0.000043625    0.000040857    0.000006055
   4   N   :    0.000128806   -0.000064364   -0.000046002
   5   O   :   -0.000098686   -0.000049683    0.000055058
   6   O   :   -0.000023993    0.000103656   -0.000047462
   7   H   :    0.000029738   -0.000010583    0.000044969
   8   H   :    0.000034945    0.000022742   -0.000016643
   9   H   :    0.000027051   -0.000048138   -0.000017145
  10   H   :    0.000009736    0.000026386   -0.000003633
  11   H   :   -0.000003582   -0.000001085   -0.000023233
  12   H   :   -0.000016361    0.000002838    0.000028958
  13   H   :   -0.000016846   -0.000029038    0.000026973

Difference to translation invariance:
           :    0.0000000000   -0.0000000000    0.0000000000

Difference to rotation invariance:
           :    0.0002120390    0.0000581326    0.0001458283

Norm of the Cartesian gradient     ...    0.0002880445
RMS gradient                       ...    0.0000461240
MAX gradient                       ...    0.0001288056

-------
TIMINGS
-------

Total SCF gradient time     ....        4.762 sec

Densities                   ....       0.000 sec  (  0.0%)
One electron gradient       ....       0.119 sec  (  2.5%)
RI-J Coulomb gradient       ....       0.766 sec  ( 16.1%)
XC gradient                 ....       3.032 sec  ( 63.7%)
CPCM gradient               ....       0.396 sec  (  8.3%)
   A-Matrix (El+Nuc)        ....       0.035 sec  (  0.7%)
   Potential                ....       0.361 sec  (  7.6%)
SMD gradient                ....       0.016 sec  (  0.3%)

Maximum memory used throughout the entire SCFGRAD-calculation: 31.1 MB

------------------------------------------------------------------------------
                              ORCA PROPERTY CALCULATIONS
------------------------------------------------------------------------------

GBWName                                 ... xtb_opt.gbw
Number of atoms                         ...     13
Number of basis functions               ...    164
Max core memory                         ...   1024 MB

Electric properties:
Dipole moment                           ... YES
Quadrupole moment                       ...  NO
Static polarizability (Dipole/Dipole)   ...  NO
Static polarizability (Dipole/Quad.)    ...  NO
Static polarizability (Quad./Quad.)     ...  NO
Static polarizability (Velocity)        ...  NO

Atomic electric properties:
Dipole moment                           ...  NO
Quadrupole moment                       ...  NO
Static polarizability                   ...  NO

Choice of electric origin               ... Center of mass
Position of electric origin             ...     0.024843     0.004328    -0.000609

General magnetic properties:
Magnetizability                         ...  NO

EPR properties:
g-Tensor (aka g-matrix)                 ...  NO
Zero-Field splitting spin-orbit         ...  NO
Zero-field splitting spin-spin          ...  NO
Hyperfine couplings                     ...  NO (   0 nuclei)
Quadrupole couplings                    ...  NO (   0 nuclei)
Contact density                         ...  NO (   0 nuclei)

NMR properties:
Chemical shifts                         ...  NO (   0 nuclei)
Spin-rotation constants                 ...  NO (   0 nuclei)
Spin-spin couplings                     ...  NO (   0 nuclei,    0 pairs)

Choice of magnetic origin               ... GIAO
Position of magnetic origin             ...     0.000000     0.000000     0.000000

Properties with geometric perturbations:
SCF Hessian                             ...  NO
IR spectrum                             ...  NO
VCD spectrum                            ...  NO
X-ray spectroscopy properties:
SCF XES/XAS/RIXS spectra                ...  NO


-------------
DIPOLE MOMENT
-------------

Method             : SCF
Type of density    : Electron Density
Multiplicity       :   1
Irrep              :   0
Energy             :  -323.5977114017579197 Eh
Relativity type    : 
Basis              : AO
                                X                 Y                 Z
Electronic contribution:      9.967116339      -0.465631771      -0.025599523
Nuclear contribution   :    -11.886728800       0.949182385      -0.195348089
                        -----------------------------------------
Total Dipole Moment    :     -1.919612461       0.483550615      -0.220947613
                        -----------------------------------------
Magnitude (a.u.)       :      1.991871242
Magnitude (Debye)      :      5.062934340



--------------------
Rotational spectrum 
--------------------
 
Rotational constants in cm-1:             0.318048             0.064731             0.055460 
Rotational constants in MHz :          9534.828351          1940.576139          1662.649417 

Dipole components along the rotational axes: 
x,y,z [a.u.] :    -1.898848     0.601601     0.002358 
x,y,z [Debye]:    -4.826487     1.529148     0.005995 

 

Dipole moment calculation done in   0.0 sec 

Maximum memory used throughout the entire PROP-calculation: 9.4 MB

--------------------------------
SUGGESTED CITATIONS FOR THIS RUN
--------------------------------

Below you find a list of papers that are relevant to this ORCA run
We neither can nor want to force you to cite these papers, but we appreciate if you do
You receive ORCA, which is the product of decades of hard work by many enthusiastic individuals, for free
The only thing we kindly ask in return is that you cite our papers,
We deeply appreciate it, if you show your appreciation for ORCA by not just citing the generic ORCA reference.

Please note that relegating all ORCA citations to the supporting information does *not* help us.
SI sections are not indexed - citations you put there will not count into any citation statistics
But we need these citations in order to attract the funding resources that allow us to do what we are doing

Therefore, if you are a happy ORCA user, please consider citing a few of the papers listed below in the main body of your paper

In addition to the list printed below, the program has created the file xtb_opt.bibtex that contains the list in bibtex format
You can import this file easily into all common literature databanks and citation aid programs


List of essential papers. We consider these as the minimum necessary citations

  1. Neese,F.
     Software update: the ORCA program system, version 5.0
     WIRES Comput. Molec. Sci., 2022 12(1)e1606
     doi.org/10.1002/wcms.1606
  2. Grimme,S.; Hansen,A.; Ehlert,S.; Mewes,J.
     r2SCAN-3c: A 'Swiss army knife' composite electronic-structure method
     J. Chem. Phys., 2021 154 064103
     doi.org/10.1063/5.0040021

List of papers to cite with high priority. The work reported in these papers was absolutely
necessary for this run to complete.
Our perspective: the developers of density functionals and basis sets usually get cited in chemistry papers
Good! But without the algorithms to do something with them, the functionals or basis sets would not do anything.
Hence, in our opinion, the algorithm design and method developments papers are equally worthy of getting cited

  1. Neese,F.
     An improvement of the resolution of the identity approximation for the formation of the Coulomb matrix
     J. Comp. Chem., 2003 24(14)1740-1747
     doi.org/10.1002/jcc.10318
  2. Garcia-Rates,M.; Neese,F.
     Effect of the Solute Cavity on the Solvation Energy and its Derivatives within the Framework of the Gaussian Charge Scheme
     J. Comput. Chem., 2020 41 922-939
     doi.org/10.1002/jcc.26139
  3. Neese,F.
     The SHARK Integral Generation and Digestion System
     J. Comp. Chem., 2022  1-16
     doi.org/10.1002/jcc.26942
  4. Lehtola,S.; Steigemann,C.; Oliveira,M.; Marques,M.
     Recent developments in Libxc - A comprehensive library of functionals for density functional theory
     Software X, 2018 7 
     doi.org/10.1016/j.softx.2017.11.002
  5. Caldeweyher,E.; Bannwarth,C.; Grimme,S.
     Extension of the D3 dispersion coefficient model
     J. Chem. Phys., 2017 147 034112-XXXX
     doi.org/10.1063/1.4993215
  6. Caldeweyher,E.; Ehlert,S.; Hansen,A.; Neugebauer,H.; Spicher,S.; Bannwarth,C.; Grimme,S.
     A generally applicable atomic-charge dependent London dispersion correction
     J. Chem. Phys., 2019 150 154122-XXXX
     doi.org/10.1063/1.5090222
  7. Caldeweyher,E.; Mewes,J.; Ehlert,S.; Grimme,S.
     Extension and evaluation of the D4 London-dispersion model for periodic systems
     Phys. Chem. Chem. Phys., 2020 22(16)8499-8512
     doi.org/10.1039/D0CP00502A

List of suggested additional citations. These are papers that are important in the 'surrounding' of 
of this run, or papers that preceded the highly important papers. If you like your results we are grateful for a citation.

  1. Neese,F.
     The ORCA program system
     WIRES Comput. Molec. Sci., 2012 2(1)73-78
     doi.org/10.1002/wcms.81
  2. Neese,F.
     Software update: the ORCA program system, version 4.0
     WIRES Comput. Molec. Sci., 2018 8(1)1-6
     doi.org/10.1002/wcms.1327
  3. Neese,F.; Wennmohs,F.; Becker,U.; Riplinger,C.
     The ORCA quantum chemistry program package
     J. Chem. Phys., 2020 152 Art. No. L224108
     doi.org/10.1063/5.0004608

List of optional additional citations

  1. Neese,F.
     Approximate second-order SCF convergence for spin unrestricted wavefunctions
     Chem. Phys. Lett., 2000 325(1-3)93-98
     doi.org/10.1016/s0009-2614(00)00662-x

Timings for individual modules:

Sum of individual times          ...       10.498 sec (=   0.175 min)
Startup calculation              ...        0.877 sec (=   0.015 min)   8.4 %
SCF iterations                   ...        4.636 sec (=   0.077 min)  44.2 %
Property calculations            ...        0.118 sec (=   0.002 min)   1.1 %
SCF Gradient evaluation          ...        4.868 sec (=   0.081 min)  46.4 %
                             ****ORCA TERMINATED NORMALLY****
TOTAL RUN TIME: 0 days 0 hours 0 minutes 11 seconds 402 msec
  ------------------------------------------------------------------------
          * successful ORCA run, taking over control again...

         :::::::::::::::::::::::::::::::::::::::::::::::::::::
         ::                  ORCA SUMMARY                   ::
         :::::::::::::::::::::::::::::::::::::::::::::::::::::
         :: total energy            -323.588180121844 Eh    ::
         :: gradient norm              0.000288044499 Eh/a0 ::
         :: HOMO-LUMO gap              0.000000000000 eV    ::
         :::::::::::::::::::::::::::::::::::::::::::::::::::::

           -------------------------------------------------
          |                Property Printout                |
           -------------------------------------------------
           -------------------------------------------------
          |                Geometry Summary                 |
           -------------------------------------------------

      molecular mass/u    :       89.0933060
   center of mass at/Å    :        0.0131795       0.0022875      -0.0003218
  moments of inertia/u·Å² :        0.5300352E+02   0.2604247E+03   0.3039580E+03
rotational constants/cm⁻¹ :        0.3180474E+00   0.6473132E-01   0.5546040E-01

 * 11 selected distances

     #   Z          #   Z                                           value/Å
     1   6 C        2   6 C                                       1.5282401 (max)
     2   6 C        3   6 C                                       1.5105687
     4   7 N        5   8 O                                       1.2274329
     4   7 N        6   8 O                                       1.2235394
     1   6 C        7   1 H                                       1.0947515
     1   6 C        8   1 H                                       1.0931859 (min)
     1   6 C        9   1 H                                       1.0947629
     2   6 C       10   1 H                                       1.0944245
     2   6 C       11   1 H                                       1.0943538
     3   6 C       12   1 H                                       1.0945748
     3   6 C       13   1 H                                       1.0946094

 * 3 distinct bonds (by element types)

   Z      Z             #   av. dist./Å        max./Å        min./Å
   1 H    6 C           7     1.0943804     1.0947629     1.0931859
   6 C    6 C           2     1.5194044     1.5282401     1.5105687
   7 N    8 O           2     1.2254861     1.2274329     1.2235394


optimized geometry written to: xtbopt.coord


           -------------------------------------------------
          | TOTAL ENERGY             -323.588180121844 Eh   |
          | GRADIENT NORM               0.000288044499 Eh/α |
           -------------------------------------------------

------------------------------------------------------------------------
 * finished run on 2025/04/11 at 12:30:55.336     
------------------------------------------------------------------------
 total:
 * wall-time:     0 d,  0 h,  2 min, 38.918 sec
 *  cpu-time:     0 d,  0 h,  0 min,  1.490 sec
 * ratio c/w:     0.009 speedup
 SCF:
 * wall-time:     0 d,  0 h,  0 min, 16.506 sec
 *  cpu-time:     0 d,  0 h,  0 min,  0.559 sec
 * ratio c/w:     0.034 speedup
 ANC optimizer:
 * wall-time:     0 d,  0 h,  2 min, 22.375 sec
 *  cpu-time:     0 d,  0 h,  0 min,  0.877 sec
 * ratio c/w:     0.006 speedup

