      -----------------------------------------------------------      
     |                   =====================                   |     
     |                           x T B                           |     
     |                   =====================                   |     
     |                         S. Grimme                         |     
     |          Mulliken Center for Theoretical Chemistry        |     
     |                    University of Bonn                     |     
      -----------------------------------------------------------      

   * xtb version 6.7.1 (edcfbbe) compiled by 'albert@albert-system' on 2024-07-22

   xtb is free software: you can redistribute it and/or modify it under
   the terms of the GNU Lesser General Public License as published by
   the Free Software Foundation, either version 3 of the License, or
   (at your option) any later version.
   
   xtb is distributed in the hope that it will be useful,
   but WITHOUT ANY WARRANTY; without even the implied warranty of
   MERCHANTABILITY or FITNESS FOR A PARTICULAR PURPOSE.  See the
   GNU Lesser General Public License for more details.
   
   Cite this work as:
   * C. Bannwarth, E. Caldeweyher, S. Ehlert, A. Hansen, P. Pracht,
     J. Seibert, S. Spicher, S. Grimme, WIREs Comput. Mol. Sci., 2020, 11,
     e01493. DOI: 10.1002/wcms.1493
   
   for GFN2-xTB:
   * C. Bannwarth, S. Ehlert and S. Grimme., J. Chem. Theory Comput., 2019,
     15, 1652-1671. DOI: 10.1021/acs.jctc.8b01176
   for GFN1-xTB:
   * S. Grimme, C. Bannwarth, P. Shushkov, J. Chem. Theory Comput., 2017,
     13, 1989-2009. DOI: 10.1021/acs.jctc.7b00118
   for GFN0-xTB:
   * P. Pracht, E. Caldeweyher, S. Ehlert, S. Grimme, ChemRxiv, 2019, preprint.
     DOI: 10.26434/chemrxiv.8326202.v1
   for GFN-FF:
   * S. Spicher and S. Grimme, Angew. Chem. Int. Ed., 2020, 59, 15665-15673.
     DOI: 10.1002/anie.202004239
   
   for ALPB and GBSA implicit solvation:
   * S. Ehlert, M. Stahn, S. Spicher, S. Grimme, J. Chem. Theory Comput.,
     2021, 17, 4250-4261. DOI: 10.1021/acs.jctc.1c00471
   
   for ddCOSMO and CPCM-X implicit solvation:
   * M. Stahn, S. Ehlert, S. Grimme, J. Phys. Chem. A,
     2023, XX, XXXX-XXXX. DOI: 10.1021/acs.jpca.3c04382
   
   for DFT-D4:
   * E. Caldeweyher, C. Bannwarth and S. Grimme, J. Chem. Phys., 2017,
     147, 034112. DOI: 10.1063/1.4993215
   * E. Caldeweyher, S. Ehlert, A. Hansen, H. Neugebauer, S. Spicher,
     C. Bannwarth and S. Grimme, J. Chem. Phys., 2019, 150, 154122.
     DOI: 10.1063/1.5090222
   * E. Caldeweyher, J.-M. Mewes, S. Ehlert and S. Grimme, Phys. Chem. Chem. Phys.
     2020, 22, 8499-8512. DOI: 10.1039/D0CP00502A
   
   for sTDA-xTB:
   * S. Grimme and C. Bannwarth, J. Chem. Phys., 2016, 145, 054103.
     DOI: 10.1063/1.4959605
   
   in the mass-spec context:
   * V. Asgeirsson, C. Bauer and S. Grimme, Chem. Sci., 2017, 8, 4879.
     DOI: 10.1039/c7sc00601b
   * J. Koopman and S. Grimme, ACS Omega 2019, 4, 12, 15120-15133.
     DOI: 10.1021/acsomega.9b02011
   
   for metadynamics refer to:
   * S. Grimme, J. Chem. Theory Comput., 2019, 155, 2847-2862
     DOI: 10.1021/acs.jctc.9b00143
   
   for SPH calculations refer to:
   * S. Spicher and S. Grimme, J. Chem. Theory Comput., 2021, 17, 1701-1714
     DOI: 10.1021/acs.jctc.0c01306
   
   for ONIOM refer to:
   * C. Plett, A. Katbashev, S. Ehlert, S. Grimme, M. Bursch,
     Phys. Chem. Chem. Phys., 2023, 25, 17860-17868. DOI: 10.1039/D3CP02178E
   
   for DIPRO refer to:
   * J. Kohn, N. Gildemeister, S. Grimme, D. Fazzi, A. Hansen,
     J. Chem. Phys., 2023, just accepted.
   
   for PTB refer to:
   * S. Grimme, M. Mueller, A. Hansen, J. Chem. Phys., 2023, 158, 124111.
     DOI: 10.1063/5.0137838
   
   with help from (in alphabetical order)
   P. Atkinson, C. Bannwarth, F. Bohle, G. Brandenburg, E. Caldeweyher
   M. Checinski, S. Dohm, S. Ehlert, S. Ehrlich, I. Gerasimov, C. Hölzer
   A. Katbashev, J. Kohn, J. Koopman, C. Lavigne, S. Lehtola, F. März, M. Müller,
   F. Musil, H. Neugebauer, J. Pisarek, C. Plett, P. Pracht, F. Pultar,
   J. Seibert, P. Shushkov, S. Spicher, M. Stahn, M. Steiner, T. Strunk,
   J. Stückrath, T. Rose, and J. Unsleber
   
 * started run on 2025/04/11 at 16:44:09.237     
   ID    Z sym.   atoms
    1    6 C      1-4, 7, 8
    2    8 O      5, 6
    3    1 H      9-20

           -------------------------------------------------
          |                Calculation Setup                |
           -------------------------------------------------

          program call               : /srv/scratch/z5358697/.xtb/bin/xtb xtb_rrho.coord --gfn2 --bhess vtight --chrg 0 --enso --norestart -I rrho-xcontrol-inp --parallel 1 --alpb water
          hostname                   : k061
          coordinate file            : xtb_rrho.coord
          omp threads                :                     1


           -------------------------------------------------
          |                 G F N 2 - x T B                 |
           -------------------------------------------------

        Reference                      10.1021/acs.jctc.8b01176
      * Hamiltonian:
        H0-scaling (s, p, d)           1.850000    2.230000    2.230000
        zeta-weighting                 0.500000
      * Dispersion:
        s8                             2.700000
        a1                             0.520000
        a2                             5.000000
        s9                             5.000000
      * Repulsion:
        kExp                           1.500000    1.000000
        rExp                           1.000000
      * Coulomb:
        alpha                          2.000000
        third order                    shell-resolved
        anisotropic                    true
        a3                             3.000000
        a5                             4.000000
        cn-shift                       1.200000
        cn-exp                         4.000000
        max-rad                        5.000000

      * Solvation model:               ALPB
        Solvent                        water
        Parameter file                 internal GFN2-xTB/ALPB
        Dielectric constant                8.0200E+01
        Reference state                gsolv [1 M gas/solution]
        Free energy shift                  1.0808E-03 Eh       6.7819E-01 kcal/mol
        Temperature                        2.9815E+02 K
        Density                            1.0000E+00 kg/L
        Solvent mass                       1.8000E+01 g/mol
        Interaction kernel             P16
        Born radius scaling (c1)           1.4744E+00
        Born radii integrator          GBOBC
        Born offset                        0.0000E+00 a0       0.0000E+00 AA
        H-bond correction              true
        Ion screening                  false
        Surface tension                    1.0000E-05 Eh       1.5569E+01 dyn/cm
        Grid points                               974 per atom

          ...................................................
          :                      SETUP                      :
          :.................................................:
          :  # basis functions                  44          :
          :  # atomic orbitals                  44          :
          :  # shells                           28          :
          :  # electrons                        48          :
          :  max. iterations                   250          :
          :  Hamiltonian                  GFN2-xTB          :
          :  restarted?                      false          :
          :  GBSA solvation                   true          :
          :  PC potential                    false          :
          :  electronic temp.          300.0000000     K    :
          :  accuracy                    1.0000000          :
          :  -> integral cutoff          0.2500000E+02      :
          :  -> integral neglect         0.1000000E-07      :
          :  -> SCF convergence          0.1000000E-05 Eh   :
          :  -> wf. convergence          0.1000000E-03 e    :
          :  Broyden damping             0.4000000          :
          :  net charge                          0          :
          :  unpaired electrons                  0          :
          ...................................................

 iter      E             dE          RMSdq      gap      omega  full diag
   1    -27.3540902 -0.273541E+02  0.397E+00    5.52       0.0  T
   2    -27.4177904 -0.637002E-01  0.195E+00    4.59       1.0  T
   3    -27.4198631 -0.207273E-02  0.104E+00    4.93       1.0  T
   4    -27.4215367 -0.167361E-02  0.166E-01    4.68       1.0  T
   5    -27.4217637 -0.227032E-03  0.702E-02    4.74       1.0  T
   6    -27.4217659 -0.211027E-05  0.250E-02    4.73       1.0  T
   7    -27.4217669 -0.107451E-05  0.451E-03    4.73       5.0  T
   8    -27.4217670 -0.330664E-07  0.260E-03    4.73       8.6  T
   9    -27.4217670 -0.116619E-07  0.401E-04    4.73      55.8  T
  10    -27.4217670 -0.349388E-09  0.222E-04    4.73     100.8  T

   *** convergence criteria satisfied after 10 iterations ***

         #    Occupation            Energy/Eh            Energy/eV
      -------------------------------------------------------------
         1        2.0000           -0.7441435             -20.2492
       ...           ...                  ...                  ...
        18        2.0000           -0.4725440             -12.8586
        19        2.0000           -0.4639217             -12.6240
        20        2.0000           -0.4543378             -12.3632
        21        2.0000           -0.4479641             -12.1897
        22        2.0000           -0.4396325             -11.9630
        23        2.0000           -0.4355362             -11.8515
        24        2.0000           -0.4199111             -11.4264 (HOMO)
        25                         -0.2459430              -6.6924 (LUMO)
        26                         -0.0244681              -0.6658
        27                          0.0833686               2.2686
        28                          0.1014263               2.7599
        29                          0.1181498               3.2150
       ...                                ...                  ...
        44                          0.5736914              15.6109
      -------------------------------------------------------------
                  HL-Gap            0.1739681 Eh            4.7339 eV
             Fermi-level           -0.3329271 Eh           -9.0594 eV

 SCC (total)                   0 d,  0 h,  0 min,  0.058 sec
 SCC setup                      ...        0 min,  0.001 sec (  2.578%)
 Dispersion                     ...        0 min,  0.000 sec (  0.206%)
 classical contributions        ...        0 min,  0.000 sec (  0.045%)
 integral evaluation            ...        0 min,  0.002 sec (  2.910%)
 iterations                     ...        0 min,  0.050 sec ( 85.971%)
 molecular gradient             ...        0 min,  0.005 sec (  8.030%)
 printout                       ...        0 min,  0.000 sec (  0.232%)

         :::::::::::::::::::::::::::::::::::::::::::::::::::::
         ::                     SUMMARY                     ::
         :::::::::::::::::::::::::::::::::::::::::::::::::::::
         :: total energy             -27.120279300632 Eh    ::
         :: total w/o Gsasa/hb       -27.120191331669 Eh    ::
         :: gradient norm              0.038483351098 Eh/a0 ::
         :: HOMO-LUMO gap              4.733913776338 eV    ::
         ::.................................................::
         :: SCC energy               -27.421718541185 Eh    ::
         :: -> isotropic ES            0.059629161190 Eh    ::
         :: -> anisotropic ES          0.001347687694 Eh    ::
         :: -> anisotropic XC          0.008983875977 Eh    ::
         :: -> dispersion             -0.011577923626 Eh    ::
         :: -> Gsolv                  -0.009449043388 Eh    ::
         ::    -> Gelec               -0.009361074426 Eh    ::
         ::    -> Gsasa                0.001068480899 Eh    ::
         ::    -> Ghb                 -0.002237209559 Eh    ::
         ::    -> Gshift               0.001080759698 Eh    ::
         :: repulsion energy           0.301439240553 Eh    ::
         :: add. restraining           0.000000000000 Eh    ::
         :: total charge               0.000000000000 e     ::
         :::::::::::::::::::::::::::::::::::::::::::::::::::::

metadynamics with 1 initial structures loaded
           -------------------------------------------------
          |           Optimal kpush determination           |
           -------------------------------------------------
      ----------------------------------------------------------- 
     |                   =====================                   |
     |                        A N C O P T                        |
     |                   =====================                   |
     |               Approximate Normal Coordinate               |
     |                Rational Function Optimizer                |
      ----------------------------------------------------------- 
target rmsd / Å         0.100000
unbiased initial rmsd   0.148640
 
iter. min.        max.        rmsd       kpush
      ----------------------------------------------------------- 
     |                   =====================                   |
     |                        A N C O P T                        |
     |                   =====================                   |
     |               Approximate Normal Coordinate               |
     |                Rational Function Optimizer                |
      ----------------------------------------------------------- 
 1    0.000000    0.909091    0.010028   -0.454545
      ----------------------------------------------------------- 
     |                   =====================                   |
     |                        A N C O P T                        |
     |                   =====================                   |
     |               Approximate Normal Coordinate               |
     |                Rational Function Optimizer                |
      ----------------------------------------------------------- 
 2    0.000000    0.454545    0.012345   -0.227273
      ----------------------------------------------------------- 
     |                   =====================                   |
     |                        A N C O P T                        |
     |                   =====================                   |
     |               Approximate Normal Coordinate               |
     |                Rational Function Optimizer                |
      ----------------------------------------------------------- 
 3    0.000000    0.227273    0.015924   -0.113636
      ----------------------------------------------------------- 
     |                   =====================                   |
     |                        A N C O P T                        |
     |                   =====================                   |
     |               Approximate Normal Coordinate               |
     |                Rational Function Optimizer                |
      ----------------------------------------------------------- 
 4    0.000000    0.113636    0.022061   -0.056818
      ----------------------------------------------------------- 
     |                   =====================                   |
     |                        A N C O P T                        |
     |                   =====================                   |
     |               Approximate Normal Coordinate               |
     |                Rational Function Optimizer                |
      ----------------------------------------------------------- 
 5    0.000000    0.056818    0.033210   -0.028409
      ----------------------------------------------------------- 
     |                   =====================                   |
     |                        A N C O P T                        |
     |                   =====================                   |
     |               Approximate Normal Coordinate               |
     |                Rational Function Optimizer                |
      ----------------------------------------------------------- 
 6    0.000000    0.028409    0.050491   -0.014205
      ----------------------------------------------------------- 
     |                   =====================                   |
     |                        A N C O P T                        |
     |                   =====================                   |
     |               Approximate Normal Coordinate               |
     |                Rational Function Optimizer                |
      ----------------------------------------------------------- 
 7    0.000000    0.014205    0.072999   -0.007102
      ----------------------------------------------------------- 
     |                   =====================                   |
     |                        A N C O P T                        |
     |                   =====================                   |
     |               Approximate Normal Coordinate               |
     |                Rational Function Optimizer                |
      ----------------------------------------------------------- 
 8    0.000000    0.007102    0.096934   -0.003551
      ----------------------------------------------------------- 
     |                   =====================                   |
     |                        A N C O P T                        |
     |                   =====================                   |
     |               Approximate Normal Coordinate               |
     |                Rational Function Optimizer                |
      ----------------------------------------------------------- 
 9    0.000000    0.003551    0.114325   -0.001776
      ----------------------------------------------------------- 
     |                   =====================                   |
     |                        A N C O P T                        |
     |                   =====================                   |
     |               Approximate Normal Coordinate               |
     |                Rational Function Optimizer                |
      ----------------------------------------------------------- 
10    0.001776    0.003551    0.105233   -0.002663
final kpush: -0.002663
           -------------------------------------------------
          |            Biased Numerical Hessian             |
           -------------------------------------------------
kpush                :  -0.00266
alpha                :   1.00000
step length          :   0.00500
SCC accuracy         :   0.30000
Hessian scale factor :   1.00000
frozen atoms in %    :   0.00000    0
RMS gradient         :   0.00005
estimated CPU  time      0.02 min
estimated wall time      0.02 min

writing file <hessian>.

 projected vibrational frequencies (cm⁻¹)
eigval :       -0.00    -0.00    -0.00     0.00     0.00     0.00
eigval :       35.52    39.30    84.79   121.74   159.01   184.66
eigval :      222.89   261.27   353.84   387.95   415.12   598.42
eigval :      685.87   815.70   823.68   877.86   908.35   928.59
eigval :      966.45  1051.19  1074.74  1082.15  1112.32  1120.36
eigval :     1137.78  1184.96  1217.05  1236.12  1244.92  1298.85
eigval :     1320.59  1331.98  1395.21  1415.07  1433.65  1462.88
eigval :     1465.38  1477.87  1480.21  1495.29  1503.22  1695.51
eigval :     2924.78  2946.45  2985.13  2994.09  2998.94  3011.37
eigval :     3022.06  3036.79  3044.82  3055.09  3058.79  3063.91
           -------------------------------------------------
          |                Property Printout                |
           -------------------------------------------------

    * Orbital Energies and Occupations

         #    Occupation            Energy/Eh            Energy/eV
      -------------------------------------------------------------
         1        2.0000           -0.7498231             -20.4037
       ...           ...                  ...                  ...
        12        2.0000           -0.5287625             -14.3884
        13        2.0000           -0.5114699             -13.9178
        14        2.0000           -0.5025548             -13.6752
        15        2.0000           -0.4946122             -13.4591
        16        2.0000           -0.4819000             -13.1132
        17        2.0000           -0.4758710             -12.9491
        18        2.0000           -0.4720571             -12.8453
        19        2.0000           -0.4636228             -12.6158
        20        2.0000           -0.4523769             -12.3098
        21        2.0000           -0.4479814             -12.1902
        22        2.0000           -0.4399314             -11.9711
        23        2.0000           -0.4355472             -11.8518
        24        2.0000           -0.4188165             -11.3966 (HOMO)
        25                         -0.2392761              -6.5110 (LUMO)
        26                         -0.0040439              -0.1100
        27                          0.0946546               2.5757
        28                          0.1063952               2.8952
        29                          0.1222667               3.3270
        30                          0.1270072               3.4560
        31                          0.1446216               3.9354
        32                          0.1505374               4.0963
        33                          0.1569392               4.2705
        34                          0.1705912               4.6420
        35                          0.1818859               4.9494
       ...                                ...                  ...
        44                          0.6093671              16.5817
      -------------------------------------------------------------
                  HL-Gap            0.1795404 Eh            4.8855 eV
             Fermi-level           -0.3290463 Eh           -8.9538 eV

     #   Z          covCN         q      C6AA      α(0)
     1   6 C        3.752    -0.112    22.694     6.794
     2   6 C        3.802    -0.058    21.610     6.618
     3   6 C        3.804    -0.100    22.414     6.740
     4   6 C        2.716     0.366    20.790     7.464
     5   8 O        0.856    -0.493    23.631     6.517
     6   8 O        1.704    -0.266    18.415     5.794
     7   6 C        3.696     0.078    19.438     6.307
     8   6 C        3.751    -0.134    23.131     6.859
     9   1 H        0.925     0.045     2.382     2.414
    10   1 H        0.925     0.026     2.639     2.540
    11   1 H        0.925     0.051     2.312     2.378
    12   1 H        0.924     0.052     2.295     2.369
    13   1 H        0.924     0.061     2.189     2.314
    14   1 H        0.925     0.085     1.928     2.171
    15   1 H        0.925     0.074     2.043     2.235
    16   1 H        0.924     0.055     2.253     2.347
    17   1 H        0.924     0.055     2.260     2.351
    18   1 H        0.925     0.069     2.097     2.265
    19   1 H        0.925     0.072     2.062     2.245
    20   1 H        0.925     0.073     2.055     2.242

 Mol. C6AA /au·bohr⁶  :       2998.767233
 Mol. C8AA /au·bohr⁸  :      63847.479406
 Mol. α(0) /au        :         80.963726


Wiberg/Mayer (AO) data.
largest (>0.10) Wiberg bond orders for each atom

 ---------------------------------------------------------------------------
     #   Z sym  total        # sym  WBO       # sym  WBO       # sym  WBO
 ---------------------------------------------------------------------------
     1   6 C    3.996 --     2 C    1.022    10 H    0.988     9 H    0.987
                            11 H    0.986
     2   6 C    3.991 --     1 C    1.022     3 C    0.981    12 H    0.977
                            13 H    0.975
     3   6 C    3.988 --     2 C    0.981     4 C    0.978    15 H    0.972
                            14 H    0.956
     4   6 C    3.902 --     5 O    1.691     6 O    1.171     3 C    0.978
     5   8 O    1.967 --     4 C    1.691     6 O    0.171
     6   8 O    2.320 --     4 C    1.171     7 C    0.920     5 O    0.171
     7   6 C    3.915 --     8 C    1.019    17 H    0.969    16 H    0.968
                             6 O    0.920
     8   6 C    3.985 --     7 C    1.019    18 H    0.984    19 H    0.983
                            20 H    0.980
     9   1 H    0.998 --     1 C    0.987
    10   1 H    0.999 --     1 C    0.988
    11   1 H    0.997 --     1 C    0.986
    12   1 H    0.997 --     2 C    0.977
    13   1 H    0.996 --     2 C    0.975
    14   1 H    0.993 --     3 C    0.956
    15   1 H    0.994 --     3 C    0.972
    16   1 H    0.997 --     7 C    0.968
    17   1 H    0.997 --     7 C    0.969
    18   1 H    0.995 --     8 C    0.984
    19   1 H    0.995 --     8 C    0.983
    20   1 H    0.994 --     8 C    0.980
 ---------------------------------------------------------------------------

Topologies differ in total number of bonds
Writing topology from bond orders to xtbtopo.mol

molecular dipole:
                 x           y           z       tot (Debye)
 q only:        0.241      -0.728       1.150
   full:        0.241      -0.674       1.094       3.324
molecular quadrupole (traceless):
                xx          xy          yy          xz          yz          zz
 q only:        9.654      -2.133      -3.602      -1.195       3.860      -6.052
  q+dip:        8.237      -1.569      -2.061      -1.572       4.862      -6.177
   full:        8.439      -1.357      -2.025      -1.430       5.184      -6.414

           -------------------------------------------------
          |                Geometry Summary                 |
           -------------------------------------------------

      molecular mass/u    :      116.1585142
   center of mass at/Å    :       -0.0050181       0.0104284      -0.0060717
  moments of inertia/u·Å² :        0.1433834E+03   0.4620416E+03   0.5063538E+03
rotational constants/cm⁻¹ :        0.1175703E+00   0.3648510E-01   0.3329220E-01

 * 18 selected distances

     #   Z          #   Z                                           value/Å
     1   6 C        2   6 C                                       1.5238079
     2   6 C        3   6 C                                       1.5352239 (max)
     4   6 C        5   8 O                                       1.2148005
     4   6 C        6   8 O                                       1.3251768
     6   8 O        7   6 C                                       1.4370711
     7   6 C        8   6 C                                       1.5163969
     1   6 C        9   1 H                                       1.0874398
     1   6 C       10   1 H                                       1.0885417
     1   6 C       11   1 H                                       1.0867128
     2   6 C       12   1 H                                       1.0909591
     2   6 C       13   1 H                                       1.0904990
     3   6 C       14   1 H                                       1.0899135
     3   6 C       15   1 H                                       1.0897583
     7   6 C       16   1 H                                       1.0950612
     7   6 C       17   1 H                                       1.0951429
     8   6 C       18   1 H                                       1.0859975
     8   6 C       19   1 H                                       1.0858229
     8   6 C       20   1 H                                       1.0850141 (min)

 * 3 distinct bonds (by element types)

   Z      Z             #   av. dist./Å        max./Å        min./Å
   1 H    6 C          12     1.0892386     1.0951429     1.0850141
   6 C    6 C           3     1.5251429     1.5352239     1.5163969
   6 C    8 O           3     1.3256828     1.4370711     1.2148005

           -------------------------------------------------
          |               Frequency Printout                |
           -------------------------------------------------
 projected vibrational frequencies (cm⁻¹)
eigval :       -0.00    -0.00    -0.00     0.00     0.00     0.00
eigval :       35.52    39.30    84.79   121.74   159.01   184.66
eigval :      222.89   261.27   353.84   387.95   415.12   598.42
eigval :      685.87   815.70   823.68   877.86   908.35   928.59
eigval :      966.45  1051.19  1074.74  1082.15  1112.32  1120.36
eigval :     1137.78  1184.96  1217.05  1236.12  1244.92  1298.85
eigval :     1320.59  1331.98  1395.21  1415.07  1433.65  1462.88
eigval :     1465.38  1477.87  1480.21  1495.29  1503.22  1695.51
eigval :     2924.78  2946.45  2985.13  2994.09  2998.94  3011.37
eigval :     3022.06  3036.79  3044.82  3055.09  3058.79  3063.91
 reduced masses (amu)
   1: 10.51   2: 12.25   3: 11.89   4: 10.35   5: 10.76   6: 11.37   7: 12.73   8:  8.45
   9:  8.49  10:  6.55  11:  9.98  12:  4.48  13:  4.55  14:  7.86  15: 10.40  16:  8.29
  17: 10.04  18: 11.63  19:  9.97  20:  3.30  21:  3.40  22:  7.71  23:  9.39  24:  5.67
  25:  9.57  26:  5.98  27:  9.82  28:  4.81  29:  8.44  30:  8.30  31:  5.27  32:  5.66
  33:  9.16  34:  2.57  35:  3.77  36:  4.11  37:  3.87  38:  4.50  39:  3.32  40:  3.14
  41:  2.15  42:  1.52  43:  1.87  44:  1.94  45:  1.57  46:  1.51  47:  1.58  48: 13.31
  49:  1.98  50:  1.46  51:  1.96  52:  1.61  53:  1.57  54:  1.82  55:  1.89  56:  1.85
  57:  1.41  58:  1.90  59:  1.45  60:  1.82
 IR intensities (km·mol⁻¹)
   1:  0.99   2:  1.63   3:  0.15   4:  0.93   5:  0.01   6:  0.40   7:  2.74   8:  0.06
   9:  0.17  10:  1.73  11:  6.31  12:  2.53  13:  1.34  14:  5.67  15: 13.69  16:  2.47
  17:  2.74  18: 10.92  19: 22.67  20: 13.16  21: 10.75  22:  7.60  23:  9.63  24:  2.82
  25:  2.46  26: 27.62  27:130.03  28: 10.29  29: 17.25  30: 49.47  31: 16.92  32: 55.19
  33:368.70  34: 18.73  35: 20.18  36: 11.65  37:  5.38  38:  7.69  39:  8.41  40:  1.52
  41:  7.16  42:  5.24  43:  0.54  44:  0.49  45:  3.85  46:  2.43  47:  0.57  48:675.48
  49: 40.71  50: 39.18  51: 28.58  52: 13.00  53: 31.18  54: 37.05  55: 92.14  56: 71.19
  57: 37.29  58: 30.00  59: 20.18  60: 23.23
 Raman intensities (Ä⁴*amu⁻¹)
   1:  0.00   2:  0.00   3:  0.00   4:  0.00   5:  0.00   6:  0.00   7:  0.00   8:  0.00
   9:  0.00  10:  0.00  11:  0.00  12:  0.00  13:  0.00  14:  0.00  15:  0.00  16:  0.00
  17:  0.00  18:  0.00  19:  0.00  20:  0.00  21:  0.00  22:  0.00  23:  0.00  24:  0.00
  25:  0.00  26:  0.00  27:  0.00  28:  0.00  29:  0.00  30:  0.00  31:  0.00  32:  0.00
  33:  0.00  34:  0.00  35:  0.00  36:  0.00  37:  0.00  38:  0.00  39:  0.00  40:  0.00
  41:  0.00  42:  0.00  43:  0.00  44:  0.00  45:  0.00  46:  0.00  47:  0.00  48:  0.00
  49:  0.00  50:  0.00  51:  0.00  52:  0.00  53:  0.00  54:  0.00  55:  0.00  56:  0.00
  57:  0.00  58:  0.00  59:  0.00  60:  0.00
 output can be read by thermo (or use thermo option).
 writing <g98.out> molden fake output.
 recommended (thermochemical) frequency scaling factor: 1.0
           -------------------------------------------------
          |             Thermodynamic Functions             |
           -------------------------------------------------

Molecule has no symmetry elements
It seems to be the C1 point group
c1  symmetry found (for desy threshold:  0.10E+00) used in thermo

          ...................................................
          :                      SETUP                      :
          :.................................................:
          :  # frequencies                          54      :
          :  # imaginary freq.                       0      :
          :  linear?                             false      :
          :  only rotor calc.                    false      :
          :  symmetry                               c1      :
          :  rotational number                       1      :
          :  scaling factor                  1.0000000      :
          :  rotor cutoff                    0.0000000 cm⁻¹ :
          :  imag. cutoff                 -100.0000000 cm⁻¹ :
          :.................................................:

    mode    ω/cm⁻¹     T·S(HO)/kcal·mol⁻¹    T·S(FR)/kcal·mol⁻¹   T·S(vib)
   ------------------------------------------------------------------------
       1     35.52    -1.63815 (100.00%)    -1.15745 (  0.00%)    -1.63815
       2     39.30    -1.57836 (100.00%)    -1.12751 (  0.00%)    -1.57836
       3     84.79    -1.12607 (100.00%)    -0.89994 (  0.00%)    -1.12607
       4    121.74    -0.91607 (100.00%)    -0.79282 (  0.00%)    -0.91607
       5    159.01    -0.76371 (100.00%)    -0.71373 (  0.00%)    -0.76371
       6    184.66    -0.68000 (100.00%)    -0.66943 (  0.00%)    -0.68000
       7    222.89    -0.57707 (100.00%)    -0.61371 (  0.00%)    -0.57707
       8    261.27    -0.49293 (100.00%)    -0.56666 (  0.00%)    -0.49293
   ------------------------------------------------------------------------

   temp. (K)  partition function   enthalpy   heat capacity  entropy
                                   cal/mol     cal/K/mol   cal/K/mol   J/K/mol
 298.15  VIB  0.349E+04             4575.688     28.402     31.558
         ROT  0.442E+06              888.752      2.981     28.815
         INT  0.154E+10             5464.440     31.382     60.373
         TR   0.121E+28             1481.254      4.968     40.146
         TOT                        6945.6943    36.3506   100.5195   420.5736

       T/K    H(0)-H(T)+PV         H(T)/Eh          T*S/Eh         G(T)/Eh
   ------------------------------------------------------------------------
    298.15    0.110687E-01    0.182502E+00    0.477601E-01    0.134742E+00
   ------------------------------------------------------------------------

         :::::::::::::::::::::::::::::::::::::::::::::::::::::
         ::                  THERMODYNAMIC                  ::
         :::::::::::::::::::::::::::::::::::::::::::::::::::::
         :: total free energy         -26.990103326181 Eh   ::
         ::.................................................::
         :: total energy              -27.124845297670 Eh   ::
         :: zero point energy           0.171433361250 Eh   ::
         :: G(RRHO) w/o ZPVE           -0.036691389761 Eh   ::
         :: G(RRHO) contrib.            0.134741971489 Eh   ::
         :::::::::::::::::::::::::::::::::::::::::::::::::::::

optimized geometry written to: xtbopt.coord


           -------------------------------------------------
          | TOTAL ENERGY              -27.124845297670 Eh   |
          | TOTAL ENTHALPY            -26.942343267975 Eh   |
          | TOTAL FREE ENERGY         -26.990103326181 Eh   |
          | GRADIENT NORM               0.000054038247 Eh/α |
          | HOMO-LUMO GAP               4.885542312603 eV   |
           -------------------------------------------------

------------------------------------------------------------------------
 * finished run on 2025/04/11 at 16:44:12.788     
------------------------------------------------------------------------
 total:
 * wall-time:     0 d,  0 h,  0 min,  3.550 sec
 *  cpu-time:     0 d,  0 h,  0 min,  3.267 sec
 * ratio c/w:     0.920 speedup
 SCF:
 * wall-time:     0 d,  0 h,  0 min,  0.058 sec
 *  cpu-time:     0 d,  0 h,  0 min,  0.014 sec
 * ratio c/w:     0.249 speedup
 analytical hessian:
 * wall-time:     0 d,  0 h,  0 min,  1.242 sec
 *  cpu-time:     0 d,  0 h,  0 min,  1.224 sec
 * ratio c/w:     0.986 speedup

