20
 energy: -27.122942653003 gnorm: 0.038482772064 xtb: 6.7.1 (edcfbbe)
C           -2.57080931806590       -1.05273240443158       -0.59757630733243
C           -2.16270653332381       -0.48620164773892        0.75964318464756
C           -1.36905067806197        0.83066090782239        0.65396626250440
C           -0.14151732823644        0.66113689855849       -0.19436468552831
O           -0.04872118208488        1.00656525251781       -1.36545501014172
O            0.85451943938884        0.04345399627048        0.47138284137434
C            2.08225440740563       -0.19318451576365       -0.28783164858770
C            3.11264304719452       -0.74467378163133        0.67079289905982
H           -3.14511794291772       -0.31812627538235       -1.17610654996421
H           -1.69572487324582       -1.34085780121196       -1.19366457658781
H           -3.19311937467622       -1.94390083182663       -0.46841374910021
H           -1.56914627458638       -1.22215361683221        1.31286453282762
H           -3.05561717719694       -0.27800884030983        1.35773142482604
H           -1.07461605948332        1.16175739216125        1.65394859028832
H           -1.98563391239852        1.60228446600776        0.18662295191782
H            1.85428488864070       -0.89848122758624       -1.09507400542599
H            2.40418328308308        0.75737901341180       -0.72601032676321
H            3.34847432194268       -0.01932225211412        1.45718715041522
H            2.76730625542276       -1.67599114565126        1.13262870792278
H            4.02794930415125       -0.95825750528379        0.11196372744297
20
 energy: -27.124317752930 gnorm: 0.013309586907 xtb: 6.7.1 (edcfbbe)
C           -2.57012271531937       -1.04758442885113       -0.59213360641982
C           -2.15893077063625       -0.48733460868762        0.76198356003406
C           -1.36922992666362        0.82731091585915        0.64525372043514
C           -0.14198176916103        0.64843082718618       -0.20298536978679
O           -0.04031178304080        1.00393789469302       -1.36011369277913
O            0.84991984854748        0.04571560992312        0.45706813498600
C            2.07635730447614       -0.19307042126629       -0.27989170310338
C            3.11517586925717       -0.74562894084115        0.67104489609610
H           -3.14069321302596       -0.31226921899001       -1.15876023565254
H           -1.69722962629249       -1.32067072823688       -1.18586715573008
H           -3.18559509569480       -1.93660239766959       -0.46270711216022
H           -1.55262908544924       -1.22199487962164        1.29721946618572
H           -3.05192663286689       -0.28753948180048        1.35824920840417
H           -1.06658257394189        1.15038666129545        1.64217623539314
H           -1.98972428525076        1.59492062813709        0.17994413443076
H            1.84899486779829       -0.89523647062305       -1.08731777341697
H            2.39182150598543        0.75546028539830       -0.72373672074656
H            3.33441640284675       -0.02438482575708        1.45541741218867
H            2.75895796347076       -1.66539900098183        1.12995172510295
H            4.02914800791261       -0.95710133817943        0.11944029033407
20
 energy: -27.124549781224 gnorm: 0.005397182050 xtb: 6.7.1 (edcfbbe)
C           -2.56883330634280       -1.04500250430501       -0.59030056268704
C           -2.14915575397501       -0.49145868975489        0.76460645260203
C           -1.36645115492165        0.82552551647581        0.64211338749016
C           -0.13612611802957        0.65248746230810       -0.20613120176379
O           -0.03529376723630        1.00329218240709       -1.36277354549755
O            0.84756874222593        0.04782220202215        0.44835956264015
C            2.06847874734459       -0.19397966605665       -0.27923816578592
C            3.10640130364682       -0.74575539288535        0.67587182326585
H           -3.14347841794158       -0.30763840376058       -1.14469127022612
H           -1.69898010283758       -1.30679886484414       -1.18887367636468
H           -3.17829989443565       -1.93518525405668       -0.46182423110829
H           -1.53217947628548       -1.22410264473855        1.28749224431469
H           -3.03825736662101       -0.29970593873191        1.36670077867620
H           -1.05956949354444        1.15048647892070        1.63553695256364
H           -1.99131747785189        1.58670431910055        0.17478326833052
H            1.84631465319899       -0.89654079249098       -1.08810391079627
H            2.38743756964147        0.75218153587644       -0.72697994362816
H            3.31741175161297       -0.02471695984841        1.45907765599660
H            2.74517633689945       -1.66198234400663        1.13148054141596
H            4.01898751840429       -0.95428616064493        0.12712925435733
20
 energy: -27.124628200010 gnorm: 0.002772263073 xtb: 6.7.1 (edcfbbe)
C           -2.56902619922473       -1.04302283028064       -0.58936646333280
C           -2.13921931639044       -0.49501084629666        0.76601778889067
C           -1.36496044116982        0.82617189026689        0.64053800941950
C           -0.13622631825206        0.65053020968720       -0.21197618694471
O           -0.03475544586284        1.00860491964214       -1.36759920740715
O            0.84504423593025        0.04713194396111        0.44119227788165
C            2.06422581531710       -0.19438744849725       -0.28038205968548
C            3.09849388216981       -0.74555956012759        0.68102150433912
H           -3.15233267536816       -0.30389957962702       -1.13219096878931
H           -1.70266942534002       -1.29522257171710       -1.19697983068378
H           -3.17229901024045       -1.93698738298062       -0.46112607762794
H           -1.51285253083194       -1.22691477329784        1.27832904281515
H           -3.02273676156681       -0.31067434229895        1.37792087122991
H           -1.05363678877633        1.15385584755595        1.63149337519093
H           -1.99322666853008        1.58386390089483        0.17296424655085
H            1.84835149339306       -0.89913573498875       -1.09000169674307
H            2.38798080980180        0.74960836991075       -0.73117884713740
H            3.30261628954402       -0.02349777339407        1.46493490312469
H            2.73384623450871       -1.66157029307026        1.13389423256639
H            4.01321711384050       -0.95253786435598        0.13673050013810
20
 energy: -27.124680064369 gnorm: 0.002857157656 xtb: 6.7.1 (edcfbbe)
C           -2.56963492433021       -1.04153976004709       -0.58793817190984
C           -2.12971525870020       -0.49821363566576        0.76696456923862
C           -1.36445157090433        0.82779029153701        0.63836120353918
C           -0.13567930493226        0.65566346046497       -0.21624194133855
O           -0.03601680480158        1.01720030309583       -1.37224874220328
O            0.84277416952045        0.04647398282048        0.43458040531159
C            2.06190031652891       -0.19638348343783       -0.28269959402684
C            3.09173277542671       -0.74639039307763        0.68545631261208
H           -3.16336817669005       -0.30211594784986       -1.12038153334572
H           -1.70708032782028       -1.28447172701291       -1.20586146146962
H           -3.16611082184673       -1.94052728793443       -0.45968687671088
H           -1.49409334044605       -1.22906598636727        1.26961512143747
H           -3.00800430009843       -0.32259634175111        1.38933590405840
H           -1.05154634618869        1.15990167234335        1.62747423048813
H           -1.99766909561278        1.58126532977928        0.17085589481139
H            1.85130017117001       -0.90301568089975       -1.09291665578754
H            2.39049421879396        0.74596339713335       -0.73478036929782
H            3.28883282488911       -0.02340781131374        1.47118979607178
H            2.72525897194561       -1.66358185779737        1.13574756234702
H            4.01091111704841       -0.95160244303338        0.14740975996976
20
 energy: -27.124716454093 gnorm: 0.002824005930 xtb: 6.7.1 (edcfbbe)
C           -2.57093825051996       -1.04069042197612       -0.58625252518210
C           -2.12250912424265       -0.50018034795467        0.76690779969783
C           -1.36446930009630        0.82955397961881        0.63601159257440
C           -0.13596586239520        0.66012082565235       -0.21970162865059
O           -0.03596178051223        1.02794698333602       -1.37412477457288
O            0.84066791522521        0.04456483892636        0.42937243372337
C            2.06157492784645       -0.19864148609592       -0.28496219702959
C            3.08727968089106       -0.74739937189098        0.68853717247039
H           -3.17409102471705       -0.30278098115700       -1.11096640594767
H           -1.71212585451654       -1.27597258762392       -1.21301318885164
H           -3.16098308025359       -1.94431653855313       -0.45738910624501
H           -1.47942880180977       -1.22973475958570        1.26206311340851
H           -2.99627419234407       -0.33145323188892        1.39787696155931
H           -1.05205258925705        1.16558858793606        1.62422800609512
H           -2.00183909783911        1.57960271763602        0.16850883124490
H            1.85419568929861       -0.90671135489605       -1.09498823438926
H            2.39255237522144        0.74302628091990       -0.73693482061872
H            3.27812098103585       -0.02456927767425        1.47661432434893
H            2.72102645893636       -1.66660746997298        1.13599517440039
H            4.01105522300012       -0.95000030376973        0.15645288575965
20
 energy: -27.124754268073 gnorm: 0.002255456226 xtb: 6.7.1 (edcfbbe)
C           -2.57295111336030       -1.04011325967694       -0.58387148242714
C           -2.11440298016724       -0.50233242605723        0.76647683468151
C           -1.36471780262055        0.83159190594175        0.63214957589556
C           -0.13558569722053        0.66652412980196       -0.22316842718967
O           -0.03258371325010        1.04346983017950       -1.37419369482715
O            0.83765364334782        0.04135195671543        0.42372256811298
C            2.06151317087444       -0.20187421576559       -0.28715830659858
C            3.08277174970834       -0.74891475294309        0.69166989221382
H           -3.18813663437695       -0.30515571626277       -1.09905311248871
H           -1.71908234190188       -1.26556676079518       -1.22127968831115
H           -3.15426163951290       -1.94945014560274       -0.45331612319880
H           -1.46224160689380       -1.22985992894556        1.25272198551606
H           -2.98269130775363       -0.34122077117322        1.40710933583638
H           -1.05431168533001        1.17240116260251        1.61957481648787
H           -2.00674263753235        1.57722303406260        0.16373897459262
H            1.85702353905234       -0.91128694931991       -1.09657400218904
H            2.39368559600335        0.73951820118736       -0.73839625861990
H            3.26550999661437       -0.02709941013971        1.48287746226085
H            2.71765457351472       -1.67088022795222        1.13490969435385
H            4.01173118375644       -0.94697957487082        0.16629536969398
20
 energy: -27.124793013141 gnorm: 0.001948336493 xtb: 6.7.1 (edcfbbe)
C           -2.57634260064360       -1.03994788271905       -0.58057032218059
C           -2.10367643114449       -0.50513851844050        0.76560120373153
C           -1.36504477308474        0.83423682339358        0.62610026159120
C           -0.13412844549451        0.67492284091621       -0.22722708347279
O           -0.02399116124297        1.06648115080678       -1.37232561218953
O            0.83308425717382        0.03599276727346        0.41678437399704
C            2.06104539393069       -0.20633818464975       -0.28925554977017
C            3.07717304977353       -0.75107331756261        0.69569948574918
H           -3.20896295982051       -0.30975157761126       -1.08160845077407
H           -1.72959157359977       -1.25052222705336       -1.23273948323784
H           -3.14429350659131       -1.95745724649470       -0.44703781753908
H           -1.43910931658900       -1.22954008934764        1.23969433485397
H           -2.96430979935477       -0.35355084904652        1.41882265726716
H           -1.05780351303297        1.18150865233324        1.61241088098984
H           -2.01270623534320        1.57357910108241        0.15527293778381
H            1.86012409239843       -0.91722741572941       -1.09788813053273
H            2.39352447232759        0.73509368758550       -0.73947808402390
H            3.24889533811666       -0.03114336510324        1.49104569435367
H            2.71388465670384       -1.67669892518210        1.13278421637583
H            4.01206334846889       -0.94207934346488        0.17814990082282
20
 energy: -27.124821611226 gnorm: 0.002555832297 xtb: 6.7.1 (edcfbbe)
C           -2.58297462628390       -1.04041404599476       -0.57495336634516
C           -2.08570198324642       -0.50980445158479        0.76389015408945
C           -1.36565683534568        0.83851557103468        0.61489637419483
C           -0.13003384599072        0.68898953506493       -0.23296624657329
O           -0.00464625570457        1.10742079655882       -1.36683034554559
O            0.82488539594993        0.02570927952494        0.40567102318580
C            2.05935935004827       -0.21370621918604       -0.29166756518919
C            3.06807829119131       -0.75487828091755        0.70247646210072
H           -3.24722211671829       -0.31975805862869       -1.04954828557944
H           -1.74933223164801       -1.22283583816327       -1.25295363085634
H           -3.12532503619946       -1.97282406007560       -0.43618677497381
H           -1.40053776310998       -1.22861271945708        1.21717217362351
H           -2.93283025725705       -0.37352713468469        1.43792455611116
H           -1.06404248368436        1.19705117814429        1.59902267722713
H           -2.02190286902841        1.56671711582955        0.13842590558159
H            1.86503499894520       -0.92657512330325       -1.09972474344897
H            2.39161481855031        0.72823362069784       -0.74025737512710
H            3.22226642905168       -0.03818690071693        1.50403522076331
H            2.70759917134616       -1.68604428815725        1.12957072377003
H            4.01120214208562       -0.93412389499898        0.19623847678671
20
 energy: -27.124830061109 gnorm: 0.001040224373 xtb: 6.7.1 (edcfbbe)
C           -2.58350255117580       -1.04093840551600       -0.57482936552839
C           -2.08620439892298       -0.50953687389027        0.76361106936496
C           -1.36573208695866        0.83831196173712        0.61453130549292
C           -0.12921219239860        0.68880592382460       -0.23211954192945
O           -0.00238253319588        1.10844911259471       -1.36502294993028
O            0.82479477323169        0.02497589867500        0.40585989398306
C            2.05914800127512       -0.21342408554650       -0.29119283355469
C            3.06845164030096       -0.75496106873782        0.70227588418582
H           -3.24820244271712       -0.32159780471554       -1.04831821301765
H           -1.75077101961397       -1.22205311385061       -1.25267916133749
H           -3.12421438684283       -1.97369266731020       -0.43653370884116
H           -1.40200369802208       -1.22826813742061        1.21705127902570
H           -2.93299186936146       -0.37248256140336        1.43697217223214
H           -1.06458778607105        1.19710922162081        1.59857081959933
H           -2.02121810009560        1.56637552275010        0.13723488896422
H            1.86527236156175       -0.92586638153095       -1.09981814249192
H            2.39109849842483        0.72887603582926       -0.73949580346945
H            3.22392270496145       -0.03819135272947        1.50315135672520
H            2.70769649011262       -1.68556888645462        1.13003497365138
H            4.01047288845924       -0.93497625693949        0.19495149067112
20
 energy: -27.124837497022 gnorm: 0.001072555808 xtb: 6.7.1 (edcfbbe)
C           -2.58557097876468       -1.04177377850856       -0.57431631787263
C           -2.08667543346517       -0.50920742340192        0.76317064431759
C           -1.36638395720298        0.83816264274380        0.61199218355568
C           -0.12705607983183        0.68890855950220       -0.23100122750003
O            0.00536830620757        1.11585774699313       -1.36036730054438
O            0.82328736275317        0.02017915361720        0.40509314045099
C            2.05875013521903       -0.21410135945147       -0.28998385473349
C            3.06935258165738       -0.75564420306868        0.70240790380003
H           -3.25871969860169       -0.32731125626242       -1.04125599632658
H           -1.75522458497349       -1.21392663527015       -1.25609321276139
H           -3.11717612346275       -1.97913566494778       -0.43504750587868
H           -1.40177592510984       -1.22712168763943        1.21545450984901
H           -2.93212947361341       -0.37168303676533        1.43708511319937
H           -1.06722519503957        1.19881136019334        1.59581556305637
H           -2.02033834847715        1.56526459763252        0.13169700700949
H            1.86742979915215       -0.92514540698359       -1.10060678953098
H            2.38924104044568        0.72975993695785       -0.73643766265616
H            3.22665848892623       -0.03853577354231        1.50223986214534
H            2.70828651231903       -1.68539214686126        1.13125893666134
H            4.00973586481396       -0.93661954395099        0.19313041755449
20
 energy: -27.124841473210 gnorm: 0.000605065216 xtb: 6.7.1 (edcfbbe)
C           -2.58707338441217       -1.04231185457006       -0.57383311581862
C           -2.08645375410729       -0.50902142318647        0.76297992088252
C           -1.36676123574070        0.83860628912900        0.61047370068166
C           -0.12588560356937        0.69000066992667       -0.23047764402709
O            0.00951790324381        1.12207311484100       -1.35773748227141
O            0.82201184070010        0.01611123769426        0.40424204941247
C            2.05881229117042       -0.21518234254639       -0.28965974896804
C            3.06975410304581       -0.75631483231220        0.70263442547759
H           -3.26737479169027       -0.33170888733719       -1.03691524935717
H           -1.75773181029139       -1.20706063347033       -1.25915986567502
H           -3.11153083837248       -1.98390634783371       -0.43423424761382
H           -1.40058415216963       -1.22654579120689        1.21498937947490
H           -2.93156144482854       -0.37157285581594        1.43774044088227
H           -1.06917755793259        1.20119452228066        1.59419508405023
H           -2.02037225841749        1.56479710499649        0.12803716700940
H            1.86955409488474       -0.92538956542792       -1.10148378250983
H            2.38800881562202        0.72995577000095       -0.73440177083723
H            3.22826042697471       -0.03869241991327        1.50193737481972
H            2.70869931815107       -1.68568807814745        1.13239557861734
H            4.00972233069087       -0.93799759611506        0.19251319956549
20
 energy: -27.124843358911 gnorm: 0.000151880707 xtb: 6.7.1 (edcfbbe)
C           -2.58695718470909       -1.04254617031526       -0.57366455708205
C           -2.08762264649092       -0.50845738803252        0.76327872941032
C           -1.36718322880731        0.83867191266765        0.61001818666916
C           -0.12555239034120        0.69012513107643       -0.22982069691415
O            0.01123409804838        1.12581385110951       -1.35559752181316
O            0.82112110597302        0.01275978767676        0.40365338394942
C            2.05896707281309       -0.21598949816235       -0.28966362884796
C            3.07045536679898       -0.75664928993061        0.70231383887581
H           -3.27206519408234       -0.33531002932068       -1.03510831401774
H           -1.75764724215248       -1.20183484409665       -1.26052571481327
H           -3.10589268385936       -1.98723138922142       -0.43482884778536
H           -1.40262902394467       -1.22623281399832        1.21695951000497
H           -2.93369752562985       -0.36989766498963        1.43725417468146
H           -1.07097115113917        1.20263750877476        1.59373656271950
H           -2.02025642397330        1.56456809983462        0.12608361063689
H            1.87152190261146       -0.92571225051464       -1.10226921983737
H            2.38681524899933        0.73022755842201       -0.73308709751703
H            3.23201757500469       -0.03781590934254        1.50017985074329
H            2.70869777267819       -1.68474891084935        1.13444767341108
H            4.00947884515419       -0.94103160980161        0.19087549132155
20
 energy: -27.124843760139 gnorm: 0.000127884541 xtb: 6.7.1 (edcfbbe)
C           -2.58613012436881       -1.04273500996237       -0.57371933221755
C           -2.08773072602907       -0.50829709183436        0.76338143469331
C           -1.36724570422536        0.83879638081218        0.61040375998690
C           -0.12572265602275        0.69045952724342       -0.22961414569782
O            0.01091368029076        1.12675005331533       -1.35514479479123
O            0.82085246061914        0.01244795837565        0.40338643771908
C            2.05869619517127       -0.21632678524097       -0.28996168774120
C            3.07019291612596       -0.75667626946447        0.70214664571571
H           -3.27164862532488       -0.33604830636701       -1.03544132123627
H           -1.75616168252802       -1.20077529418458       -1.26008532031646
H           -3.10404797662963       -1.98810684159167       -0.43545854372779
H           -1.40334537409970       -1.22598728129876        1.21812888941417
H           -2.93445593444684       -0.36945830797441        1.43646629178809
H           -1.07109073077912        1.20293296830193        1.59406728270309
H           -2.02042584220201        1.56461003868021        0.12647150789208
H            1.87132345504484       -0.92636192080878       -1.10226843188390
H            2.38641100541004        0.72978579220057       -0.73366104915517
H            3.23293223764003       -0.03710577738979        1.49908983578608
H            2.70773318672379       -1.68390959306304        1.13554462442816
H            4.00878453258199       -0.94264815876290        0.19050333043608
20
 energy: -27.124844232940 gnorm: 0.000148974282 xtb: 6.7.1 (edcfbbe)
C           -2.58438838127314       -1.04288060984360       -0.57384799455559
C           -2.08768553996539       -0.50814564698818        0.76374252508678
C           -1.36737070297074        0.83900062529722        0.61094991165280
C           -0.12611059996563        0.69102687256663       -0.22956265697303
O            0.01044567585911        1.12843063527118       -1.35468516526409
O            0.82026824293351        0.01212070458092        0.40274474935956
C            2.05805630471990       -0.21699750506244       -0.29060780419643
C            3.06941878552374       -0.75660661628123        0.70203534332802
H           -3.27018643959702       -0.33675490995101       -1.03604543862606
H           -1.75374009007097       -1.19992837951707       -1.25960256957455
H           -3.10149108272927       -1.98872752489397       -0.43630206180505
H           -1.40366336288673       -1.22560827304461        1.21948938798396
H           -2.93515423617041       -0.36927142034487        1.43592445968648
H           -1.07094964458704        1.20296730138914        1.59455920849133
H           -2.02081031754224        1.56484351926609        0.12746019423196
H            1.87067185741579       -0.92777616185467       -1.10225695635057
H            2.38572016760514        0.72874524647010       -0.73508223115952
H            3.23339430105795       -0.03573339587180        1.49754646708040
H            2.70584634696223       -1.68251487664469        1.13734521521227
H            4.00756300863281       -0.94484350355702        0.19043083018670
20
 energy: -27.124844608647 gnorm: 0.000101054416 xtb: 6.7.1 (edcfbbe)
C           -2.58259936750786       -1.04318825597966       -0.57405277797477
C           -2.08729553256254       -0.50795160810029        0.76388887232229
C           -1.36751820189128        0.83953264577134        0.61152305969680
C           -0.12641727396491        0.69201896942129       -0.22936397244570
O            0.01025411300308        1.13044861569909       -1.35403368786767
O            0.81951963763421        0.01190910806804        0.40218019812319
C            2.05713663162923       -0.21783982353701       -0.29123626754510
C            3.06843920450272       -0.75657837876736        0.70196080022954
H           -3.26841909697287       -0.33751528925534       -1.03686384996866
H           -1.75128488554804       -1.19977915094908       -1.25902731739677
H           -3.09921777921789       -1.98935083750122       -0.43686152080464
H           -1.40327104880270       -1.22501006480755        1.22022356847370
H           -2.93538271612380       -0.36947404292558        1.43533596493253
H           -1.07073476357974        1.20307513934601        1.59519154198483
H           -2.02125220164351        1.56547826032797        0.12860813727131
H            1.86955144796929       -0.92945990873620       -1.10212355852191
H            2.38478721184654        0.72742882292595       -0.73672422709694
H            3.23341072695714       -0.03434643629326        1.49603652318398
H            2.70394013007521       -1.68123964354167        1.13916788888503
H            4.00618805714935       -0.94681204017933        0.19040603831431
20
 energy: -27.124844869697 gnorm: 0.000112290442 xtb: 6.7.1 (edcfbbe)
C           -2.58092282259882       -1.04348576995906       -0.57426019967028
C           -2.08684076518203       -0.50777283314471        0.76397027758182
C           -1.36774428956119        0.84010182795238        0.61193623307575
C           -0.12668460120547        0.69305926490431       -0.22911314115885
O            0.01048647789076        1.13300858571301       -1.35317910074731
O            0.81866234098356        0.01156106838922        0.40174617509206
C            2.05612015872118       -0.21879106411677       -0.29172049172358
C            3.06754237312902       -0.75655251128295        0.70188226382432
H           -3.26671909864001       -0.33827286584585       -1.03775486928304
H           -1.74907575429337       -1.19998291436438       -1.25863319104522
H           -3.09724567890088       -1.98980762921617       -0.43708538555736
H           -1.40252002372481       -1.22425659523008        1.22067101666395
H           -2.93537575187511       -0.36984391976609        1.43490845711900
H           -1.07092810198229        1.20325446181543        1.59575029621499
H           -2.02171866597225        1.56611318505477        0.12948085215259
H            1.86829068305343       -0.93131060216232       -1.10176676654106
H            2.38367725338739        0.72598904161984       -0.73831329738801
H            3.23346157388929       -0.03308466718969        1.49461820774437
H            2.70249424575925       -1.68014514583026        1.14087113482187
H            4.00487474007396       -0.94843483635450        0.19022694261935
20
 energy: -27.124845043809 gnorm: 0.000068827031 xtb: 6.7.1 (edcfbbe)
C           -2.57948151312106       -1.04378671283454       -0.57443935084658
C           -2.08644283317999       -0.50760349299204        0.76401063541684
C           -1.36805480743744        0.84071243918979        0.61223893300937
C           -0.12680224262567        0.69421655354496       -0.22861412906421
O            0.01087899062554        1.13536657070650       -1.35208736133670
O            0.81786378846256        0.01117490129244        0.40155857834956
C            2.05512477014063       -0.21975364096584       -0.29201438910669
C            3.06691217327945       -0.75656148222993        0.70174031015627
H           -3.26507545992962       -0.33882564050213       -1.03860342774257
H           -1.74715483432681       -1.20046227937238       -1.25820165715191
H           -3.09575454175262       -1.99012977809486       -0.43730284394382
H           -1.40178559535881       -1.22362089050126        1.22092430540822
H           -2.93537306307221       -0.37024132714830        1.43456165666828
H           -1.07146813605557        1.20378949469458        1.59616978862014
H           -2.02224375009771        1.56659999498576        0.12986513150537
H            1.86703804274774       -0.93310520716275       -1.10127903568156
H            2.38250570887927        0.72459428724999       -0.73965335290143
H            3.23365786088797       -0.03205073202252        1.49337091714878
H            2.70165359987280       -1.67935899705514        1.14223535146879
H            4.00383613501314       -0.94960797979618        0.18975535381922
20
 energy: -27.124845182453 gnorm: 0.000110446881 xtb: 6.7.1 (edcfbbe)
C           -2.57820361825967       -1.04407751702642       -0.57459438771252
C           -2.08615289074951       -0.50742711101787        0.76403993708189
C           -1.36841199299364        0.84125071180988        0.61249586497416
C           -0.12690310534728        0.69516410070656       -0.22802460834718
O            0.01163356002365        1.13825145539738       -1.35068529345526
O            0.81701929016327        0.01044149776006        0.40145638147984
C            2.05412597993179       -0.22081497570491       -0.29225529698664