20
 energy: -27.121001291843 gnorm: 0.035078102345 xtb: 6.7.1 (edcfbbe)
C           -2.34927016498377       -1.37499680357186       -0.31870610436336
C           -2.54470997983719        0.08624416206630        0.07244934862575
C           -1.33421782531292        0.65251748624560        0.82788717227569
C           -0.10621386596878        0.64045358393438       -0.03866686041045
O           -0.03052652115090        1.18803223479404       -1.12835262964289
O            0.90903729216023       -0.05254860646529        0.50558805048175
C            2.14332232513892       -0.12051036043544       -0.27929063660766
C            3.11732992772040       -0.97109310687658        0.49486416323223
H           -1.48500595911840       -1.49726262554679       -0.98249231305532
H           -2.18276010564840       -1.99890126292958        0.56617067732480
H           -3.22748133406860       -1.76172415894295       -0.84452363278021
H           -3.42408593458997        0.18876869814075        0.71669016901645
H           -2.72809145689203        0.69574193913281       -0.81919731854777
H           -1.14962983592411        0.08675735827213        1.74445751636488
H           -1.51956885023133        1.69814967418602        1.10027777252749
H            1.90584646054343       -0.55414876563484       -1.25512435165398
H            2.51267528340659        0.89907863553088       -0.42432105822616
H            4.05522199626986       -1.03642826247062       -0.06447126410210
H            3.33158195874921       -0.53358418810837        1.47404989412448
H            2.72989315637545       -1.98427970370130        0.63477329233214
20
 energy: -27.122202150988 gnorm: 0.013239470316 xtb: 6.7.1 (edcfbbe)
C           -2.34748748532518       -1.37148211180090       -0.31350522311433
C           -2.54385526246896        0.08687402773823        0.07390728541931
C           -1.32985975174321        0.64599818138731        0.82550012946861
C           -0.10662404794552        0.63491313595012       -0.04921176826051
O           -0.02604719577421        1.18648854295952       -1.12850030494378
O            0.90264682787330       -0.04837419208635        0.49102237017927
C            2.13582820429214       -0.12171962317728       -0.27183464713178
C            3.12124580477828       -0.97286120355696        0.49561970681509
H           -1.48756762628941       -1.48146597140617       -0.97536271596335
H           -2.17970570761635       -1.98727013578113        0.56951011626386
H           -3.22528821711450       -1.74895111506714       -0.83537783923992
H           -3.42284057803339        0.18132549966051        0.71520773819146
H           -2.71246634257833        0.68824500526650       -0.82310088053989
H           -1.13228354505543        0.07028347198689        1.73040473627266
H           -1.52290638980679        1.68688838395914        1.09888709525730
H            1.89855854342831       -0.54941283272155       -1.24979791374355
H            2.50020477505975        0.89869655698332       -0.41850293566532
H            4.05451271280369       -1.03668420537111       -0.06083942903540
H            3.32137890214153       -0.53499402771603        1.47090494787860
H            2.72590294601197       -1.97623145958763        0.63713141880741
20
 energy: -27.122432127090 gnorm: 0.004241065859 xtb: 6.7.1 (edcfbbe)
C           -2.34521232415477       -1.37303698435963       -0.31122708375892
C           -2.53943760716346        0.08697148569397        0.07472687785655
C           -1.32437831456630        0.64230541640205        0.82661794109039
C           -0.10308868189045        0.63919748442573       -0.05395589701001
O           -0.02393308759844        1.18809323852765       -1.13312421353095
O            0.89893759218176       -0.04525290407135        0.48072340135462
C            2.12735180871704       -0.12074222094327       -0.27093279032087
C            3.11438721692687       -0.97338063279331        0.49932007368859
H           -1.48825631349462       -1.47916352300317       -0.97310911959776
H           -2.17562619396748       -1.98341555800722        0.57171193998986
H           -3.22384711830169       -1.74711277672475       -0.82893195858950
H           -3.41847425733945        0.18290121771958        0.71251064906356
H           -2.69756106752634        0.68558944841817       -0.82426792002555
H           -1.11609123310798        0.05623514827056        1.72100949601488
H           -1.52117462368452        1.67880516387949        1.10614370629446
H            1.89739832168976       -0.54602398786552       -1.25271178292872
H            2.49605816714842        0.89879094434134       -0.41825846121629
H            4.04382733354860       -1.03460514824704       -0.05687571073288
H            3.30768573891745       -0.53330600868402        1.47244940584763
H            2.71478121030333       -1.97258387536000        0.64024333342669
20
 energy: -27.122473420612 gnorm: 0.001923359559 xtb: 6.7.1 (edcfbbe)
C           -2.34436021284528       -1.37433110745940       -0.30966291108567
C           -2.53725498079158        0.08764463707680        0.07434000116411
C           -1.32195595064796        0.64043349482926        0.82769371590704
C           -0.10328823098608        0.63977826154575       -0.05813043438922
O           -0.02535114019561        1.19446196271210       -1.13543592986187
O            0.89803977374303       -0.04445468427162        0.47448003674299
C            2.12496105753838       -0.11884126599596       -0.27268874545088
C            3.10928123662010       -0.97303068702228        0.50169786750627
H           -1.48886395237847       -1.48153158447469       -0.97324798168053
H           -2.17302229970439       -1.98273111813220        0.57434297827171
H           -3.22447770167844       -1.74862243137000       -0.82457026115273
H           -3.41701656544710        0.18674311993240        0.71006065869448
H           -2.69111057524920        0.68556747088517       -0.82564338339789
H           -1.10836690679750        0.04732350381481        1.71593606586814
H           -1.51822436744325        1.67446899341741        1.11528145332467
H            1.90134785390450       -0.54438960068138       -1.25653740043027
H            2.49785042991337        0.89980164159410       -0.42042638126098
H            4.03948036827429       -1.03518909204394       -0.05232681065022
H            3.29899894514504       -0.53159721677489        1.47500229377495
H            2.70667978566385       -1.97123836996221        0.64189705502166
20
 energy: -27.122492911806 gnorm: 0.002558588494 xtb: 6.7.1 (edcfbbe)
C           -2.34404603921453       -1.37639973531266       -0.30689535261505
C           -2.53452824339798        0.08799030850203        0.07290801274224
C           -1.31928081833099        0.63757757066124        0.82849015689258
C           -0.10205638184874        0.64833690880714       -0.06070347220357
O           -0.02967311833914        1.20740916889091       -1.13729067528154
O            0.89887939152361       -0.04110621340335        0.46551866349777
C            2.12454990804942       -0.11627779641664       -0.27760399438906
C            3.10229819720887       -0.97294881867769        0.50435075542358
H           -1.49069796409380       -1.48724120454944       -0.97373070352230
H           -2.16946225526221       -1.98182991085352        0.57938184504239
H           -3.22672893687166       -1.75283295581120       -0.81698844449146
H           -3.41687187224393        0.19205323121691        0.70452086375609
H           -2.68311530015483        0.68472363972303       -0.82891311857002
H           -1.09964434227691        0.03446056418500        1.70849131125660
H           -1.51618752134765        1.66740382309191        1.13032391409301
H            1.90864074879408       -0.54234324497745       -1.26365914848572
H            2.50376474657565        0.90079269223712       -0.42519310761474
H            4.03627257199970       -1.03987683180455       -0.04348945146813
H            3.28696480507431       -0.52989755916488        1.47856865360715
H            2.69426899079442       -1.96972770872464        0.64397517924593
20
 energy: -27.122499021176 gnorm: 0.001432503438 xtb: 6.7.1 (edcfbbe)
C           -2.34498982112784       -1.37638344009202       -0.30640359548371
C           -2.53439870145890        0.08800871550053        0.07224054249114
C           -1.31931220137053        0.63690575073511        0.82826087449464
C           -0.10268850575987        0.64806228292183       -0.06125700684937
O           -0.02992583249579        1.21014292867196       -1.13591852968740
O            0.89939791645137       -0.04089922798991        0.46474566026799
C            2.12615761157447       -0.11566869562764       -0.27837500112604
C            3.10251664994472       -0.97273074032522        0.50419450965138
H           -1.49201441701119       -1.48859437577815       -0.97353373232247
H           -2.17013586639902       -1.98133305698913        0.58018041472085
H           -3.22796802967413       -1.75330654208199       -0.81570663038029
H           -3.41701001618335        0.19308623268260        0.70349425450155
H           -2.68261329959271        0.68441569905451       -0.82997917408622
H           -1.10031774214736        0.03298499858603        1.70787216534936
H           -1.51598411415855        1.66638918566826        1.13166521316462
H            1.90971413614618       -0.54189725468682       -1.26399460738952
H            2.50487264407838        0.90145452845602       -0.42551311411939
H            4.03743276198211       -1.04102735939683       -0.04213287883317
H            3.28678914853672       -0.53005819434389        1.47864946671097
H            2.69382424530296       -1.96928550734598        0.64357305584085
20
 energy: -27.122502391963 gnorm: 0.000878006236 xtb: 6.7.1 (edcfbbe)
C           -2.34737752180421       -1.37689030802585       -0.30506059611061
C           -2.53394131691369        0.08778723406956        0.07049071597935
C           -1.31903498087796        0.63498957903170        0.82758712777641
C           -0.10249890419759        0.64994102721473       -0.06107236948378
O           -0.02916277449106        1.21584805725360       -1.13282546007854
O            0.90040206009222       -0.04021220583868        0.46341580454381
C            2.12920558990613       -0.11453300198376       -0.27971315385460
C            3.10307152489375       -0.97249388617161        0.50366950982974
H           -1.49541051116232       -1.49226912665468       -0.97273514183698
H           -2.17243554511445       -1.98019720821457        0.58245100865652
H           -3.23131121177732       -1.75392614499376       -0.81237128946033
H           -3.41737337115095        0.19564931854853        0.70033318083449
H           -2.67997896184994        0.68320908149006       -0.83287336861634
H           -1.10112044155209        0.02911368797410        1.70613521627606
H           -1.51632086166450        1.66350631666267        1.13378456694029
H            1.91151509517488       -0.54020712895399       -1.26483418353243
H            2.50677644229806        0.90280792284201       -0.42514721358628
H            4.03941983538967       -1.04297161725396       -0.03994467942474
H            3.28622106222456       -0.53059143540728        1.47849989200186
H            2.69270135921452       -1.96829423396958        0.64227232006185
20
 energy: -27.122503641281 gnorm: 0.000300252614 xtb: 6.7.1 (edcfbbe)
C           -2.34809328354751       -1.37745900260385       -0.30465799605086
C           -2.53359618809229        0.08785716761876        0.06998446037529
C           -1.31866588045547        0.63455686325314        0.82763772780291
C           -0.10200805771407        0.65021462753232       -0.06107388644589
O           -0.02826417473775        1.21710658248364       -1.13250000769935
O            0.90021146339474       -0.04069395469442        0.46296473779980
C            2.12901748667150       -0.11416102119183       -0.27961988773159
C            3.10289940874990       -0.97246767616795        0.50371132530497
H           -1.49628678860830       -1.49377658983230       -0.97233727188172
H           -2.17353282036263       -1.98011186423951        0.58336234274886
H           -3.23246446687103       -1.75399926528823       -0.81154048839050
H           -3.41731965333859        0.19696986963441        0.69908836037141
H           -2.67816696515849        0.68289846440753       -0.83380592284606
H           -1.10024449781887        0.02768982950718        1.70538109423170
H           -1.51606439001777        1.66280053170602        1.13462833476783
H            1.91215738421585       -0.53913184772730       -1.26535134954883
H            2.50668087928007        0.90333274803308       -0.42429962140976
H            4.03910487410922       -1.04237237562139       -0.04003156445844
H            3.28561928763528       -0.53072747086188        1.47870580238720
H            2.69236294930392       -1.96825968832817        0.64181569758878
20
 energy: -27.122504668408 gnorm: 0.000216399131 xtb: 6.7.1 (edcfbbe)
C           -2.34990313780580       -1.37830896843871       -0.30384414117794
C           -2.53324924001666        0.08802972321022        0.06875042889404
C           -1.31844667533377        0.63377540013942        0.82756236816281
C           -0.10115356525162        0.65059728760021       -0.06039785886494
O           -0.02652855796451        1.21926277974559       -1.13101633938006
O            0.90010096498004       -0.04197034175155        0.46274638344825
C            2.12928141567749       -0.11360415523155       -0.27928668130772
C            3.10350426732186       -0.97237251137063        0.50330585710075
H           -1.49811962029475       -1.49699314648956       -0.97113237952852
H           -2.17670899634517       -1.97994145115088        0.58514781705756
H           -3.23489541025748       -1.75386454698027       -0.81037158506106
H           -3.41768145670077        0.19957963216863        0.69635135052650
H           -2.67522008785454        0.68223864570946       -0.83594795888396
H           -1.10014504331987        0.02589895189347        1.70456102484886
H           -1.51606563646252        1.66168198912369        1.13541079784570
H            1.91336116824517       -0.53715923351890       -1.26589126801093
H            2.50639707908876        0.90437725267806       -0.42226256034789
H            4.03956089880351       -1.04117601486328       -0.04075194865508
H            3.28600943209462       -0.53136433525931        1.47869565845648
H            2.69324876803372       -1.96842102959484        0.64043292179290
20
 energy: -27.122505343800 gnorm: 0.000301325665 xtb: 6.7.1 (edcfbbe)
C           -2.35186184654158       -1.37891769859641       -0.30298240976107
C           -2.53295551649639        0.08826942302001        0.06745377760667
C           -1.31840242454723        0.63295160512549        0.82748539774974
C           -0.10061070650218        0.65048163812876       -0.05981194252055
O           -0.02513269114409        1.22131980657718       -1.12927158994997
O            0.90008423222758       -0.04341515246838        0.46248110787265
C            2.12972804747355       -0.11309386523982       -0.27892130649118
C            3.10441818854960       -0.97217395685572        0.50278123304857
H           -1.49978618730686       -1.50007724408876       -0.96943292109791
H           -2.18043615645135       -1.97957125050534        0.58701287422356
H           -3.23718884579077       -1.75358271016720       -0.80959821026697
H           -3.41816404282282        0.20221203452045        0.69350621715376
H           -2.67241206056602        0.68159823246531       -0.83820032409488
H           -1.10070908943944        0.02417011337021        1.70400815177715
H           -1.51601624649135        1.66063656068496        1.13609462970294
H            1.91471273856028       -0.53536564627263       -1.26627485536782
H            2.50607313483056        0.90542374353254       -0.42024489916446
H            4.04042802462829       -1.03986880458718       -0.04151571070902
H            3.28685363196017       -0.53212832440978        1.47862659309355
H            2.69472438250776       -1.96860257661443        0.63886607411099
20
 energy: -27.122505822728 gnorm: 0.000161058074 xtb: 6.7.1 (edcfbbe)
C           -2.35348339471284       -1.37925222887360       -0.30221792420276
C           -2.53289144472803        0.08851266843689        0.06641887262533
C           -1.31849739950690        0.63221670940733        0.82735276171645
C           -0.10024245012176        0.65027578133065       -0.05924220981370
O           -0.02425984009976        1.22257190118552       -1.12782791589820
O            0.90017006282210       -0.04471253833084        0.46231873327677
C            2.13022899939806       -0.11271501403517       -0.27859204714149
C            3.10537547828364       -0.97200180891584        0.50223277052155
H           -1.50077609685049       -1.50254256330258       -0.96747126007090
H           -2.18411721696643       -1.97925358202316        0.58861289918263
H           -3.23875715124464       -1.75313618779323       -0.80950642307484
H           -3.41874541131278        0.20439726832704        0.69122482727909
H           -2.67041642138058        0.68117460933450       -0.83997430002551
H           -1.10164386325922        0.02298127448002        1.70376603851523
H           -1.51593708002913        1.65981462485857        1.13636950992766
H            1.91596845326348       -0.53392110996188       -1.26654128349975
H            2.50583554092031        0.90627533564214       -0.41849475294293
H            4.04146078432830       -1.03852681499274       -0.04214763091270
H            3.28766644107733       -0.53300268046482        1.47858035380445
H            2.69640857675708       -1.96888971668952        0.63720086764938
20
 energy: -27.122506113831 gnorm: 0.000048480520 xtb: 6.7.1 (edcfbbe)
C           -2.35489358799520       -1.37949569646709       -0.30156354776418
C           -2.53279849722912        0.08872533185887        0.06561996515316
C           -1.31852957365445        0.63160462764074        0.82728693221163
C           -0.10006555774710        0.64989490170838       -0.05894402244297
O           -0.02371878152698        1.22341878892705       -1.12680515519196
O            0.90029776589136       -0.04567857490494        0.46214597443534
C            2.13067998519717       -0.11235342697222       -0.27837959955281
C            3.10615407980764       -0.97182815948383        0.50176741012505
H           -1.50120361123309       -1.50451903971775       -0.96522556195868
H           -2.18784340271560       -1.97899550819705        0.59004588821398
H           -3.23980152592830       -1.75266354368245       -0.81004242832729
H           -3.41916510152596        0.20615472539335        0.68943147610080
H           -2.66879179206328        0.68085025949763       -0.84138207778764
H           -1.10236701715118        0.02190843847742        1.70357496777292
H           -1.51563935078026        1.65917196081191        1.13671591276845
H            1.91698535930545       -0.53271750416874       -1.26678849320289
H            2.50570383313173        0.90699995007265       -0.41715946161841
H            4.04245008005867       -1.03721385654731       -0.04243911978257
H            3.28802757976437       -0.53384538697563        1.47864314074032
H            2.69786568303185       -1.96915235965173        0.63555968702351
20
 energy: -27.122506307449 gnorm: 0.000097074545 xtb: 6.7.1 (edcfbbe)
C           -2.35592676118096       -1.37966174493969       -0.30097188753256
C           -2.53279460423883        0.08893051951324        0.06506419189245
C           -1.31852468708210        0.63105632695278        0.82721744470764
C           -0.09988929543739        0.64961175886496       -0.05873571647757
O           -0.02338475262804        1.22372530987469       -1.12622726838699
O            0.90047998697163       -0.04625140482386        0.46206343775702
C            2.13105025501039       -0.11201067842055       -0.27824347552183
C            3.10672554484536       -0.97170616075228        0.50137768979001
H           -1.50108597873203       -1.50619130660141       -0.96286836222731
H           -2.19145359260986       -1.97892184108644        0.59127473449247
H           -3.24029279119599       -1.75198051664925       -0.81100187157258
H           -3.41954020344912        0.20761242753497        0.68811724676892
H           -2.66754218430572        0.68064907970571       -0.84240378832160
H           -1.10280433561318        0.02099459201652        1.70336152400211
H           -1.51541194058105        1.65856758098933        1.13699849357628
H            1.91770097722367       -0.53170352472795       -1.26699881407814
H            2.50571573061842        0.90758772643014       -0.41617909840778
H            4.04328671305859       -1.03594093728972       -0.04252613293945
H            3.28798342169067       -0.53465753363746        1.47878100848050
H            2.69905506427327       -1.96944374533447        0.63396253091415
20
 energy: -27.122506496582 gnorm: 0.000128463456 xtb: 6.7.1 (edcfbbe)
C           -2.35719609272330       -1.37993008546601       -0.30030284967606
C           -2.53265484490580        0.08911855918381        0.06449047683957
C           -1.31841429263324        0.63048457683992        0.82721617452867
C           -0.09968017328388        0.64938595073978       -0.05857175223436
O           -0.02316321601755        1.22384728141876       -1.12586552048951
O            0.90078365563925       -0.04652860723867        0.46204117377173
C            2.13147978489539       -0.11152459896438       -0.27814909914008
C            3.10725661029868       -0.97156968399906        0.50094235993547
H           -1.50063918073839       -1.50814134318375       -0.95964775795277
H           -2.19622374917501       -1.97895492528718        0.59274381769689
H           -3.24068439341970       -1.75114865952974       -0.81268031051669
H           -3.41982336017274        0.20919956184685        0.68666609123654
H           -2.66600008111731        0.68036198252157       -0.84350022906780
H           -1.10302469840261        0.01986927880664        1.70305096384571
H           -1.51500839704044        1.65788720138307        1.13757344123111
H            1.91836296465105       -0.53049223301636       -1.26725720141029
H            2.50594050169950        0.90825976130943       -0.41524320669406
H            4.04423732840610       -1.03437457210829       -0.04241362624162
H            3.28753368986760       -0.53568854353042        1.47904505128243
H            2.70026451081013       -1.96979497410669        0.63192388997088
20
 energy: -27.122506596833 gnorm: 0.000075567929 xtb: 6.7.1 (edcfbbe)
C           -2.35811644558521       -1.38013566157158       -0.29968851213683
C           -2.53257814718225        0.08931533757158        0.06407017325993
C           -1.31826654042492        0.62991014091062        0.82723379113704
C           -0.09952450590716        0.64915550884519       -0.05856433911564
O           -0.02313835175924        1.22367325993419       -1.12586286078061
O            0.90114978146384       -0.04637688259719        0.46209748916589
C            2.13186062882094       -0.11099073591551       -0.27810799600357
C            3.10756980518820       -0.97146836222661        0.50060692106742
H           -1.49996775790592       -1.50986216907089       -0.95666992008987
H           -2.20050091835901       -1.97907895683550        0.59400934735259
H           -3.24075807230223       -1.75021667693594       -0.81432867959176
H           -3.42008855578444        0.21060745944748        0.68552649096250
H           -2.66464906704009        0.68017409135152       -0.84436936783262
H           -1.10294659229226        0.01871332477632        1.70267849053043
H           -1.51468557449363        1.65715083491488        1.13822638617895
H            1.91874776689713       -0.52940630462626       -1.26745743838015
H            2.50635559760495        0.90885812850835       -0.41463804780972
H            4.04495400337091       -1.03306723981003       -0.04216950354708
H            3.28687390144585       -0.53661262980635        1.47934187071540
H            2.70105561088226       -1.97007653924499        0.63012759183345
20
 energy: -27.122506552308 gnorm: 0.000102297232 xtb: 6.7.1 (edcfbbe)
C           -2.35874716599271       -1.38026492036395       -0.29920808567287
C           -2.53254778052769        0.08948467814580        0.06375226185486
C           -1.31816807625490        0.62946029519126        0.82724536643369
C           -0.09942936438061        0.64894568196180       -0.05857465515168
O           -0.02309784493312        1.22362455071013       -1.12581383905351
O            0.90139573400839       -0.04633441454843        0.46209893133324
C            2.13212752968315       -0.11062344129576       -0.27810187942079
C            3.10779997513445       -0.97138521405521        0.50035744864959
H           -1.49939802934947       -1.51115179045443       -0.95441296557522
H           -2.20368363623304       -1.97915907442760        0.59498037818172
H           -3.24074687089281       -1.74948438010539       -0.81555527539198
H           -3.42031942258269        0.21168494181535        0.68467298607480
H           -2.66364719176244        0.68005858418604       -0.84503261699947
H           -1.10290858825412        0.01782578787986        1.70240267424688
H           -1.51445806072477        1.65658098998508        1.13871007219752
H            1.91904389939754       -0.52864962016786       -1.26762693344293
H            2.50660957023599        0.90928596666275       -0.41422071047166
H            4.04549669977573       -1.03206292470386       -0.04196884954698
H            3.28635193895240       -0.53727956956975        1.47956190715396
H            2.70167325133844       -1.97029019922658        0.62879567151658
20
 energy: -27.122506629340 gnorm: 0.000044016879 xtb: 6.7.1 (edcfbbe)
C           -2.35828272979748       -1.38019361771470       -0.29964816862827
C           -2.53251333071893        0.08931602687972        0.06406412775387
C           -1.31819471095543        0.62985633685740        0.82727404633068
C           -0.09947744517893        0.64916677905377       -0.05857211745091
O           -0.02329789422546        1.22321339977989       -1.12614158265201
O            0.90130651983241       -0.04600602677095        0.46227127154908
C            2.13193226068131       -0.11081719893643       -0.27807461447961
C            3.10755358225716       -0.97146832349178        0.50056735720537
H           -1.49981750169489       -1.51004652196878       -0.95616025423301
H           -2.20125806500769       -1.97915460847763        0.59412202226533
H           -3.24072712586386       -1.75006797785681       -0.81477007605490
H           -3.42005249398469        0.21074235786844        0.68541987539081
H           -2.66440868034334        0.68014281644189       -0.84439805006356
H           -1.10278867263118        0.01852686573366        1.70258982274903
H           -1.51458063051070        1.65704812201849        1.13842483058122
H            1.91864176464276       -0.52916320900157       -1.26742218945384
H            2.50660297664480        0.90896494394719       -0.41461445482060
H            4.04499405063206       -1.03291494902998       -0.04210917961415
H            3.28668949505489       -0.53677914838202        1.47940673875283
H            2.70102519780489       -1.97010013933052        0.62983248178839
