      -----------------------------------------------------------      
     |                   =====================                   |     
     |                           x T B                           |     
     |                   =====================                   |     
     |                         S. Grimme                         |     
     |          Mulliken Center for Theoretical Chemistry        |     
     |                    University of Bonn                     |     
      -----------------------------------------------------------      

   * xtb version 6.7.1 (edcfbbe) compiled by 'albert@albert-system' on 2024-07-22

   xtb is free software: you can redistribute it and/or modify it under
   the terms of the GNU Lesser General Public License as published by
   the Free Software Foundation, either version 3 of the License, or
   (at your option) any later version.
   
   xtb is distributed in the hope that it will be useful,
   but WITHOUT ANY WARRANTY; without even the implied warranty of
   MERCHANTABILITY or FITNESS FOR A PARTICULAR PURPOSE.  See the
   GNU Lesser General Public License for more details.
   
   Cite this work as:
   * C. Bannwarth, E. Caldeweyher, S. Ehlert, A. Hansen, P. Pracht,
     J. Seibert, S. Spicher, S. Grimme, WIREs Comput. Mol. Sci., 2020, 11,
     e01493. DOI: 10.1002/wcms.1493
   
   for GFN2-xTB:
   * C. Bannwarth, S. Ehlert and S. Grimme., J. Chem. Theory Comput., 2019,
     15, 1652-1671. DOI: 10.1021/acs.jctc.8b01176
   for GFN1-xTB:
   * S. Grimme, C. Bannwarth, P. Shushkov, J. Chem. Theory Comput., 2017,
     13, 1989-2009. DOI: 10.1021/acs.jctc.7b00118
   for GFN0-xTB:
   * P. Pracht, E. Caldeweyher, S. Ehlert, S. Grimme, ChemRxiv, 2019, preprint.
     DOI: 10.26434/chemrxiv.8326202.v1
   for GFN-FF:
   * S. Spicher and S. Grimme, Angew. Chem. Int. Ed., 2020, 59, 15665-15673.
     DOI: 10.1002/anie.202004239
   
   for ALPB and GBSA implicit solvation:
   * S. Ehlert, M. Stahn, S. Spicher, S. Grimme, J. Chem. Theory Comput.,
     2021, 17, 4250-4261. DOI: 10.1021/acs.jctc.1c00471
   
   for ddCOSMO and CPCM-X implicit solvation:
   * M. Stahn, S. Ehlert, S. Grimme, J. Phys. Chem. A,
     2023, XX, XXXX-XXXX. DOI: 10.1021/acs.jpca.3c04382
   
   for DFT-D4:
   * E. Caldeweyher, C. Bannwarth and S. Grimme, J. Chem. Phys., 2017,
     147, 034112. DOI: 10.1063/1.4993215
   * E. Caldeweyher, S. Ehlert, A. Hansen, H. Neugebauer, S. Spicher,
     C. Bannwarth and S. Grimme, J. Chem. Phys., 2019, 150, 154122.
     DOI: 10.1063/1.5090222
   * E. Caldeweyher, J.-M. Mewes, S. Ehlert and S. Grimme, Phys. Chem. Chem. Phys.
     2020, 22, 8499-8512. DOI: 10.1039/D0CP00502A
   
   for sTDA-xTB:
   * S. Grimme and C. Bannwarth, J. Chem. Phys., 2016, 145, 054103.
     DOI: 10.1063/1.4959605
   
   in the mass-spec context:
   * V. Asgeirsson, C. Bauer and S. Grimme, Chem. Sci., 2017, 8, 4879.
     DOI: 10.1039/c7sc00601b
   * J. Koopman and S. Grimme, ACS Omega 2019, 4, 12, 15120-15133.
     DOI: 10.1021/acsomega.9b02011
   
   for metadynamics refer to:
   * S. Grimme, J. Chem. Theory Comput., 2019, 155, 2847-2862
     DOI: 10.1021/acs.jctc.9b00143
   
   for SPH calculations refer to:
   * S. Spicher and S. Grimme, J. Chem. Theory Comput., 2021, 17, 1701-1714
     DOI: 10.1021/acs.jctc.0c01306
   
   for ONIOM refer to:
   * C. Plett, A. Katbashev, S. Ehlert, S. Grimme, M. Bursch,
     Phys. Chem. Chem. Phys., 2023, 25, 17860-17868. DOI: 10.1039/D3CP02178E
   
   for DIPRO refer to:
   * J. Kohn, N. Gildemeister, S. Grimme, D. Fazzi, A. Hansen,
     J. Chem. Phys., 2023, just accepted.
   
   for PTB refer to:
   * S. Grimme, M. Mueller, A. Hansen, J. Chem. Phys., 2023, 158, 124111.
     DOI: 10.1063/5.0137838
   
   with help from (in alphabetical order)
   P. Atkinson, C. Bannwarth, F. Bohle, G. Brandenburg, E. Caldeweyher
   M. Checinski, S. Dohm, S. Ehlert, S. Ehrlich, I. Gerasimov, C. Hölzer
   A. Katbashev, J. Kohn, J. Koopman, C. Lavigne, S. Lehtola, F. März, M. Müller,
   F. Musil, H. Neugebauer, J. Pisarek, C. Plett, P. Pracht, F. Pultar,
   J. Seibert, P. Shushkov, S. Spicher, M. Stahn, M. Steiner, T. Strunk,
   J. Stückrath, T. Rose, and J. Unsleber
   
 * started run on 2025/04/11 at 12:24:48.969     
   ID    Z sym.   atoms
    1    6 C      1-3, 5-7
    2    7 N      4
    3    1 H      8-22

           -------------------------------------------------
          |                Calculation Setup                |
           -------------------------------------------------

          program call               : /srv/scratch/z5358697/.xtb/bin/xtb solv.coord --gfn2 --sp --chrg 0 --norestart --parallel 1 --alpb water reference -I xtb_sp-xcontrol-inp
          hostname                   : k062
          coordinate file            : solv.coord
          omp threads                :                     1


           -------------------------------------------------
          |                 G F N 2 - x T B                 |
           -------------------------------------------------

        Reference                      10.1021/acs.jctc.8b01176
      * Hamiltonian:
        H0-scaling (s, p, d)           1.850000    2.230000    2.230000
        zeta-weighting                 0.500000
      * Dispersion:
        s8                             2.700000
        a1                             0.520000
        a2                             5.000000
        s9                             5.000000
      * Repulsion:
        kExp                           1.500000    1.000000
        rExp                           1.000000
      * Coulomb:
        alpha                          2.000000
        third order                    shell-resolved
        anisotropic                    true
        a3                             3.000000
        a5                             4.000000
        cn-shift                       1.200000
        cn-exp                         4.000000
        max-rad                        5.000000

      * Solvation model:               ALPB
        Solvent                        water
        Parameter file                 internal GFN2-xTB/ALPB
        Dielectric constant                8.0200E+01
        Reference state                gsolv=reference [X=1]
        Free energy shift                  2.8945E-03 Eh       1.8164E+00 kcal/mol
        Temperature                        2.9815E+02 K
        Density                            1.0000E+00 kg/L
        Solvent mass                       1.8000E+01 g/mol
        Interaction kernel             P16
        Born radius scaling (c1)           1.4744E+00
        Born radii integrator          GBOBC
        Born offset                        0.0000E+00 a0       0.0000E+00 AA
        H-bond correction              true
        Ion screening                  false
        Surface tension                    1.0000E-05 Eh       1.5569E+01 dyn/cm
        Grid points                               974 per atom

          ...................................................
          :                      SETUP                      :
          :.................................................:
          :  # basis functions                  43          :
          :  # atomic orbitals                  43          :
          :  # shells                           29          :
          :  # electrons                        44          :
          :  max. iterations                   250          :
          :  Hamiltonian                  GFN2-xTB          :
          :  restarted?                      false          :
          :  GBSA solvation                   true          :
          :  PC potential                    false          :
          :  electronic temp.          300.0000000     K    :
          :  accuracy                    1.0000000          :
          :  -> integral cutoff          0.2500000E+02      :
          :  -> integral neglect         0.1000000E-07      :
          :  -> SCF convergence          0.1000000E-05 Eh   :
          :  -> wf. convergence          0.1000000E-03 e    :
          :  Broyden damping             0.4000000          :
          :  net charge                          0          :
          :  unpaired electrons                  0          :
          ...................................................

 iter      E             dE          RMSdq      gap      omega  full diag
   1    -23.7258425 -0.237258E+02  0.238E+00   10.38       0.0  T
   2    -23.7497070 -0.238645E-01  0.132E+00   10.28       1.0  T
   3    -23.7509457 -0.123863E-02  0.519E-01   10.29       1.0  T
   4    -23.7510812 -0.135545E-03  0.102E-01   10.24       1.0  T
   5    -23.7511151 -0.339349E-04  0.490E-02   10.24       1.0  T
   6    -23.7511176 -0.245038E-05  0.166E-02   10.23       1.3  T
   7    -23.7511179 -0.342521E-06  0.267E-03   10.24       8.0  T
   8    -23.7511179 -0.102445E-07  0.911E-04   10.24      23.4  T
   9    -23.7511179 -0.211136E-08  0.269E-04   10.24      79.3  T

   *** convergence criteria satisfied after 9 iterations ***

         #    Occupation            Energy/Eh            Energy/eV
      -------------------------------------------------------------
         1        2.0000           -0.6309561             -17.1692
       ...           ...                  ...                  ...
        16        2.0000           -0.4518913             -12.2966
        17        2.0000           -0.4434505             -12.0669
        18        2.0000           -0.4396409             -11.9632
        19        2.0000           -0.4343618             -11.8196
        20        2.0000           -0.4292870             -11.6815
        21        2.0000           -0.4197586             -11.4222
        22        2.0000           -0.3462765              -9.4227 (HOMO)
        23                          0.0298859               0.8132 (LUMO)
        24                          0.0866592               2.3581
        25                          0.0984560               2.6791
        26                          0.1084861               2.9521
        27                          0.1179480               3.2095
       ...                                ...                  ...
        43                          0.3085210               8.3953
      -------------------------------------------------------------
                  HL-Gap            0.3761625 Eh           10.2359 eV
             Fermi-level           -0.1581953 Eh           -4.3047 eV

 SCC (total)                   0 d,  0 h,  0 min,  0.031 sec
 SCC setup                      ...        0 min,  0.002 sec (  6.145%)
 Dispersion                     ...        0 min,  0.000 sec (  0.514%)
 classical contributions        ...        0 min,  0.000 sec (  0.110%)
 integral evaluation            ...        0 min,  0.002 sec (  7.308%)
 iterations                     ...        0 min,  0.022 sec ( 70.323%)
 molecular gradient             ...        0 min,  0.005 sec ( 15.159%)
 printout                       ...        0 min,  0.000 sec (  0.392%)

         :::::::::::::::::::::::::::::::::::::::::::::::::::::
         ::                     SUMMARY                     ::
         :::::::::::::::::::::::::::::::::::::::::::::::::::::
         :: total energy             -23.419448498649 Eh    ::
         :: total w/o Gsasa/hb       -23.420125122047 Eh    ::
         :: gradient norm              0.000090088633 Eh/a0 ::
         :: HOMO-LUMO gap             10.235901936833 eV    ::
         ::.................................................::
         :: SCC energy               -23.751034767283 Eh    ::
         :: -> isotropic ES            0.015017193137 Eh    ::
         :: -> anisotropic ES          0.008016633685 Eh    ::
         :: -> anisotropic XC          0.017499877086 Eh    ::
         :: -> dispersion             -0.013682305106 Eh    ::
         :: -> Gsolv                  -0.000173927892 Eh    ::
         ::    -> Gelec               -0.000850551289 Eh    ::
         ::    -> Gsasa               -0.001170346432 Eh    ::
         ::    -> Ghb                 -0.001047579331 Eh    ::
         ::    -> Gshift               0.002894549160 Eh    ::
         :: repulsion energy           0.331586268634 Eh    ::
         :: add. restraining           0.000000000000 Eh    ::
         :: total charge               0.000000000000 e     ::
         :::::::::::::::::::::::::::::::::::::::::::::::::::::

           -------------------------------------------------
          |                Property Printout                |
           -------------------------------------------------

    * Orbital Energies and Occupations

         #    Occupation            Energy/Eh            Energy/eV
      -------------------------------------------------------------
         1        2.0000           -0.6309561             -17.1692
       ...           ...                  ...                  ...
        10        2.0000           -0.5037300             -13.7072
        11        2.0000           -0.4894720             -13.3192
        12        2.0000           -0.4777088             -12.9991
        13        2.0000           -0.4689253             -12.7601
        14        2.0000           -0.4607282             -12.5371
        15        2.0000           -0.4593624             -12.4999
        16        2.0000           -0.4518913             -12.2966
        17        2.0000           -0.4434505             -12.0669
        18        2.0000           -0.4396409             -11.9632
        19        2.0000           -0.4343618             -11.8196
        20        2.0000           -0.4292870             -11.6815
        21        2.0000           -0.4197586             -11.4222
        22        2.0000           -0.3462765              -9.4227 (HOMO)
        23                          0.0298859               0.8132 (LUMO)
        24                          0.0866592               2.3581
        25                          0.0984560               2.6791
        26                          0.1084861               2.9521
        27                          0.1179480               3.2095
        28                          0.1278001               3.4776
        29                          0.1417416               3.8570
        30                          0.1709005               4.6504
        31                          0.1727632               4.7011
        32                          0.1805700               4.9136
        33                          0.2071417               5.6366
       ...                                ...                  ...
        43                          0.3085210               8.3953
      -------------------------------------------------------------
                  HL-Gap            0.3761625 Eh           10.2359 eV
             Fermi-level           -0.1581953 Eh           -4.3047 eV

     #   Z          covCN         q      C6AA      α(0)
     1   6 C        3.758    -0.123    22.910     6.824
     2   6 C        3.784     0.050    19.750     6.330
     3   6 C        3.753    -0.116    22.787     6.807
     4   7 N        2.688    -0.290    27.468     7.784
     5   6 C        3.783     0.060    19.584     6.304
     6   6 C        3.758    -0.121    22.868     6.818
     7   6 C        3.756    -0.119    22.832     6.813
     8   1 H        0.925     0.052     2.296     2.370
     9   1 H        0.925     0.043     2.409     2.427
    10   1 H        0.925     0.040     2.448     2.447
    11   1 H        0.924     0.029     2.604     2.523
    12   1 H        0.925     0.032     2.558     2.501
    13   1 H        0.925     0.028     2.616     2.529
    14   1 H        0.925     0.037     2.488     2.467
    15   1 H        0.860     0.144     1.440     1.880
    16   1 H        0.922    -0.007     3.190     2.793
    17   1 H        0.925     0.036     2.501     2.473
    18   1 H        0.925     0.043     2.407     2.426
    19   1 H        0.925     0.053     2.286     2.364
    20   1 H        0.925     0.042     2.428     2.437
    21   1 H        0.925     0.052     2.299     2.371
    22   1 H        0.925     0.035     2.513     2.479

 Mol. C6AA /au·bohr⁶  :       3189.125645
 Mol. C8AA /au·bohr⁸  :      65483.678319
 Mol. α(0) /au        :         84.167812


Wiberg/Mayer (AO) data.
largest (>0.10) Wiberg bond orders for each atom

 ---------------------------------------------------------------------------
     #   Z sym  total        # sym  WBO       # sym  WBO       # sym  WBO
 ---------------------------------------------------------------------------
     1   6 C    3.995 --     2 C    1.004    10 H    0.986     9 H    0.986
                             8 H    0.986
     2   6 C    3.986 --     4 N    1.005     1 C    1.004     3 C    0.994
                            11 H    0.963
     3   6 C    3.997 --     2 C    0.994    12 H    0.987    14 H    0.986
                            13 H    0.985
     4   7 N    3.065 --     2 C    1.005     5 C    1.001    15 H    0.950
     5   6 C    3.987 --     6 C    1.006     7 C    1.004     4 N    1.001
                            16 H    0.956
     6   6 C    3.995 --     5 C    1.006    19 H    0.986    17 H    0.986
                            18 H    0.985
     7   6 C    3.996 --     5 C    1.004    21 H    0.986    20 H    0.985
                            22 H    0.984
     8   1 H    0.997 --     1 C    0.986
     9   1 H    0.998 --     1 C    0.986
    10   1 H    0.998 --     1 C    0.986
    11   1 H    0.999 --     2 C    0.963
    12   1 H    0.999 --     3 C    0.987
    13   1 H    0.999 --     3 C    0.985
    14   1 H    0.998 --     3 C    0.986
    15   1 H    0.979 --     4 N    0.950
    16   1 H    1.000 --     5 C    0.956
    17   1 H    0.999 --     6 C    0.986
    18   1 H    0.998 --     6 C    0.985
    19   1 H    0.997 --     6 C    0.986
    20   1 H    0.998 --     7 C    0.985
    21   1 H    0.997 --     7 C    0.986
    22   1 H    0.999 --     7 C    0.984
 ---------------------------------------------------------------------------

Topologies differ in total number of bonds
Writing topology from bond orders to xtbtopo.mol

molecular dipole:
                 x           y           z       tot (Debye)
 q only:       -0.009       0.002      -0.082
   full:        0.084      -0.331       0.053       0.879
molecular quadrupole (traceless):
                xx          xy          yy          xz          yz          zz
 q only:        1.435       0.402      -0.927      -0.079       0.829      -0.509
  q+dip:        0.705      -0.019      -0.376      -0.359       1.517      -0.330
   full:        1.119       0.233      -0.756      -0.352       1.661      -0.363


           -------------------------------------------------
          | TOTAL ENERGY              -23.419448498649 Eh   |
          | GRADIENT NORM               0.000090088633 Eh/α |
          | HOMO-LUMO GAP              10.235901936833 eV   |
           -------------------------------------------------

------------------------------------------------------------------------
 * finished run on 2025/04/11 at 12:24:49.038     
------------------------------------------------------------------------
 total:
 * wall-time:     0 d,  0 h,  0 min,  0.067 sec
 *  cpu-time:     0 d,  0 h,  0 min,  0.031 sec
 * ratio c/w:     0.463 speedup
 SCF:
 * wall-time:     0 d,  0 h,  0 min,  0.031 sec
 *  cpu-time:     0 d,  0 h,  0 min,  0.020 sec
 * ratio c/w:     0.632 speedup

