 Entering Gaussian System
 *********************************************
 Gaussian 98:
 frequency output generated by the xtb code
 *********************************************
                         Standard orientation:
 --------------------------------------------------------------------
  Center     Atomic     Atomic              Coordinates (Angstroms)
  Number     Number      Type              X           Y           Z
 --------------------------------------------------------------------
    1          6             0        1.494156   -1.830102   -0.182291
    2          8             0        0.252324   -1.286323    0.256326
    3          6             0        0.013349    0.008283   -0.168611
    4          8             0        0.939282    0.858657    0.408653
    5          6             0        0.863864    2.206952   -0.045942
    6          8             0       -1.260207    0.388964    0.214599
    7          6             0       -2.307812   -0.346448   -0.411434
    8          1             0        2.327304   -1.257217    0.227053
    9          1             0        1.540366   -1.825622   -1.275336
   10          1             0        1.506908   -2.847712    0.195756
   11          1             0        0.101283    0.059743   -1.290010
   12          1             0       -0.100063    2.644772    0.216824
   13          1             0        1.007667    2.245905   -1.129780
   14          1             0        1.670840    2.723436    0.464592
   15          1             0       -2.242267   -0.241141   -1.498400
   16          1             0       -3.226374    0.097324   -0.040055
   17          1             0       -2.251150   -1.400467   -0.136287
 --------------------------------------------------------------------
     1 basis functions        1 primitive gaussians
     1 alpha electrons        1 beta electrons
 
 Harmonic frequencies (cm**-1), IR intensities (km*mol⁻¹),
 Raman scattering activities (A**4/amu), Raman depolarization ratios,
 reduced masses (AMU), force constants (mDyne/A) and normal coordinates:
                      1                      2                      3
                        a                      a                      a 
 Frequencies --    90.5569                90.9823                93.7660
 Red. masses --     8.5956                 8.5687                 9.2527
 Frc consts  --     0.0000                 0.0000                 0.0000
 IR Inten    --     6.6344                 6.5552                17.7010
 Raman Activ --     0.0000                 0.0000                 0.0000
 Depolar     --     0.0000                 0.0000                 0.0000
 Atom AN      X      Y      Z        X      Y      Z        X      Y      Z
   1   6     0.13   0.28   0.05     0.27   0.16   0.24     0.07   0.03   0.30
   2   8    -0.12  -0.02  -0.29     0.03  -0.15  -0.12    -0.17  -0.03  -0.29
   3   6    -0.11   0.07  -0.00    -0.07  -0.11  -0.01     0.01   0.01  -0.23
   4   8    -0.18  -0.03   0.24     0.03  -0.13  -0.18     0.14  -0.13  -0.25
   5   6     0.43  -0.13  -0.18    -0.12  -0.10  -0.10    -0.09   0.04   0.27
   6   8    -0.15  -0.02   0.03     0.01  -0.17   0.30     0.08   0.19  -0.24
   7   6    -0.10  -0.17   0.15    -0.14   0.40  -0.13    -0.04  -0.11   0.28
   8   1    -0.03   0.05   0.19     0.01   0.05   0.21    -0.04  -0.03   0.26
   9   1     0.17   0.22   0.02     0.20   0.13   0.07     0.19   0.09   0.09
  10   1     0.02   0.04  -0.11     0.08   0.02  -0.01    -0.05  -0.02   0.01
  11   1    -0.02   0.08   0.00    -0.08  -0.02  -0.01     0.00   0.00  -0.07
  12   1     0.10   0.04  -0.27    -0.01  -0.04   0.06     0.01  -0.02   0.25
  13   1     0.34  -0.12  -0.03    -0.13  -0.02  -0.04    -0.17   0.12   0.06
  14   1     0.05  -0.05   0.07     0.01  -0.03  -0.09     0.04  -0.04   0.02
  15   1    -0.04  -0.08   0.04    -0.09   0.36  -0.02    -0.03  -0.21   0.06
  16   1    -0.03  -0.05   0.04    -0.02   0.05   0.11     0.01   0.05   0.03
  17   1    -0.00  -0.04   0.08    -0.05   0.05  -0.28    -0.03   0.01   0.25
                      4                      5                      6
                        a                      a                      a 
 Frequencies --   167.5833               168.7413               169.4330
 Red. masses --     2.5781                 3.0097                 3.0391
 Frc consts  --     0.0000                 0.0000                 0.0000
 IR Inten    --     2.5798                 2.7338                 2.7570
 Raman Activ --     0.0000                 0.0000                 0.0000
 Depolar     --     0.0000                 0.0000                 0.0000
 Atom AN      X      Y      Z        X      Y      Z        X      Y      Z
   1   6    -0.00   0.08  -0.12    -0.03   0.10   0.06    -0.18  -0.19   0.01
   2   8     0.04  -0.00   0.10    -0.09   0.07  -0.03    -0.04   0.08   0.07
   3   6    -0.03  -0.00   0.15    -0.06   0.06  -0.04     0.06   0.07   0.02
   4   8    -0.05   0.03   0.11    -0.03  -0.03   0.02     0.04   0.13  -0.01
   5   6     0.06  -0.04  -0.11     0.26   0.00   0.07    -0.05   0.10  -0.06
   6   8    -0.07  -0.06   0.09    -0.11   0.01  -0.08     0.03   0.03  -0.02
   7   6     0.04  -0.02  -0.13     0.01  -0.20  -0.03     0.14  -0.16  -0.00
   8   1     0.01  -0.10   0.12    -0.03   0.18  -0.15    -0.00  -0.34   0.29
   9   1     0.05   0.25  -0.03    -0.09  -0.19   0.01     0.09   0.29   0.01
  10   1    -0.07  -0.06  -0.25     0.10   0.11   0.22    -0.28  -0.18  -0.33
  11   1    -0.01   0.00   0.04    -0.01   0.03  -0.01     0.03   0.01   0.01
  12   1     0.17   0.14   0.27     0.22   0.16   0.29    -0.02   0.01  -0.02
  13   1    -0.36  -0.10  -0.09    -0.23  -0.02  -0.02    -0.02   0.02  -0.02
  14   1     0.27  -0.09  -0.35     0.31  -0.13  -0.22    -0.02   0.05  -0.03
  15   1     0.22  -0.20  -0.05    -0.17   0.16   0.00    -0.13   0.19   0.01
  16   1    -0.01   0.16  -0.28    -0.02  -0.29   0.21     0.02  -0.28   0.22
  17   1    -0.15   0.03   0.15     0.22  -0.10  -0.22     0.26  -0.09  -0.22
                      7                      8                      9
                        a                      a                      a 
 Frequencies --   267.4042               267.5426               300.5972
 Red. masses --    11.5014                11.5051                10.5092
 Frc consts  --     0.0000                 0.0000                 0.0000
 IR Inten    --     3.1182                 3.1618                 1.0749
 Raman Activ --     0.0000                 0.0000                 0.0000
 Depolar     --     0.0000                 0.0000                 0.0000
 Atom AN      X      Y      Z        X      Y      Z        X      Y      Z
   1   6    -0.07   0.22  -0.02    -0.12  -0.19   0.16     0.12  -0.34   0.06
   2   8     0.01   0.12   0.37    -0.20   0.06  -0.40     0.31   0.09  -0.01
   3   6    -0.19  -0.03  -0.02    -0.03   0.19   0.01     0.01   0.01  -0.15
   4   8     0.17  -0.15  -0.51     0.09   0.14  -0.10    -0.23   0.22  -0.05
   5   6     0.25   0.07   0.19     0.03   0.15  -0.06     0.22   0.28   0.10
   6   8    -0.19  -0.11   0.14    -0.03  -0.20   0.49    -0.07  -0.31  -0.06
   7   6    -0.01  -0.13  -0.15     0.26  -0.13  -0.10    -0.36   0.05   0.04
   8   1     0.00   0.02   0.01    -0.05  -0.02   0.03     0.09  -0.19   0.03
   9   1    -0.07   0.17  -0.01     0.04  -0.20   0.05     0.06  -0.12   0.02
  10   1    -0.00   0.03  -0.11    -0.09  -0.00   0.19    -0.09  -0.10   0.03
  11   1    -0.14  -0.09  -0.02    -0.10   0.14  -0.00     0.00   0.00  -0.04
  12   1     0.05  -0.02   0.03    -0.00   0.02  -0.02     0.11   0.18   0.05
  13   1     0.19   0.19   0.08     0.02   0.06  -0.01     0.07   0.11   0.03
  14   1     0.02  -0.06   0.22    -0.01   0.05   0.00     0.12  -0.03   0.05
  15   1     0.08  -0.04  -0.04     0.26  -0.05  -0.02    -0.14   0.00   0.01
  16   1    -0.04  -0.05  -0.12     0.02  -0.02  -0.19    -0.04   0.12   0.04
  17   1    -0.01  -0.04  -0.04     0.02  -0.04  -0.01    -0.21   0.01   0.02
                     10                     11                     12
                        a                      a                      a 
 Frequencies --   513.9917               514.1018               572.4848
 Red. masses --    12.2325                12.2321                13.3343
 Frc consts  --     0.0000                 0.0000                 0.0000
 IR Inten    --    10.7602                10.7021                 3.9415
 Raman Activ --     0.0000                 0.0000                 0.0000
 Depolar     --     0.0000                 0.0000                 0.0000
 Atom AN      X      Y      Z        X      Y      Z        X      Y      Z
   1   6    -0.27   0.24   0.02    -0.04   0.04   0.03     0.19  -0.16  -0.06
   2   8    -0.35  -0.15   0.03     0.13   0.44  -0.05    -0.04  -0.42  -0.08
   3   6     0.25  -0.10   0.02     0.10   0.25   0.02    -0.03  -0.02   0.41
   4   8     0.23   0.21   0.07     0.48  -0.15   0.13     0.39   0.17  -0.02
   5   6     0.05   0.22  -0.03    -0.05  -0.28  -0.01     0.05   0.25  -0.05
   6   8     0.26  -0.47  -0.11    -0.19  -0.16  -0.04    -0.34   0.26  -0.07
   7   6    -0.13  -0.05   0.00    -0.32  -0.10  -0.07    -0.23  -0.08  -0.09
   8   1    -0.14   0.16   0.01     0.05  -0.06  -0.00     0.00   0.01   0.00
   9   1    -0.09   0.13   0.00    -0.00  -0.04   0.01     0.07  -0.04  -0.01
  10   1     0.06   0.05  -0.04    -0.12   0.02   0.05     0.11  -0.04  -0.01
  11   1     0.16  -0.03   0.01     0.03   0.16   0.01    -0.01  -0.01   0.11
  12   1     0.01   0.04   0.00    -0.07  -0.21  -0.00    -0.01  -0.00  -0.00
  13   1     0.00   0.06  -0.01    -0.07  -0.13  -0.01     0.00   0.08  -0.01
  14   1     0.01   0.09  -0.02    -0.08   0.08  -0.07    -0.02   0.12  -0.02
  15   1    -0.11   0.01   0.00    -0.12  -0.03  -0.02    -0.07  -0.04  -0.03
  16   1     0.06   0.11   0.08    -0.06   0.02   0.01    -0.09  -0.08  -0.03
  17   1    -0.17  -0.03  -0.02    -0.14  -0.03  -0.02     0.01  -0.01  -0.00
                     13                     14                     15
                        a                      a                      a 
 Frequencies --   967.9065              1001.6550              1001.8306
 Red. masses --     9.5937                10.2517                10.2524
 Frc consts  --     0.0000                 0.0000                 0.0000
 IR Inten    --   155.6272                38.6125                39.5823
 Raman Activ --     0.0000                 0.0000                 0.0000
 Depolar     --     0.0000                 0.0000                 0.0000
 Atom AN      X      Y      Z        X      Y      Z        X      Y      Z
   1   6     0.10  -0.14   0.01    -0.31   0.29   0.07    -0.08  -0.00   0.03
   2   8    -0.12  -0.09   0.21     0.34   0.01  -0.20     0.02  -0.04  -0.03
   3   6     0.05   0.03  -0.64     0.06  -0.48  -0.02     0.48   0.06   0.04
   4   8     0.10  -0.06   0.23     0.04  -0.18   0.14    -0.14   0.23  -0.18
   5   6     0.07   0.16   0.02     0.02   0.26  -0.06    -0.11  -0.32   0.03
   6   8    -0.04   0.12   0.23     0.03   0.14   0.10     0.14   0.23   0.23
   7   6    -0.17  -0.02  -0.00    -0.17   0.00  -0.02    -0.36  -0.13  -0.12
   8   1    -0.04   0.07  -0.02     0.04  -0.08   0.01    -0.05   0.05   0.00
   9   1    -0.05   0.09   0.00     0.00  -0.07   0.01    -0.03   0.04   0.01
  10   1     0.24  -0.08  -0.11    -0.31   0.11   0.12     0.07  -0.01  -0.03
  11   1     0.01   0.01  -0.13     0.01  -0.13  -0.01     0.13   0.01   0.01
  12   1    -0.04  -0.06  -0.02    -0.01   0.03  -0.01     0.05   0.10   0.02
  13   1    -0.05  -0.09  -0.01    -0.01   0.02  -0.01     0.06   0.05   0.02
  14   1    -0.03   0.24  -0.12    -0.00   0.10  -0.04     0.05  -0.32   0.13
  15   1     0.10   0.00   0.01     0.07  -0.01   0.00     0.03  -0.03  -0.02
  16   1    -0.17  -0.15  -0.15    -0.16  -0.15  -0.12    -0.18  -0.15  -0.13
  17   1     0.08  -0.00  -0.01     0.11   0.01   0.01     0.04  -0.02  -0.01
                     16                     17                     18
                        a                      a                      a 
 Frequencies --  1065.3622              1065.4307              1071.9900
 Red. masses --    12.5760                12.5791                13.7338
 Frc consts  --     0.0000                 0.0000                 0.0000
 IR Inten    --   389.4322               388.4815                 3.2066
 Raman Activ --     0.0000                 0.0000                 0.0000
 Depolar     --     0.0000                 0.0000                 0.0000
 Atom AN      X      Y      Z        X      Y      Z        X      Y      Z
   1   6    -0.08   0.06   0.02     0.27  -0.06  -0.19    -0.31   0.09   0.13
   2   8     0.13  -0.16   0.00    -0.32   0.34   0.03     0.33  -0.28  -0.06
   3   6    -0.55   0.08  -0.04    -0.08  -0.55  -0.04     0.01   0.02  -0.19
   4   8     0.09   0.30  -0.02     0.14   0.40   0.01     0.09   0.42  -0.05
   5   6     0.05  -0.18   0.16     0.01  -0.22   0.12     0.06  -0.31   0.14
   6   8     0.50   0.10   0.08    -0.06  -0.03  -0.03    -0.39  -0.13  -0.11
   7   6    -0.19  -0.17  -0.22     0.02   0.06   0.09     0.22   0.21   0.17
   8   1     0.02  -0.04   0.00     0.01  -0.01   0.05    -0.07   0.04   0.01
   9   1     0.01  -0.03   0.00     0.14  -0.08  -0.03    -0.05   0.04   0.02
  10   1    -0.06   0.02   0.02    -0.11   0.03   0.08     0.05  -0.00  -0.03
  11   1    -0.10  -0.02  -0.01     0.02  -0.10  -0.00     0.00   0.00  -0.03
  12   1    -0.01  -0.03  -0.05     0.02   0.02  -0.02    -0.00  -0.08   0.01
  13   1    -0.01  -0.16   0.02     0.02  -0.06   0.02    -0.02  -0.06   0.02
  14   1    -0.02   0.13  -0.08     0.01   0.00  -0.02    -0.02   0.05  -0.03
  15   1    -0.10  -0.07  -0.05     0.10   0.04   0.03     0.06   0.02   0.03
  16   1     0.04   0.03   0.06    -0.07  -0.07  -0.08    -0.02  -0.04  -0.03
  17   1     0.00  -0.01   0.04     0.05   0.00  -0.02     0.07   0.04   0.02
                     19                     20                     21
                        a                      a                      a 
 Frequencies --  1117.9789              1119.9648              1120.0029
 Red. masses --     3.6820                 3.9576                 3.9537
 Frc consts  --     0.0000                 0.0000                 0.0000
 IR Inten    --    11.1513                10.3728                10.1003
 Raman Activ --     0.0000                 0.0000                 0.0000
 Depolar     --     0.0000                 0.0000                 0.0000
 Atom AN      X      Y      Z        X      Y      Z        X      Y      Z
   1   6     0.10   0.08   0.20    -0.15  -0.04  -0.21     0.13   0.08   0.16
   2   8    -0.05  -0.07  -0.10     0.12  -0.03   0.11    -0.08  -0.05  -0.08
   3   6     0.00   0.00  -0.00    -0.02   0.10   0.00    -0.10  -0.02  -0.01
   4   8     0.10  -0.01  -0.09    -0.06  -0.02   0.00    -0.08   0.13   0.12
   5   6    -0.15   0.05   0.18     0.07  -0.01  -0.03     0.19  -0.13  -0.23
   6   8    -0.02   0.09  -0.09     0.05   0.14  -0.10     0.08   0.03  -0.05
   7   6     0.01  -0.16   0.18    -0.04  -0.23   0.21    -0.04  -0.07   0.09
   8   1     0.26  -0.15  -0.20    -0.26   0.13   0.22     0.25  -0.15  -0.18
   9   1    -0.32   0.07   0.03     0.36  -0.10  -0.03    -0.28   0.05   0.02
  10   1    -0.07  -0.04  -0.10     0.02   0.06   0.13    -0.09  -0.03  -0.09
  11   1     0.00   0.00  -0.01     0.02  -0.06  -0.00     0.06   0.02   0.01
  12   1     0.03   0.30  -0.20    -0.02  -0.11   0.05    -0.03  -0.39   0.27
  13   1     0.10  -0.31   0.04    -0.04   0.05  -0.01    -0.12   0.45  -0.06
  14   1     0.08  -0.04  -0.09    -0.03   0.06   0.00    -0.11   0.02   0.14
  15   1     0.22   0.24   0.08     0.28   0.31   0.10     0.14   0.11   0.04
  16   1     0.01   0.09  -0.10     0.00   0.12  -0.12    -0.04   0.00  -0.07
  17   1    -0.25  -0.13  -0.24    -0.31  -0.16  -0.31    -0.07  -0.05  -0.11
                     22                     23                     24
                        a                      a                      a 
 Frequencies --  1160.5894              1160.7313              1161.9221
 Red. masses --     7.4216                 7.4212                 7.6379
 Frc consts  --     0.0000                 0.0000                 0.0000
 IR Inten    --   105.7397               105.5927                65.4738
 Raman Activ --     0.0000                 0.0000                 0.0000
 Depolar     --     0.0000                 0.0000                 0.0000
 Atom AN      X      Y      Z        X      Y      Z        X      Y      Z
   1   6     0.17   0.23  -0.16     0.01   0.01   0.03     0.05   0.18  -0.11
   2   8    -0.19  -0.26   0.17    -0.03   0.04  -0.06    -0.05  -0.22   0.17
   3   6     0.19   0.32   0.02     0.32  -0.19   0.00     0.01   0.02  -0.35
   4   8    -0.16  -0.02  -0.16    -0.23   0.06  -0.14     0.20   0.07   0.21
   5   6     0.11  -0.01   0.13     0.22  -0.03   0.15    -0.18  -0.04  -0.15
   6   8     0.01  -0.14  -0.04    -0.16   0.24   0.20    -0.18   0.13   0.16
   7   6    -0.06   0.13   0.06     0.12  -0.20  -0.18     0.14  -0.12  -0.11
   8   1     0.18  -0.20   0.02     0.02  -0.00  -0.03     0.11  -0.14   0.03
   9   1     0.12  -0.21  -0.03    -0.06   0.02   0.00     0.11  -0.15  -0.02
  10   1    -0.39   0.12   0.14    -0.01  -0.00  -0.02    -0.26   0.09   0.11
  11   1     0.09  -0.07   0.00    -0.07  -0.09  -0.01     0.00   0.01  -0.04
  12   1    -0.04  -0.11  -0.04    -0.06  -0.23  -0.01     0.06   0.18   0.04
  13   1    -0.06  -0.16   0.01    -0.11  -0.14   0.01     0.09   0.18  -0.01
  14   1    -0.02   0.19  -0.09    -0.06   0.32  -0.12     0.04  -0.29   0.12
  15   1     0.07  -0.04   0.01    -0.24  -0.01  -0.05    -0.18  -0.01  -0.04
  16   1    -0.13  -0.13  -0.08     0.25   0.22   0.19     0.19   0.16   0.14
  17   1     0.14   0.04   0.03    -0.23  -0.05   0.01    -0.17  -0.03   0.01
                     25                     26                     27
                        a                      a                      a 
 Frequencies --  1330.2117              1330.2880              1372.6492
 Red. masses --     2.5034                 2.5030                 2.4709
 Frc consts  --     0.0000                 0.0000                 0.0000
 IR Inten    --    52.1801                52.2030                 0.3079
 Raman Activ --     0.0000                 0.0000                 0.0000
 Depolar     --     0.0000                 0.0000                 0.0000
 Atom AN      X      Y      Z        X      Y      Z        X      Y      Z
   1   6    -0.01   0.01  -0.02     0.01   0.04  -0.03    -0.16   0.10   0.03
   2   8     0.04  -0.06   0.10    -0.02  -0.09   0.12    -0.06   0.05   0.00
   3   6    -0.13  -0.19  -0.02     0.19  -0.13   0.01    -0.00  -0.00   0.05
   4   8    -0.06  -0.06  -0.16    -0.02   0.04   0.02    -0.02  -0.07   0.00
   5   6     0.03   0.01   0.04     0.01  -0.01  -0.01    -0.01  -0.18   0.03
   6   8    -0.03   0.05   0.06     0.11  -0.00  -0.14     0.07   0.02   0.01
   7   6     0.01  -0.02  -0.02    -0.03   0.01   0.04     0.16   0.08   0.06
   8   1    -0.02  -0.00   0.03    -0.02  -0.01   0.05     0.19  -0.23  -0.08
   9   1    -0.00  -0.00  -0.00    -0.04  -0.01   0.00     0.25  -0.17   0.01
  10   1    -0.03   0.02   0.03    -0.07   0.02   0.03     0.31  -0.03  -0.12
  11   1     0.58   0.72   0.08    -0.72   0.58  -0.03    -0.00   0.00   0.01
  12   1    -0.01   0.02  -0.06     0.00  -0.01   0.00     0.11   0.27  -0.06
  13   1    -0.03   0.02  -0.01    -0.01   0.01  -0.00     0.02   0.30   0.02
  14   1    -0.01   0.08  -0.05    -0.01   0.00   0.01    -0.10   0.27  -0.13
  15   1     0.01   0.03   0.01    -0.00  -0.02  -0.00    -0.27  -0.13  -0.03
  16   1     0.03   0.03   0.02    -0.05  -0.03  -0.05    -0.16  -0.23  -0.16
  17   1    -0.00   0.00   0.03    -0.00  -0.01  -0.06    -0.28  -0.04  -0.11
                     28                     29                     30
                        a                      a                      a 
 Frequencies --  1376.2275              1376.2509              1437.2343
 Red. masses --     2.5058                 2.5058                 1.5565
 Frc consts  --     0.0000                 0.0000                 0.0000
 IR Inten    --     7.4523                 7.4171                 6.3435
 Raman Activ --     0.0000                 0.0000                 0.0000
 Depolar     --     0.0000                 0.0000                 0.0000
 Atom AN      X      Y      Z        X      Y      Z        X      Y      Z
   1   6     0.21  -0.15  -0.04     0.07  -0.05  -0.02    -0.08  -0.09  -0.11
   2   8     0.08  -0.05  -0.03     0.02  -0.01  -0.01    -0.02  -0.02  -0.02
   3   6    -0.04   0.07  -0.00     0.07   0.04   0.01     0.01   0.01   0.00
   4   8    -0.00  -0.02   0.00    -0.01  -0.09   0.03    -0.02   0.01   0.01
   5   6    -0.01  -0.05   0.00    -0.03  -0.26   0.04    -0.11   0.02   0.08
   6   8     0.06   0.03   0.03    -0.05  -0.03  -0.03     0.00  -0.00   0.00
   7   6     0.18   0.08   0.06    -0.16  -0.07  -0.05     0.00  -0.01   0.01
   8   1    -0.25   0.31   0.10    -0.09   0.10   0.04     0.16  -0.24   0.00
   9   1    -0.32   0.24  -0.02    -0.11   0.08  -0.01     0.01   0.42  -0.01
  10   1    -0.39   0.04   0.16    -0.13   0.01   0.06     0.18   0.17   0.47
  11   1     0.05  -0.05   0.00    -0.05  -0.05  -0.01    -0.01  -0.01  -0.00
  12   1     0.03   0.08  -0.01     0.16   0.39  -0.08    -0.11  -0.22  -0.02
  13   1     0.01   0.08   0.00     0.05   0.42   0.02     0.31   0.17   0.05
  14   1    -0.03   0.07  -0.03    -0.14   0.37  -0.19     0.26  -0.06  -0.36
  15   1    -0.30  -0.13  -0.03     0.25   0.11   0.02    -0.04   0.02   0.00
  16   1    -0.17  -0.24  -0.18     0.14   0.20   0.15    -0.00   0.03  -0.04
  17   1    -0.31  -0.04  -0.11     0.26   0.04   0.09     0.03   0.00  -0.00
                     31                     32                     33
                        a                      a                      a 
 Frequencies --  1437.2854              1438.1969              1461.8236
 Red. masses --     1.5566                 1.5606                 1.5864
 Frc consts  --     0.0000                 0.0000                 0.0000
 IR Inten    --     6.3260                16.2175                 9.3739
 Raman Activ --     0.0000                 0.0000                 0.0000
 Depolar     --     0.0000                 0.0000                 0.0000
 Atom AN      X      Y      Z        X      Y      Z        X      Y      Z
   1   6    -0.04  -0.04  -0.05    -0.06  -0.07  -0.08     0.04   0.08  -0.09
   2   8    -0.01  -0.00  -0.01    -0.01  -0.02  -0.01     0.01   0.01  -0.02
   3   6    -0.01   0.01  -0.00     0.00   0.00  -0.02    -0.00  -0.00   0.02
   4   8     0.02  -0.00  -0.01     0.02   0.00  -0.01    -0.01   0.01  -0.03
   5   6     0.09  -0.01  -0.06     0.11  -0.02  -0.07    -0.08  -0.01  -0.10
   6   8     0.00  -0.03   0.01    -0.01   0.02  -0.01     0.01  -0.02  -0.03
   7   6     0.03  -0.13   0.11    -0.03   0.10  -0.08     0.06  -0.06  -0.10
   8   1     0.07  -0.11  -0.00     0.11  -0.17  -0.01    -0.05  -0.17   0.35
   9   1     0.01   0.19  -0.00     0.01   0.32  -0.00    -0.28  -0.15  -0.01
  10   1     0.08   0.08   0.21     0.12   0.12   0.34     0.17   0.03   0.04
  11   1     0.01  -0.01  -0.00     0.00   0.00  -0.01    -0.00   0.00   0.00
  12   1     0.09   0.17   0.02     0.10   0.19   0.01     0.12   0.04   0.40
  13   1    -0.24  -0.14  -0.04    -0.29  -0.16  -0.05     0.29  -0.18   0.03
  14   1    -0.20   0.04   0.28    -0.23   0.04   0.33    -0.12   0.14   0.02
  15   1    -0.38   0.23   0.01     0.29  -0.18  -0.01     0.01   0.35   0.03
  16   1    -0.03   0.32  -0.46     0.02  -0.23   0.34    -0.07  -0.17   0.01
  17   1     0.31   0.01   0.02    -0.22  -0.01  -0.03    -0.16   0.09   0.38
                     34                     35                     36
                        a                      a                      a 
 Frequencies --  1464.0318              1464.1412              2589.5360
 Red. masses --     1.5836                 1.5836                 1.5635
 Frc consts  --     0.0000                 0.0000                 0.0000
 IR Inten    --     4.6181                 4.6392               248.7684
 Raman Activ --     0.0000                 0.0000                 0.0000
 Depolar     --     0.0000                 0.0000                 0.0000
 Atom AN      X      Y      Z        X      Y      Z        X      Y      Z
   1   6    -0.01  -0.03   0.03    -0.06  -0.11   0.12    -0.00  -0.00   0.00
   2   8    -0.01  -0.01   0.01    -0.03  -0.02   0.04    -0.00   0.02  -0.02
   3   6     0.00   0.02   0.00     0.02  -0.00   0.00     0.02   0.01  -0.21
   4   8     0.02  -0.01   0.03    -0.02   0.01  -0.03    -0.01  -0.01  -0.02
   5   6     0.08   0.01   0.10    -0.07  -0.01  -0.09     0.00   0.00   0.01
   6   8     0.01  -0.03  -0.04     0.00  -0.01  -0.01     0.02  -0.01  -0.02
   7   6     0.08  -0.08  -0.12     0.02  -0.02  -0.03    -0.00   0.00   0.00
   8   1     0.02   0.06  -0.13     0.09   0.23  -0.51     0.00   0.00  -0.00
   9   1     0.11   0.06   0.01     0.42   0.24   0.02    -0.01   0.01  -0.00
  10   1    -0.06  -0.01  -0.01    -0.24  -0.03  -0.03     0.00   0.00  -0.00
  11   1    -0.06  -0.01  -0.01    -0.01   0.06   0.00    -0.08  -0.04   0.97
  12   1    -0.12  -0.03  -0.40     0.11   0.03   0.37    -0.00   0.00  -0.00
  13   1    -0.31   0.18  -0.03     0.28  -0.17   0.03    -0.00  -0.01  -0.00
  14   1     0.11  -0.14  -0.01    -0.10   0.13   0.00    -0.00  -0.00  -0.00
  15   1     0.00   0.46   0.04     0.00   0.13   0.01     0.01   0.00   0.00
  16   1    -0.09  -0.21  -0.01    -0.02  -0.06  -0.00     0.00  -0.00  -0.00
  17   1    -0.19   0.12   0.50    -0.05   0.03   0.14    -0.00  -0.00  -0.00
                     37                     38                     39
                        a                      a                      a 
 Frequencies --  2928.4806              2928.5411              2929.5613
 Red. masses --     1.7351                 1.7349                 1.7373
 Frc consts  --     0.0000                 0.0000                 0.0000
 IR Inten    --     5.2457                 5.5694               129.9439
 Raman Activ --     0.0000                 0.0000                 0.0000
 Depolar     --     0.0000                 0.0000                 0.0000
 Atom AN      X      Y      Z        X      Y      Z        X      Y      Z
   1   6     0.01   0.01   0.17    -0.01  -0.01  -0.13    -0.01  -0.01  -0.14
   2   8    -0.01   0.00   0.01     0.01  -0.00  -0.00     0.01  -0.00  -0.01
   3   6    -0.00  -0.00  -0.00    -0.00   0.00   0.00    -0.00  -0.00   0.00
   4   8     0.00   0.01  -0.01    -0.00   0.00  -0.00     0.00   0.01  -0.01
   5   6     0.05  -0.01  -0.18     0.02  -0.00  -0.09     0.04  -0.01  -0.14
   6   8     0.00   0.00   0.00     0.01   0.00   0.01    -0.01  -0.00  -0.01
   7   6    -0.00  -0.01   0.02    -0.01  -0.05   0.19     0.01   0.04  -0.15
   8   1    -0.05  -0.04   0.00     0.04   0.03   0.00     0.05   0.04   0.00
   9   1     0.02   0.01  -0.64    -0.02  -0.00   0.47    -0.02  -0.01   0.53
  10   1     0.01  -0.01   0.03    -0.00   0.01  -0.02    -0.00   0.01  -0.03
  11   1     0.00   0.01   0.00     0.01  -0.00   0.00    -0.00  -0.00   0.00
  12   1    -0.07   0.03  -0.01    -0.03   0.01  -0.01    -0.06   0.02  -0.01
  13   1    -0.09  -0.02   0.70    -0.05  -0.01   0.36    -0.07  -0.01   0.53
  14   1    -0.01  -0.01  -0.04    -0.00  -0.01  -0.02    -0.00  -0.01  -0.03
  15   1     0.00   0.01  -0.06     0.05   0.07  -0.75    -0.04  -0.06   0.59
  16   1    -0.00   0.00   0.00    -0.02  -0.00   0.04     0.02   0.00  -0.03
  17   1    -0.00   0.01   0.00    -0.01   0.08   0.01     0.01  -0.06  -0.01
                     40                     41                     42
                        a                      a                      a 
 Frequencies --  2973.3654              2973.9697              2974.1178
 Red. masses --     1.6201                 1.6208                 1.6210
 Frc consts  --     0.0000                 0.0000                 0.0000
 IR Inten    --     2.6292                38.1193                39.3358
 Raman Activ --     0.0000                 0.0000                 0.0000
 Depolar     --     0.0000                 0.0000                 0.0000
 Atom AN      X      Y      Z        X      Y      Z        X      Y      Z
   1   6     0.08   0.06   0.03    -0.07  -0.05  -0.03     0.15   0.10   0.06
   2   8     0.01  -0.00  -0.00    -0.01   0.00   0.00     0.01  -0.00  -0.00
   3   6    -0.00  -0.00  -0.00    -0.00  -0.00   0.00    -0.00   0.00  -0.00
   4   8    -0.00   0.01  -0.00    -0.00   0.01  -0.00    -0.00  -0.00   0.00
   5   6    -0.16   0.07   0.03    -0.14   0.06   0.03     0.02  -0.01  -0.00
   6   8    -0.00  -0.01  -0.00     0.01   0.01   0.00     0.01   0.01   0.00
   7   6     0.01  -0.12   0.02    -0.01   0.15  -0.03    -0.01   0.14  -0.03
   8   1    -0.31  -0.22  -0.16     0.30   0.21   0.15    -0.58  -0.41  -0.30
   9   1     0.01   0.01   0.05    -0.01  -0.01  -0.05     0.02   0.02   0.10
  10   1     0.01   0.02   0.00    -0.01  -0.02   0.00     0.02   0.04   0.00
  11   1    -0.00  -0.00   0.00    -0.00   0.00  -0.00     0.00   0.00   0.00
  12   1     0.64  -0.28  -0.18     0.56  -0.25  -0.16    -0.06   0.03   0.02
  13   1    -0.04   0.00   0.09    -0.03   0.00   0.08     0.00  -0.00  -0.00
  14   1    -0.04  -0.01  -0.01    -0.04  -0.01  -0.01     0.00  -0.00  -0.00
  15   1    -0.00  -0.02   0.06    -0.00   0.03  -0.07    -0.00   0.03  -0.07
  16   1     0.02  -0.02  -0.00    -0.02   0.03   0.00    -0.02   0.03   0.00
  17   1    -0.03   0.46  -0.13     0.04  -0.59   0.16     0.03  -0.55   0.15
                     43                     44                     45
                        a                      a                      a 
 Frequencies --  3041.3694              3041.3850              3041.4416
 Red. masses --     1.7611                 1.7602                 1.7609
 Frc consts  --     0.0000                 0.0000                 0.0000
 IR Inten    --     5.5008                 6.2058                 3.8045
 Raman Activ --     0.0000                 0.0000                 0.0000
 Depolar     --     0.0000                 0.0000                 0.0000
 Atom AN      X      Y      Z        X      Y      Z        X      Y      Z
   1   6    -0.00  -0.03   0.01    -0.01  -0.23   0.09    -0.00  -0.06   0.02
   2   8     0.00  -0.00   0.00     0.00  -0.01   0.00     0.00  -0.00   0.00
   3   6    -0.00  -0.00   0.00    -0.00   0.00   0.00     0.00   0.00   0.00
   4   8     0.00   0.01   0.00    -0.00  -0.00  -0.00     0.00   0.00   0.00
   5   6     0.19   0.11   0.12    -0.03  -0.02  -0.02     0.04   0.02   0.02
   6   8     0.00   0.00  -0.00     0.00   0.00  -0.00    -0.01  -0.00   0.00
   7   6     0.05  -0.03  -0.02     0.05  -0.02  -0.02    -0.20   0.11   0.09
   8   1     0.00  -0.00   0.00     0.02  -0.01   0.03     0.00  -0.00   0.01
   9   1    -0.00  -0.00  -0.00    -0.00  -0.03  -0.02    -0.00  -0.01  -0.01
  10   1    -0.00   0.11  -0.04    -0.01   0.87  -0.33    -0.00   0.22  -0.08
  11   1    -0.00  -0.00  -0.00    -0.00   0.00  -0.00     0.00   0.00  -0.01
  12   1    -0.01   0.02   0.03     0.00  -0.01  -0.01    -0.00   0.00   0.01
  13   1     0.03   0.01  -0.01    -0.01  -0.00   0.00     0.01   0.00  -0.00
  14   1    -0.69  -0.44  -0.44     0.12   0.08   0.08    -0.13  -0.08  -0.09
  15   1     0.00  -0.00   0.00     0.00  -0.00   0.00    -0.02   0.02  -0.02
  16   1    -0.18   0.09   0.07    -0.17   0.08   0.07     0.77  -0.38  -0.32
  17   1     0.01   0.01  -0.01     0.01   0.00  -0.00    -0.02  -0.02   0.02
