      -----------------------------------------------------------      
     |                   =====================                   |     
     |                           x T B                           |     
     |                   =====================                   |     
     |                         S. Grimme                         |     
     |          Mulliken Center for Theoretical Chemistry        |     
     |                    University of Bonn                     |     
      -----------------------------------------------------------      

   * xtb version 6.7.1 (edcfbbe) compiled by 'albert@albert-system' on 2024-07-22

   xtb is free software: you can redistribute it and/or modify it under
   the terms of the GNU Lesser General Public License as published by
   the Free Software Foundation, either version 3 of the License, or
   (at your option) any later version.
   
   xtb is distributed in the hope that it will be useful,
   but WITHOUT ANY WARRANTY; without even the implied warranty of
   MERCHANTABILITY or FITNESS FOR A PARTICULAR PURPOSE.  See the
   GNU Lesser General Public License for more details.
   
   Cite this work as:
   * C. Bannwarth, E. Caldeweyher, S. Ehlert, A. Hansen, P. Pracht,
     J. Seibert, S. Spicher, S. Grimme, WIREs Comput. Mol. Sci., 2020, 11,
     e01493. DOI: 10.1002/wcms.1493
   
   for GFN2-xTB:
   * C. Bannwarth, S. Ehlert and S. Grimme., J. Chem. Theory Comput., 2019,
     15, 1652-1671. DOI: 10.1021/acs.jctc.8b01176
   for GFN1-xTB:
   * S. Grimme, C. Bannwarth, P. Shushkov, J. Chem. Theory Comput., 2017,
     13, 1989-2009. DOI: 10.1021/acs.jctc.7b00118
   for GFN0-xTB:
   * P. Pracht, E. Caldeweyher, S. Ehlert, S. Grimme, ChemRxiv, 2019, preprint.
     DOI: 10.26434/chemrxiv.8326202.v1
   for GFN-FF:
   * S. Spicher and S. Grimme, Angew. Chem. Int. Ed., 2020, 59, 15665-15673.
     DOI: 10.1002/anie.202004239
   
   for ALPB and GBSA implicit solvation:
   * S. Ehlert, M. Stahn, S. Spicher, S. Grimme, J. Chem. Theory Comput.,
     2021, 17, 4250-4261. DOI: 10.1021/acs.jctc.1c00471
   
   for ddCOSMO and CPCM-X implicit solvation:
   * M. Stahn, S. Ehlert, S. Grimme, J. Phys. Chem. A,
     2023, XX, XXXX-XXXX. DOI: 10.1021/acs.jpca.3c04382
   
   for DFT-D4:
   * E. Caldeweyher, C. Bannwarth and S. Grimme, J. Chem. Phys., 2017,
     147, 034112. DOI: 10.1063/1.4993215
   * E. Caldeweyher, S. Ehlert, A. Hansen, H. Neugebauer, S. Spicher,
     C. Bannwarth and S. Grimme, J. Chem. Phys., 2019, 150, 154122.
     DOI: 10.1063/1.5090222
   * E. Caldeweyher, J.-M. Mewes, S. Ehlert and S. Grimme, Phys. Chem. Chem. Phys.
     2020, 22, 8499-8512. DOI: 10.1039/D0CP00502A
   
   for sTDA-xTB:
   * S. Grimme and C. Bannwarth, J. Chem. Phys., 2016, 145, 054103.
     DOI: 10.1063/1.4959605
   
   in the mass-spec context:
   * V. Asgeirsson, C. Bauer and S. Grimme, Chem. Sci., 2017, 8, 4879.
     DOI: 10.1039/c7sc00601b
   * J. Koopman and S. Grimme, ACS Omega 2019, 4, 12, 15120-15133.
     DOI: 10.1021/acsomega.9b02011
   
   for metadynamics refer to:
   * S. Grimme, J. Chem. Theory Comput., 2019, 155, 2847-2862
     DOI: 10.1021/acs.jctc.9b00143
   
   for SPH calculations refer to:
   * S. Spicher and S. Grimme, J. Chem. Theory Comput., 2021, 17, 1701-1714
     DOI: 10.1021/acs.jctc.0c01306
   
   for ONIOM refer to:
   * C. Plett, A. Katbashev, S. Ehlert, S. Grimme, M. Bursch,
     Phys. Chem. Chem. Phys., 2023, 25, 17860-17868. DOI: 10.1039/D3CP02178E
   
   for DIPRO refer to:
   * J. Kohn, N. Gildemeister, S. Grimme, D. Fazzi, A. Hansen,
     J. Chem. Phys., 2023, just accepted.
   
   for PTB refer to:
   * S. Grimme, M. Mueller, A. Hansen, J. Chem. Phys., 2023, 158, 124111.
     DOI: 10.1063/5.0137838
   
   with help from (in alphabetical order)
   P. Atkinson, C. Bannwarth, F. Bohle, G. Brandenburg, E. Caldeweyher
   M. Checinski, S. Dohm, S. Ehlert, S. Ehrlich, I. Gerasimov, C. Hölzer
   A. Katbashev, J. Kohn, J. Koopman, C. Lavigne, S. Lehtola, F. März, M. Müller,
   F. Musil, H. Neugebauer, J. Pisarek, C. Plett, P. Pracht, F. Pultar,
   J. Seibert, P. Shushkov, S. Spicher, M. Stahn, M. Steiner, T. Strunk,
   J. Stückrath, T. Rose, and J. Unsleber
   
 * started run on 2025/04/11 at 17:52:14.853     
   ID    Z sym.   atoms
    1    6 C      1-7, 9-15, 18, 19
    2    8 O      8, 16, 20
    3    7 N      17
    4    1 H      21-33

           -------------------------------------------------
          |                Calculation Setup                |
           -------------------------------------------------

          program call               : /srv/scratch/z5358697/.xtb/bin/xtb xtb_opt.coord --opt normal --orca -I xtb_opt-xcontrol-inp
          hostname                   : k030
          coordinate file            : xtb_opt.coord
          omp threads                :                    16

           -------------------------------------------------
          |                   Orca driver                   |
           -------------------------------------------------
orca executable           : /apps/z_install_tree/linux-rocky8-ivybridge/gcc-12.2.0/orca-6.0.0-srtngmq3qlimg2qxbl6avaaiffipurdx/bin/orca
orca input file           : xtb_opt.inp
orca input line           : 
orca parallel             : true
orca number of threads    : 16
                         * ORCA takes the control...
  ------------------------------------------------------------------------

                                 *****************
                                 * O   R   C   A *
                                 *****************

                                            #,                                       
                                            ###                                      
                                            ####                                     
                                            #####                                    
                                            ######                                   
                                           ########,                                 
                                     ,,################,,,,,                         
                               ,,#################################,,                 
                          ,,##########################################,,             
                       ,#########################################, ''#####,          
                    ,#############################################,,   '####,        
                  ,##################################################,,,,####,       
                ,###########''''           ''''###############################       
              ,#####''   ,,,,##########,,,,          '''####'''          '####       
            ,##' ,,,,###########################,,,                        '##       
           ' ,,###''''                  '''############,,,                           
         ,,##''                                '''############,,,,        ,,,,,,###''
      ,#''                                            '''#######################'''  
     '                                                          ''''####''''         
             ,#######,   #######,   ,#######,      ##                                
            ,#'     '#,  ##    ##  ,#'     '#,    #''#        ,####,   ,####,        
            ##       ##  ##   ,#'  ##            #'  '#       #'       #'  '#        
            ##       ##  #######   ##           ,######,      #####,   #    #        
            '#,     ,#'  ##    ##  '#,     ,#' ,#      #,     #,   #   #,  ,#        
             '#######'   ##     ##  '#######'  #'      '#     '####' # '####'        



                #########################################################
                #                        -***-                          #
                #          Department of theory and spectroscopy        #
                #                                                       #
                #                      Frank Neese                      #
                #                                                       #
                #     Directorship, Architecture, Infrastructure        #
                #                    SHARK, DRIVERS                     #
                #        Core code/Algorithms in most modules           #
                #                                                       #
                #        Max Planck Institute fuer Kohlenforschung      #
                #                Kaiser Wilhelm Platz 1                 #
                #                 D-45470 Muelheim/Ruhr                 #
                #                      Germany                          #
                #                                                       #
                #                  All rights reserved                  #
                #                        -***-                          #
                #########################################################


                         Program Version 6.0.0  -   RELEASE  -


 With contributions from (in alphabetic order):
   Daniel Aravena         : Magnetic Suceptibility
   Michael Atanasov       : Ab Initio Ligand Field Theory (pilot matlab implementation)
   Alexander A. Auer      : GIAO ZORA, VPT2 properties, NMR spectrum
   Ute Becker             : All parallelization in ORCA, NUMFREQ, NUMCALC
   Giovanni Bistoni       : ED, misc. LED, open-shell LED, HFLD
   Martin Brehm           : Molecular dynamics
   Dmytro Bykov           : pre 5.0 version of the SCF Hessian
   Marcos Casanova-Páez   : Triplet and SCS-CIS(D). UHF-(DLPNO)-IP/EA/STEOM-CCSD. UHF-CVS-IP/STEOM-CCSD
   Vijay G. Chilkuri      : MRCI spin determinant printing, contributions to CSF-ICE
   Pauline Colinet        : FMM embedding
   Dipayan Datta          : RHF DLPNO-CCSD density
   Achintya Kumar Dutta   : EOM-CC, STEOM-CC
   Nicolas Foglia         : Exact transition moments, OPA infrastructure, MCD improvements
   Dmitry Ganyushin       : Spin-Orbit,Spin-Spin,Magnetic field MRCI
   Miquel Garcia          : C-PCM and meta-GGA Hessian, CCSD/C-PCM, Gaussian charge scheme
   Tiago L. C. Gouveia    : GS-ROHF, GS-ROCIS
   Yang Guo               : DLPNO-NEVPT2, F12-NEVPT2, CIM, IAO-localization
   Andreas Hansen         : Spin unrestricted coupled pair/coupled cluster methods
   Ingolf Harden          : AUTO-CI MPn and infrastructure 
   Benjamin Helmich-Paris : MC-RPA, TRAH-(SCF,CASSCF), AVAS, COSX integrals, SCF dyn. polar.
   Lee Huntington         : MR-EOM, pCC
   Robert Izsak           : Overlap fitted RIJCOSX, COSX-SCS-MP3, EOM
   Riya Kayal             : Wick's Theorem for AUTO-CI, AUTO-CI UHF-CCSDT
   Emily Kempfer          : AUTO-CI, RHF CISDT and CCSDT
   Christian Kollmar      : KDIIS, OOCD, Brueckner-CCSD(T), CCSD density, CASPT2, CASPT2-K, improved NEVPT2
   Axel Koslowski         : Symmetry handling
   Simone Kossmann        : Meta GGA functionals, TD-DFT gradient, OOMP2, (MP2 Hessian; deprecated post 5.0)
   Lucas Lang             : DCDCAS
   Marvin Lechner         : AUTO-CI (C++ implementation), FIC-MRCC
   Spencer Leger          : CASSCF response
   Dagmar Lenk            : GEPOL surface, SMD, ORCA-2-JSON
   Dimitrios Liakos       : Extrapolation schemes; Compound Job, initial MDCI parallelization
   Dimitrios Manganas     : Further ROCIS development; embedding schemes. LFT, Crystal Embedding
   Dimitrios Pantazis     : SARC Basis sets
   Anastasios Papadopoulos: AUTO-CI, single reference methods and gradients
   Taras Petrenko         : pre 6.0 DFT Hessian and TD-DFT gradient, (ASA, deprecated), ECA, 1-Electron XAS/XES, NRVS
   Peter Pinski           : DLPNO-MP2, DLPNO-MP2 Gradient
   Christoph Reimann      : Effective Core Potentials
   Marius Retegan         : Local ZFS, SOC
   Christoph Riplinger    : Optimizer, TS searches, QM/MM, DLPNO-CCSD(T), (RO)-DLPNO pert. Triples
   Michael Roemelt        : Original ROCIS implementation
   Masaaki Saitow         : Open-shell DLPNO-CCSD energy and density
   Barbara Sandhoefer     : DKH picture change effects
   Kantharuban Sivalingam : CASSCF convergence/infrastructure, NEVPT2 and variants, FIC-MRCI
   Bernardo de Souza      : ESD, SOC TD-DFT
   Georgi Stoychev        : AutoAux, RI-MP2 NMR, DLPNO-MP2 response, X2C
   Van Anh Tran           : RI-MP2 g-tensors
   Willem Van den Heuvel  : Paramagnetic NMR
   Zikuan Wang            : NOTCH, Electric field optimization 
   Frank Wennmohs         : Technical directorship and infrastructure
   Hang Xu                : AUTO-CI-Response properties 


 We gratefully acknowledge several colleagues who have allowed us to
 interface, adapt or use parts of their codes:
   Stefan Grimme, W. Hujo, H. Kruse, P. Pracht,  : VdW corrections, initial TS optimization,
                  C. Bannwarth, S. Ehlert,         DFT functionals, gCP, sTDA/sTD-DF
                  L. Wittmann, M. Mueller
   Ed Valeev, F. Pavosevic, A. Kumar             : LibInt (2-el integral package), F12 methods
   Garnet Chan, S. Sharma, J. Yang, R. Olivares  : DMRG
   Ulf Ekstrom                                   : XCFun DFT Library
   Mihaly Kallay                                 : mrcc  (arbitrary order and MRCC methods)
   Frank Weinhold                                : gennbo (NPA and NBO analysis)
   Simon Mueller                                 : openCOSMO-RS
   Christopher J. Cramer and Donald G. Truhlar   : smd solvation model
   Lars Goerigk                                  : TD-DFT with DH, B97 family of functionals
   V. Asgeirsson, H. Jonsson                     : NEB implementation
   FAccTs GmbH                                   : IRC, NEB, NEB-TS, DLPNO-Multilevel, CI-OPT
                                                   MM, QMMM, 2- and 3-layer-ONIOM, Crystal-QMMM,
                                                   LR-CPCM, SF, NACMEs, symmetry and pop. for TD-DFT,
                                                   nearIR, NL-DFT gradient (VV10), updates on ESD,
                                                   ML-optimized integration grids, MBIS, APM,
                                                   GOAT, DOCKER, SOLVATOR, interface openCOSMO-RS
   S Lehtola, MJT Oliveira, MAL Marques          : LibXC Library
   Liviu Ungur et al                             : ANISO software


 Your calculation uses the libint2 library for the computation of 2-el integrals
 For citations please refer to: http://libint.valeyev.net

 Your ORCA version has been built with support for libXC version: 6.2.2
 For citations please refer to: https://libxc.gitlab.io

 This ORCA versions uses:
   CBLAS   interface :  Fast vector & matrix operations
   LAPACKE interface :  Fast linear algebra routines
   SCALAPACK package :  Parallel linear algebra routines
   Shared memory     :  Shared parallel matrices
   BLAS/LAPACK       :  OpenBLAS 0.3.27  USE64BITINT DYNAMIC_ARCH NO_AFFINITY SkylakeX SINGLE_THREADED
        Core in use  :  SkylakeX
   Copyright (c) 2011-2014, The OpenBLAS Project




***************************************
The coordinates will be read from file: xtb_opt.xyz
***************************************


Your calculation utilizes the geometrical counterpoise correction gCP
Please cite in your paper:
H.Kruse, S. Grimme J.Chem.Phys., 136, (2012), 154101 
   

Your calculation utilizes the atom-pairwise dispersion correction
based on EEQ partial charges (D4)


Your calculation utilizes the SMD solvation module
Please cite in your paper:
A.V. Marenich, C.J. Cramer, D.G. Truhlar J. Phys. Chem. B, 113, (2009), 6378 

================================================================================

----- Orbital basis set information -----
Your calculation utilizes the basis: def2-mTZVPP
   Stefan Grimme, Andreas Hansen, Sebastian Ehlert, and Jan-Michael Mewes 
   J. Chem. Phys. 154, 064103 (2021). DOI: 10.1063/5.0040021

----- AuxJ basis set information -----
Your calculation utilizes the auxiliary basis: def2/J
   F. Weigend, Phys. Chem. Chem. Phys. 8, 1057 (2006).

================================================================================
                                        WARNINGS
                       Please study these warnings very carefully!
================================================================================

WARNING: Old DensityContainer found on disk!
         Will remove this file - 
         If you want to keep old densities, please start your calculation with a different basename. 

Using LibXC functional ID 497 : Re-regularized SCAN exchange by Furness et al
[ 1]  J. W. Furness, A. D. Kaplan, J. Ning, J. P. Perdew, and J. Sun.,  J. Phys. Chem. Lett. 11, 8208-8215 (2020)
[ 2]  J. W. Furness, A. D. Kaplan, J. Ning, J. P. Perdew, and J. Sun.,  J. Phys. Chem. Lett. 11, 9248-9248 (2020)
Using LibXC functional ID 498 : Re-regularized SCAN correlation by Furness et al
[ 1]  J. W. Furness, A. D. Kaplan, J. Ning, J. P. Perdew, and J. Sun.,  J. Phys. Chem. Lett. 11, 8208-8215 (2020)
[ 2]  J. W. Furness, A. D. Kaplan, J. Ning, J. P. Perdew, and J. Sun.,  J. Phys. Chem. Lett. 11, 9248-9248 (2020)
Using LibXC functional ID 497 : Re-regularized SCAN exchange by Furness et al
[ 1]  J. W. Furness, A. D. Kaplan, J. Ning, J. P. Perdew, and J. Sun.,  J. Phys. Chem. Lett. 11, 8208-8215 (2020)
[ 2]  J. W. Furness, A. D. Kaplan, J. Ning, J. P. Perdew, and J. Sun.,  J. Phys. Chem. Lett. 11, 9248-9248 (2020)
Using LibXC functional ID 498 : Re-regularized SCAN correlation by Furness et al
[ 1]  J. W. Furness, A. D. Kaplan, J. Ning, J. P. Perdew, and J. Sun.,  J. Phys. Chem. Lett. 11, 8208-8215 (2020)
[ 2]  J. W. Furness, A. D. Kaplan, J. Ning, J. P. Perdew, and J. Sun.,  J. Phys. Chem. Lett. 11, 9248-9248 (2020)

================================================================================
                                       INPUT FILE
================================================================================
NAME = xtb_opt.inp
|  1> ! r2scan-3c def2/J RI DEFGRID2 scfconv7 ENGRAD tightSCF miniprint
|  2> %cpcm
|  3>     smd true
|  4>     smdsolvent "water"
|  5> end
|  6> * xyzfile 0 1 xtb_opt.xyz
|  7> 
|  8>                          ****END OF INPUT****
================================================================================

                     *******************************
                     * Energy+Gradient Calculation *
                     *******************************

---------------------------------
CARTESIAN COORDINATES (ANGSTROEM)
---------------------------------
  C     -4.661755   -1.154768    0.015444
  C     -3.867830   -2.302232    0.036274
  C     -2.483473   -2.195649    0.044731
  C     -1.873087   -0.938969    0.030554
  C     -2.673932    0.215089    0.010236
  C     -4.066838    0.098521    0.004251
  C     -2.051331    1.550875   -0.000168
  O     -2.743742    2.573674    0.014984
  C     -0.570005    1.628844   -0.028854
  C      0.003860    2.889333   -0.078719
  C      1.395806    3.016903   -0.105464
  C      2.208999    1.908021   -0.077696
  C      1.660938    0.599409   -0.022317
  C      0.231670    0.455528   -0.002189
  C     -0.391612   -0.853154    0.034434
  O      0.269902   -1.914412    0.064854
  N      2.479537   -0.470220    0.007797
  C      3.932073   -0.402380   -0.009368
  C      4.495139   -1.815677    0.077648
  O      5.923791   -1.800626    0.021225
  H     -5.743053   -1.241637    0.007920
  H     -4.332525   -3.282708    0.045481
  H     -1.864173   -3.084882    0.060920
  H     -4.673160    0.997242   -0.010862
  H     -0.631594    3.766000   -0.098658
  H      1.844618    4.004011   -0.148367
  H      3.284602    2.032568   -0.099077
  H      2.019123   -1.375174    0.048245
  H      4.302890    0.187243    0.840999
  H      4.291397    0.075342   -0.930560
  H      4.156413   -2.410349   -0.777707
  H      4.143607   -2.305739    0.996800
  H      6.245798   -1.400946    0.839180

----------------------------
CARTESIAN COORDINATES (A.U.)
----------------------------
  NO LB      ZA    FRAG     MASS         X           Y           Z
   0 C     6.0000    0    12.011   -8.809440   -2.182195    0.029185
   1 C     6.0000    0    12.011   -7.309139   -4.350589    0.068548
   2 C     6.0000    0    12.011   -4.693084   -4.149175    0.084529
   3 C     6.0000    0    12.011   -3.539622   -1.774393    0.057740
   4 C     6.0000    0    12.011   -5.053000    0.406460    0.019343
   5 C     6.0000    0    12.011   -7.685210    0.186178    0.008032
   6 C     6.0000    0    12.011   -3.876453    2.930729   -0.000318
   7 O     8.0000    0    15.999   -5.184920    4.863539    0.028316
   8 C     6.0000    0    12.011   -1.077153    3.078070   -0.054526
   9 C     6.0000    0    12.011    0.007295    5.460049   -0.148758
  10 C     6.0000    0    12.011    2.637691    5.701120   -0.199299
  11 C     6.0000    0    12.011    4.174403    3.605638   -0.146823
  12 C     6.0000    0    12.011    3.138717    1.132719   -0.042173
  13 C     6.0000    0    12.011    0.437793    0.860822   -0.004136
  14 C     6.0000    0    12.011   -0.740040   -1.612227    0.065071
  15 O     8.0000    0    15.999    0.510040   -3.617714    0.122556
  16 N     7.0000    0    14.007    4.685646   -0.888587    0.014734
  17 C     6.0000    0    12.011    7.430542   -0.760389   -0.017704
  18 C     6.0000    0    12.011    8.494582   -3.431133    0.146734
  19 O     8.0000    0    15.999   11.194342   -3.402690    0.040110
  20 H     1.0000    0     1.008  -10.852798   -2.346354    0.014966
  21 H     1.0000    0     1.008   -8.187285   -6.203420    0.085946
  22 H     1.0000    0     1.008   -3.522777   -5.829582    0.115122
  23 H     1.0000    0     1.008   -8.830993    1.884514   -0.020526
  24 H     1.0000    0     1.008   -1.193540    7.116709   -0.186437
  25 H     1.0000    0     1.008    3.485823    7.566483   -0.280373
  26 H     1.0000    0     1.008    6.206998    3.840997   -0.187229
  27 H     1.0000    0     1.008    3.815589   -2.598703    0.091170
  28 H     1.0000    0     1.008    8.131283    0.353837    1.589258
  29 H     1.0000    0     1.008    8.109564    0.142376   -1.758504
  30 H     1.0000    0     1.008    7.854482   -4.554899   -1.469652
  31 H     1.0000    0     1.008    7.830282   -4.357216    1.883680
  32 H     1.0000    0     1.008   11.802848   -2.647405    1.585820

------------------------------------------------------------------------------
                   ___                                                        
                  /   \      - P O W E R E D   B Y -                         
                 /     \                                                     
                 |  |  |   _    _      __       _____    __    __             
                 |  |  |  | |  | |    /  \     |  _  \  |  |  /  |          
                  \  \/   | |  | |   /    \    | | | |  |  | /  /          
                 / \  \   | |__| |  /  /\  \   | |_| |  |  |/  /          
                |  |  |   |  __  | /  /__\  \  |    /   |      \           
                |  |  |   | |  | | |   __   |  |    \   |  |\   \          
                \     /   | |  | | |  |  |  |  | |\  \  |  | \   \       
                 \___/    |_|  |_| |__|  |__|  |_| \__\ |__|  \__/        
                                                                              
                      - O R C A' S   B I G   F R I E N D -                    
                                      &                                       
                       - I N T E G R A L  F E E D E R -                       
                                                                              
 v1 FN, 2020, v2 2021, v3 2022-2024                                           
------------------------------------------------------------------------------


----------------------
SHARK INTEGRAL PACKAGE
----------------------

Number of atoms                             ...     33
Number of basis functions                   ...    465
Number of shells                            ...    223
Maximum angular momentum                    ...      2
Integral batch strategy                     ... SHARK/LIBINT Hybrid
RI-J (if used) integral strategy            ... SPLIT-RIJ (Revised 2003 algorithm where possible)
Printlevel                                  ...      1
Contraction scheme used                     ... SEGMENTED contraction
Prescreening option                         ... SCHWARTZ
   Thresh                                   ... 3.000e-11
   Tcut                                     ... 1.000e-12
   Tpresel                                  ... 1.000e-12 
Coulomb Range Separation                    ... NOT USED
Exchange Range Separation                   ... NOT USED
Multipole approximations                    ... NOT USED
Finite Nucleus Model                        ... NOT USED
CABS basis                                  ... NOT available
Auxiliary Coulomb fitting basis             ... AVAILABLE
   # of basis functions in Aux-J            ...   1123
   # of shells in Aux-J                     ...    365
   Maximum angular momentum in Aux-J        ...      4
Auxiliary J/K fitting basis                 ... NOT available
Auxiliary Correlation fitting basis         ... NOT available
Auxiliary 'external' fitting basis          ... NOT available

Checking pre-screening integrals            ... done (  0.0 sec) Dimension = 223
Check shell pair data                       ... done (  0.0 sec)
Shell pair information
Shell pair cut-off parameter TPreSel        ...   1.0e-12
Total number of shell pairs                 ...     24976
Shell pairs after pre-screening             ...     18078
Total number of primitive shell pairs       ...     92714
Primitive shell pairs kept                  ...     42968
          la=0 lb=0:   5447 shell pairs
          la=1 lb=0:   6888 shell pairs
          la=1 lb=1:   2151 shell pairs
          la=2 lb=0:   2067 shell pairs
          la=2 lb=1:   1313 shell pairs
          la=2 lb=2:    212 shell pairs

Calculating one electron integrals          ... done (  0.1 sec)
Calculating RI/J V-Matrix + Cholesky decomp.... done (  0.2 sec)
Calculating Nuclear repulsion               ... done (  0.0 sec) ENN=   1441.537399852838 Eh

Diagonalization of the overlap matrix:
Smallest eigenvalue                        ... 6.278e-06
Time for diagonalization                   ...    0.027 sec
Threshold for overlap eigenvalues          ... 1.000e-07
Number of eigenvalues below threshold      ... 0
Time for construction of square roots      ...    0.031 sec
Total time needed                          ...    0.067 sec

-------------------
DFT GRID GENERATION
-------------------

General Integration Accuracy     IntAcc      ... 4.388
Radial Grid Type                 RadialGrid  ... OptM3 with GC (2021)
Angular Grid (max. ang.)         AngularGrid ... 4 (Lebedev-302)
Angular grid pruning method      GridPruning ... 4 (adaptive)
Weight generation scheme         WeightScheme... mBecke (2022)
Basis function cutoff            BFCut       ... 1.0000e-11
Integration weight cutoff        WCut        ... 1.0000e-14
Partially contracted basis set               ... off
Rotationally invariant grid construction     ... off
Angular grids for H and He will be reduced by one unit
Diffuse basis detected: some atoms will have their outermost
                        angular grid increased by 1.

Total number of grid points                  ...   161897
Total number of batches                      ...     2546
Average number of points per batch           ...       63
Average number of grid points per atom       ...     4906
Initializing property integral containers    ... done (  0.0 sec)

SHARK setup successfully completed in   3.2 seconds

Maximum memory used throughout the entire STARTUP-calculation: 83.8 MB
Occupation numbers will be reassigned to an Aufbau configuration
             **** ENERGY FILE WAS UPDATED (xtb_opt.en.tmp) ****
Finished Guess after   0.6 sec
Maximum memory used throughout the entire GUESS-calculation: 44.7 MB
--------------------
CPCM SOLVATION MODEL
--------------------
CPCM parameters:
  Epsilon                                         ...      78.3550
  Refrac                                          ...       1.3328
  Rsolv                                           ...       1.3000
  Surface type                                    ... GAUSSIAN VDW
  Discretization scheme                           ... Constant charge density
    Threshold for H atoms                         ...       5.0000 (charges/Ang^2)
    Threshold for non-H atoms                     ...       5.0000 (charges/Ang^2)
  Epsilon function type                           ...         CPCM
Solvent:                                          ... WATER
SMD-CDS solvent descriptors:
  Soln                                            ...       1.3328
  Soln25                                          ...       1.3323
  Sola                                            ...       0.0000
  Solb                                            ...       0.0000
  Solg                                            ...       0.0000
  Solc                                            ...       0.0000
  Solh                                            ...       0.0000
Radii:
  Scheme                                          ... Element-dependent radii
  Radius for C  used is    3.4960 Bohr (=   1.8500 Ang.)
  Radius for O  used is    2.8724 Bohr (=   1.5200 Ang.)
  Radius for N  used is    3.5716 Bohr (=   1.8900 Ang.)
  Radius for H  used is    2.2677 Bohr (=   1.2000 Ang.)
Calculating surface                               ...        done! (  0.0s)
Cavity surface points                             ...         2413
Cavity Volume                                     ...    1727.5510
Cavity Surface-area                               ...     982.0332
Calculating surface distance matrix               ...        done! (  0.0s)
Performing Cholesky decomposition & store         ...        done! (  0.2s)
Overall time for CPCM initialization              ...                 0.3s

----------------------------------------D-I-I-S--------------------------------------------
Iteration    Energy (Eh)           Delta-E    RMSDP     MaxDP     DIISErr   Damp  Time(sec)
-------------------------------------------------------------------------------------------
               ***  Starting incremental Fock matrix formation  ***
                              *** Initializing SOSCF ***
---------------------------------------S-O-S-C-F--------------------------------------
Iteration    Energy (Eh)           Delta-E    RMSDP     MaxDP     MaxGrad    Time(sec)
--------------------------------------------------------------------------------------
    1    -897.8165938309382454     0.00e+00  1.65e-06  6.65e-05  6.59e-06    12.9
               *** Restarting incremental Fock matrix formation ***
    2    -897.8165938308491150     8.91e-11  2.77e-06  1.27e-04  8.26e-06    12.9
                  *** Gradient check signals convergence ***

               *****************************************************
               *                     SUCCESS                       *
               *           SCF CONVERGED AFTER   2 CYCLES          *
               *****************************************************


SMD CDS free energy correction energy :                 5.34573     Kcal/mol
Total Energy after SMD CDS correction =              -897.808074862 Eh
             **** ENERGY FILE WAS UPDATED (xtb_opt.en.tmp) ****

----------------
TOTAL SCF ENERGY
----------------

Total Energy       :       -897.80807486226558 Eh          -24430.59974 eV

Components:
Nuclear Repulsion  :       1441.53739985283823 Eh           39226.22687 eV
Electronic Energy  :      -2339.31555479619965 Eh          -63656.01246 eV
One Electron Energy:      -4083.50485671006163 Eh         -111117.81627 eV
Two Electron Energy:       1744.18930191386175 Eh           47461.80382 eV
CPCM Dielectric    :         -0.03843888748768 Eh              -1.04598 eV
SMD CDS (Gcds)     :          0.00851896858352 Eh               0.23181 eV

Virial components:
Potential Energy   :      -1791.72010470561554 Eh          -48755.18271 eV
Kinetic Energy     :        893.91202984334984 Eh           24324.58297 eV
Virial Ratio       :          2.00435842106253

DFT components:
N(Alpha)           :       70.000053063167 electrons
N(Beta)            :       70.000053063167 electrons
N(Total)           :      140.000106126334 electrons
E(X)               :     -119.478290492675 Eh       
E(C)               :       -4.612772588873 Eh       
E(XC)              :     -124.091063081548 Eh       

CPCM Solvation Model Properties:
Surface-charge          :         -0.05875201136040
Corrected charge        :         -0.00000000000000
Outlying charge corr.   :          0.00019968856617 Eh               0.00543 eV
Free-energy (cav+disp)  :          0.00851896858352 Eh               0.23181 eV

---------------
SCF CONVERGENCE
---------------

  Last Energy change         ...   -8.9130e-11  Tolerance :   1.0000e-07
  Last MAX-Density change    ...    1.2739e-04  Tolerance :   1.0000e-07
  Last RMS-Density change    ...    2.7712e-06  Tolerance :   5.0000e-09
  Last DIIS Error            ...    3.6512e-05  Tolerance :   1.0000e-07
  Last Orbital Gradient      ...    8.2606e-06  Tolerance :   1.0000e-04
  Last Orbital Rotation      ...    5.0240e-05  Tolerance :   1.0000e-04


----------------
ORBITAL ENERGIES
----------------

  NO   OCC          E(Eh)            E(eV) 
   0   2.0000     -18.958233      -515.8797 
   1   2.0000     -18.950037      -515.6567 
   2   2.0000     -18.946813      -515.5690 
   3   2.0000     -14.188521      -386.0893 
   4   2.0000     -10.134916      -275.7851 
   5   2.0000     -10.130164      -275.6558 
   6   2.0000     -10.103039      -274.9177 
   7   2.0000     -10.080746      -274.3110 
   8   2.0000     -10.066590      -273.9258 
   9   2.0000     -10.063719      -273.8477 
  10   2.0000     -10.063672      -273.8464 
  11   2.0000     -10.061801      -273.7955 
  12   2.0000     -10.059931      -273.7446 
  13   2.0000     -10.052799      -273.5506 
  14   2.0000     -10.052561      -273.5441 
  15   2.0000     -10.052408      -273.5399 
  16   2.0000     -10.051113      -273.5047 
  17   2.0000     -10.050948      -273.5002 
  18   2.0000     -10.047947      -273.4185 
  19   2.0000     -10.044796      -273.3328 
  20   2.0000      -1.013620       -27.5820 
  21   2.0000      -1.007710       -27.4212 
  22   2.0000      -0.989348       -26.9215 
  23   2.0000      -0.921116       -25.0649 
  24   2.0000      -0.849110       -23.1055 
  25   2.0000      -0.831137       -22.6164 
  26   2.0000      -0.770907       -20.9774 
  27   2.0000      -0.742670       -20.2091 
  28   2.0000      -0.736453       -20.0399 
  29   2.0000      -0.729229       -19.8433 
  30   2.0000      -0.691120       -18.8063 
  31   2.0000      -0.650119       -17.6906 
  32   2.0000      -0.626051       -17.0357 
  33   2.0000      -0.613431       -16.6923 
  34   2.0000      -0.592313       -16.1177 
  35   2.0000      -0.569906       -15.5079 
  36   2.0000      -0.550767       -14.9871 
  37   2.0000      -0.518934       -14.1209 
  38   2.0000      -0.514235       -13.9930 
  39   2.0000      -0.490133       -13.3372 
  40   2.0000      -0.471673       -12.8349 
  41   2.0000      -0.463062       -12.6006 
  42   2.0000      -0.459496       -12.5035 
  43   2.0000      -0.443816       -12.0768 
  44   2.0000      -0.436955       -11.8901 
  45   2.0000      -0.426524       -11.6063 
  46   2.0000      -0.425747       -11.5852 
  47   2.0000      -0.417098       -11.3498 
  48   2.0000      -0.413552       -11.2533 
  49   2.0000      -0.407521       -11.0892 
  50   2.0000      -0.398836       -10.8529 
  51   2.0000      -0.389071       -10.5872 
  52   2.0000      -0.384504       -10.4629 
  53   2.0000      -0.376043       -10.2326 
  54   2.0000      -0.371090       -10.0979 
  55   2.0000      -0.357048        -9.7158 
  56   2.0000      -0.347509        -9.4562 
  57   2.0000      -0.344372        -9.3708 
  58   2.0000      -0.335912        -9.1406 
  59   2.0000      -0.329063        -8.9543 
  60   2.0000      -0.322839        -8.7849 
  61   2.0000      -0.306988        -8.3536 
  62   2.0000      -0.286936        -7.8079 
  63   2.0000      -0.263758        -7.1772 
  64   2.0000      -0.252741        -6.8774 
  65   2.0000      -0.252394        -6.8680 
  66   2.0000      -0.250783        -6.8242 
  67   2.0000      -0.244022        -6.6402 
  68   2.0000      -0.232649        -6.3307 
  69   2.0000      -0.197609        -5.3772 
  70   0.0000      -0.134630        -3.6635 
  71   0.0000      -0.082041        -2.2325 
  72   0.0000      -0.050561        -1.3758 
  73   0.0000      -0.029931        -0.8145 
  74   0.0000       0.022131         0.6022 
  75   0.0000       0.027735         0.7547 
  76   0.0000       0.059900         1.6300 
  77   0.0000       0.074191         2.0188 
  78   0.0000       0.083488         2.2718 
  79   0.0000       0.093443         2.5427 
  80   0.0000       0.101363         2.7582 
*Only the first 10 virtual orbitals were printed.
Total SCF time: 0 days 0 hours 0 min 26 sec 
Finished LeanSCF after  27.2 sec

Maximum memory used throughout the entire LEANSCF-calculation: 82.7 MB


-------------------------------------------------------------------------------
                          DFT DISPERSION CORRECTION                            
                                                                               
                                DFTD4 V3.4.0                                   
-------------------------------------------------------------------------------
-------------------------   ----------------
Dispersion correction           -0.015350145
-------------------------   ----------------

------------------   -----------------
gCP correction             0.015770851
------------------   -----------------

-------------------------   --------------------
FINAL SINGLE POINT ENERGY      -897.807654155996
-------------------------   --------------------

------------------------------------------------------------------------------
                         ORCA SCF GRADIENT CALCULATION
------------------------------------------------------------------------------

Nuc. rep. gradient        (SHARK) ... done (  0.0 sec)
HCore & Overlap gradient  (SHARK) ... done (  1.7 sec)
Split-RIJ-J gradient      (SHARK) ... done (  9.3 sec)
XC gradient                       ... done ( 20.9 sec)
CPCM gradient                     ... done (  4.4 sec)
SMD gradient                      ... done (  0.0 sec)
Dispersion correction             ... done (  0.0 sec)

-------------------
DISPERSION GRADIENT
-------------------

   1   C   :   -0.000122337   -0.000044282   -0.000000284
   2   C   :   -0.000093675   -0.000099324    0.000000739
   3   C   :   -0.000050755   -0.000135785    0.000002248
   4   C   :   -0.000060575   -0.000089626    0.000002687
   5   C   :   -0.000106787    0.000011223    0.000001073
   6   C   :   -0.000141502    0.000013185   -0.000000363
   7   C   :   -0.000085582    0.000108409    0.000000849
   8   O   :   -0.000083523    0.000121477    0.000001612
   9   C   :   -0.000013045    0.000116699   -0.000001728
  10   C   :    0.000007950    0.000160204   -0.000004646
  11   C   :    0.000053431    0.000154003   -0.000006364
  12   C   :    0.000086360    0.000113246   -0.000006059
  13   C   :    0.000076078    0.000033026   -0.000002758
  14   C   :    0.000027257    0.000017452    0.000000253
  15   C   :    0.000005149   -0.000101750    0.000003847
  16   O   :    0.000016087   -0.000136729    0.000004580
  17   N   :    0.000080404   -0.000061838   -0.000000216
  18   C   :    0.000120517   -0.000025906   -0.000001236
  19   C   :    0.000074899   -0.000066052    0.000004300
  20   O   :    0.000075711   -0.000028339    0.000015003
  21   H   :   -0.000046386   -0.000009725   -0.000000321
  22   H   :   -0.000025264   -0.000039444    0.000000269
  23   H   :    0.000000021   -0.000058721    0.000000973
  24   H   :   -0.000048877    0.000026680   -0.000000463
  25   H   :   -0.000009890    0.000056428   -0.000001473
  26   H   :    0.000019106    0.000051847   -0.000002284
  27   H   :    0.000035486    0.000040168   -0.000002836
  28   H   :    0.000024798   -0.000028410    0.000000163
  29   H   :    0.000041559   -0.000008998    0.000014851
  30   H   :    0.000041178   -0.000011322   -0.000017946
  31   H   :    0.000038833   -0.000029448   -0.000009451
  32   H   :    0.000038808   -0.000029991    0.000010678
  33   H   :    0.000024568   -0.000018356   -0.000005700

Difference to translation invariance:
           :   -0.0000000000    0.0000000000    0.0000000000

Difference to rotation invariance:
           :   -0.0000000000   -0.0000000000   -0.0000000000

Norm of the Dispersion gradient    ...    0.0005819084
RMS gradient                       ...    0.0000584840
MAX gradient                       ...    0.0001602039
gCP correction                   ... done

------------------
CARTESIAN GRADIENT
------------------

   1   C   :    0.000027168   -0.000092236   -0.000023675
   2   C   :    0.000012472    0.000055712   -0.000013982
   3   C   :   -0.000078803   -0.000032101    0.000008259
   4   C   :    0.000033832    0.000006141    0.000085551
   5   C   :    0.000122152    0.000047478   -0.000001641
   6   C   :   -0.000016177    0.000008824    0.000004646
   7   C   :   -0.000017766   -0.000033367   -0.000135493
   8   O   :   -0.000043438    0.000047739    0.000143489
   9   C   :    0.000022406   -0.000042692    0.000005215
  10   C   :   -0.000017188   -0.000015061   -0.000013165
  11   C   :    0.000093544   -0.000130466   -0.000026869
  12   C   :   -0.000068480    0.000245428    0.000003245
  13   C   :   -0.000168446    0.000247938    0.000039236
  14   C   :   -0.000269991   -0.000042176    0.000094599
  15   C   :    0.000157307   -0.000030229   -0.000125549
  16   O   :   -0.000093246    0.000146575   -0.000044363
  17   N   :    0.000291171    0.000097582   -0.000235478
  18   C   :   -0.000167076    0.000217685   -0.000053286
  19   C   :    0.000938822    0.000139480    0.000013206
  20   O   :   -0.000380740    0.000298340    0.000446435
  21   H   :    0.000051358    0.000018634   -0.000021034
  22   H   :    0.000017291    0.000002120   -0.000010328
  23   H   :   -0.000030191    0.000092581   -0.000003477
  24   H   :    0.000013454   -0.000001875    0.000007647
  25   H   :    0.000065990   -0.000088657   -0.000003802
  26   H   :   -0.000015594   -0.000032801    0.000001417
  27   H   :   -0.000012171   -0.000035633    0.000020143
  28   H   :   -0.000072564   -0.000353876    0.000162036
  29   H   :   -0.000030197    0.000015482    0.000035714
  30   H   :    0.000037007   -0.000044255    0.000090971
  31   H   :   -0.000207611   -0.000312000   -0.000151340
  32   H   :   -0.000162180   -0.000087083    0.000215006
  33   H   :   -0.000032118   -0.000313231   -0.000513331

Difference to translation invariance:
           :    0.0000000000   -0.0000000000   -0.0000000000

Difference to rotation invariance:
           :    0.0001864970   -0.0000304781   -0.0008811375

Norm of the Cartesian gradient     ...    0.0016739884
RMS gradient                       ...    0.0001682422
MAX gradient                       ...    0.0009388216

-------
TIMINGS
-------

Total SCF gradient time     ....       39.992 sec

Densities                   ....       0.004 sec  (  0.0%)
One electron gradient       ....       1.728 sec  (  4.3%)
RI-J Coulomb gradient       ....       9.348 sec  ( 23.4%)
XC gradient                 ....      20.851 sec  ( 52.1%)
CPCM gradient               ....       4.432 sec  ( 11.1%)
   A-Matrix (El+Nuc)        ....       0.180 sec  (  0.5%)
   Potential                ....       4.252 sec  ( 10.6%)
SMD gradient                ....       0.017 sec  (  0.0%)

Maximum memory used throughout the entire SCFGRAD-calculation: 71.4 MB

------------------------------------------------------------------------------
                              ORCA PROPERTY CALCULATIONS
------------------------------------------------------------------------------

GBWName                                 ... xtb_opt.gbw
Number of atoms                         ...     33
Number of basis functions               ...    465
Max core memory                         ...   1024 MB

Electric properties:
Dipole moment                           ... YES
Quadrupole moment                       ...  NO
Static polarizability (Dipole/Dipole)   ...  NO
Static polarizability (Dipole/Quad.)    ...  NO
Static polarizability (Quad./Quad.)     ...  NO
Static polarizability (Velocity)        ...  NO

Atomic electric properties:
Dipole moment                           ...  NO
Quadrupole moment                       ...  NO
Static polarizability                   ...  NO

Choice of electric origin               ... Center of mass
Position of electric origin             ...    -0.011011     0.024799     0.011676

General magnetic properties:
Magnetizability                         ...  NO

EPR properties:
g-Tensor (aka g-matrix)                 ...  NO
Zero-Field splitting spin-orbit         ...  NO
Zero-field splitting spin-spin          ...  NO
Hyperfine couplings                     ...  NO (   0 nuclei)
Quadrupole couplings                    ...  NO (   0 nuclei)
Contact density                         ...  NO (   0 nuclei)

NMR properties:
Chemical shifts                         ...  NO (   0 nuclei)
Spin-rotation constants                 ...  NO (   0 nuclei)
Spin-spin couplings                     ...  NO (   0 nuclei,    0 pairs)

Choice of magnetic origin               ... GIAO
Position of magnetic origin             ...     0.000000     0.000000     0.000000

Properties with geometric perturbations:
SCF Hessian                             ...  NO
IR spectrum                             ...  NO
VCD spectrum                            ...  NO
X-ray spectroscopy properties:
SCF XES/XAS/RIXS spectra                ...  NO


-------------
DIPOLE MOMENT
-------------

Method             : SCF
Type of density    : Electron Density
Multiplicity       :   1
Irrep              :   0
Energy             :  -897.8080748622655847 Eh
Relativity type    : 
Basis              : AO
                                X                 Y                 Z
Electronic contribution:    -11.179716236       3.661994290      -0.051616282
Nuclear contribution   :     12.373551289      -3.969502312       0.652317935
                        -----------------------------------------
Total Dipole Moment    :      1.193835053      -0.307508021       0.600701653
                        -----------------------------------------
Magnitude (a.u.)       :      1.371366396
Magnitude (Debye)      :      3.485736363



--------------------
Rotational spectrum 
--------------------
 
Rotational constants in cm-1:             0.020814             0.006938             0.005216 
Rotational constants in MHz :           624.000559           207.996892           156.386395 

Dipole components along the rotational axes: 
x,y,z [a.u.] :     1.211980    -0.243089     0.593850 
x,y,z [Debye]:     3.080609    -0.617882     1.509447 

 

Dipole moment calculation done in   0.1 sec 

Maximum memory used throughout the entire PROP-calculation: 41.8 MB

--------------------------------
SUGGESTED CITATIONS FOR THIS RUN
--------------------------------

Below you find a list of papers that are relevant to this ORCA run
We neither can nor want to force you to cite these papers, but we appreciate if you do
You receive ORCA, which is the product of decades of hard work by many enthusiastic individuals, for free
The only thing we kindly ask in return is that you cite our papers,
We deeply appreciate it, if you show your appreciation for ORCA by not just citing the generic ORCA reference.

Please note that relegating all ORCA citations to the supporting information does *not* help us.
SI sections are not indexed - citations you put there will not count into any citation statistics
But we need these citations in order to attract the funding resources that allow us to do what we are doing

Therefore, if you are a happy ORCA user, please consider citing a few of the papers listed below in the main body of your paper

In addition to the list printed below, the program has created the file xtb_opt.bibtex that contains the list in bibtex format
You can import this file easily into all common literature databanks and citation aid programs


List of essential papers. We consider these as the minimum necessary citations

  1. Neese,F.
     Software update: the ORCA program system, version 5.0
     WIRES Comput. Molec. Sci., 2022 12(1)e1606
     doi.org/10.1002/wcms.1606
  2. Grimme,S.; Hansen,A.; Ehlert,S.; Mewes,J.
     r2SCAN-3c: A 'Swiss army knife' composite electronic-structure method
     J. Chem. Phys., 2021 154 064103
     doi.org/10.1063/5.0040021

List of papers to cite with high priority. The work reported in these papers was absolutely
necessary for this run to complete.
Our perspective: the developers of density functionals and basis sets usually get cited in chemistry papers
Good! But without the algorithms to do something with them, the functionals or basis sets would not do anything.
Hence, in our opinion, the algorithm design and method developments papers are equally worthy of getting cited

  1. Neese,F.
     An improvement of the resolution of the identity approximation for the formation of the Coulomb matrix
     J. Comp. Chem., 2003 24(14)1740-1747
     doi.org/10.1002/jcc.10318
  2. Garcia-Rates,M.; Neese,F.
     Effect of the Solute Cavity on the Solvation Energy and its Derivatives within the Framework of the Gaussian Charge Scheme
     J. Comput. Chem., 2020 41 922-939
     doi.org/10.1002/jcc.26139
  3. Neese,F.
     The SHARK Integral Generation and Digestion System
     J. Comp. Chem., 2022  1-16
     doi.org/10.1002/jcc.26942
  4. Lehtola,S.; Steigemann,C.; Oliveira,M.; Marques,M.
     Recent developments in Libxc - A comprehensive library of functionals for density functional theory
     Software X, 2018 7 
     doi.org/10.1016/j.softx.2017.11.002
  5. Caldeweyher,E.; Bannwarth,C.; Grimme,S.
     Extension of the D3 dispersion coefficient model
     J. Chem. Phys., 2017 147 034112-XXXX
     doi.org/10.1063/1.4993215
  6. Caldeweyher,E.; Ehlert,S.; Hansen,A.; Neugebauer,H.; Spicher,S.; Bannwarth,C.; Grimme,S.
     A generally applicable atomic-charge dependent London dispersion correction
     J. Chem. Phys., 2019 150 154122-XXXX
     doi.org/10.1063/1.5090222
  7. Caldeweyher,E.; Mewes,J.; Ehlert,S.; Grimme,S.
     Extension and evaluation of the D4 London-dispersion model for periodic systems
     Phys. Chem. Chem. Phys., 2020 22(16)8499-8512
     doi.org/10.1039/D0CP00502A

List of suggested additional citations. These are papers that are important in the 'surrounding' of 
of this run, or papers that preceded the highly important papers. If you like your results we are grateful for a citation.

  1. Neese,F.
     The ORCA program system
     WIRES Comput. Molec. Sci., 2012 2(1)73-78
     doi.org/10.1002/wcms.81
  2. Neese,F.
     Software update: the ORCA program system, version 4.0
     WIRES Comput. Molec. Sci., 2018 8(1)1-6
     doi.org/10.1002/wcms.1327
  3. Neese,F.; Wennmohs,F.; Becker,U.; Riplinger,C.
     The ORCA quantum chemistry program package
     J. Chem. Phys., 2020 152 Art. No. L224108
     doi.org/10.1063/5.0004608

List of optional additional citations

  1. Neese,F.
     Approximate second-order SCF convergence for spin unrestricted wavefunctions
     Chem. Phys. Lett., 2000 325(1-3)93-98
     doi.org/10.1016/s0009-2614(00)00662-x

Timings for individual modules:

Sum of individual times          ...       71.442 sec (=   1.191 min)
Startup calculation              ...        3.268 sec (=   0.054 min)   4.6 %
SCF iterations                   ...       27.824 sec (=   0.464 min)  38.9 %
Property calculations            ...        0.194 sec (=   0.003 min)   0.3 %
SCF Gradient evaluation          ...       40.157 sec (=   0.669 min)  56.2 %
                             ****ORCA TERMINATED NORMALLY****
TOTAL RUN TIME: 0 days 0 hours 1 minutes 12 seconds 426 msec
  ------------------------------------------------------------------------
          * successful ORCA run, taking over control again...

         :::::::::::::::::::::::::::::::::::::::::::::::::::::
         ::                  ORCA SUMMARY                   ::
         :::::::::::::::::::::::::::::::::::::::::::::::::::::
         :: total energy            -897.807654155996 Eh    ::
         :: gradient norm              0.001673988403 Eh/a0 ::
         :: HOMO-LUMO gap              0.000000000000 eV    ::
         :::::::::::::::::::::::::::::::::::::::::::::::::::::

      ----------------------------------------------------------- 
     |                       L-ANC optimizer                     |
      ----------------------------------------------------------- 
          low memory version by Sebastian Ehlert

          ...................................................
          :                      SETUP                      :
          :.................................................:
          :   energy convergence        0.5000000E-05 Eh    :
          :   grad. convergence         0.1000000E-02 Eh/a0 :
          :   optimization log               true           :
          :   writing optlog all                1     steps :
          :   Hessian reset                     8     steps :
          :   maximium step len.        1.0000000     a0    :
          :   LBFGS images                      8           :
          ...................................................
 * calculating model hessian...
Using Lindh-Hessian (1995)
 Shifting diagonal of input Hessian by   1.000000000000000E-002
 Lowest  eigenvalues of input Hessian
    0.000000    0.000000    0.000000    0.000000    0.000000    0.000000
    0.010965    0.011650    0.012037    0.012890    0.013270    0.017008
    0.019300    0.020133    0.020842    0.023612    0.024702    0.027710
 Highest eigenvalues
    1.923254    1.944488    2.020225    2.065400    2.090798    2.197083
 

........................................................................
.............................. CYCLE    1 ..............................
........................................................................
                         * ORCA takes the control...
  ------------------------------------------------------------------------

                                 *****************
                                 * O   R   C   A *
                                 *****************

                                            #,                                       
                                            ###                                      
                                            ####                                     
                                            #####                                    
                                            ######                                   
                                           ########,                                 
                                     ,,################,,,,,                         
                               ,,#################################,,                 
                          ,,##########################################,,             
                       ,#########################################, ''#####,          
                    ,#############################################,,   '####,        
                  ,##################################################,,,,####,       
                ,###########''''           ''''###############################       
              ,#####''   ,,,,##########,,,,          '''####'''          '####       
            ,##' ,,,,###########################,,,                        '##       
           ' ,,###''''                  '''############,,,                           
         ,,##''                                '''############,,,,        ,,,,,,###''
      ,#''                                            '''#######################'''  
     '                                                          ''''####''''         
             ,#######,   #######,   ,#######,      ##                                
            ,#'     '#,  ##    ##  ,#'     '#,    #''#        ,####,   ,####,        
            ##       ##  ##   ,#'  ##            #'  '#       #'       #'  '#        
            ##       ##  #######   ##           ,######,      #####,   #    #        
            '#,     ,#'  ##    ##  '#,     ,#' ,#      #,     #,   #   #,  ,#        
             '#######'   ##     ##  '#######'  #'      '#     '####' # '####'        



                #########################################################
                #                        -***-                          #
                #          Department of theory and spectroscopy        #
                #                                                       #
                #                      Frank Neese                      #
                #                                                       #
                #     Directorship, Architecture, Infrastructure        #
                #                    SHARK, DRIVERS                     #
                #        Core code/Algorithms in most modules           #
                #                                                       #
                #        Max Planck Institute fuer Kohlenforschung      #
                #                Kaiser Wilhelm Platz 1                 #
                #                 D-45470 Muelheim/Ruhr                 #
                #                      Germany                          #
                #                                                       #
                #                  All rights reserved                  #
                #                        -***-                          #
                #########################################################


                         Program Version 6.0.0  -   RELEASE  -


 With contributions from (in alphabetic order):
   Daniel Aravena         : Magnetic Suceptibility
   Michael Atanasov       : Ab Initio Ligand Field Theory (pilot matlab implementation)
   Alexander A. Auer      : GIAO ZORA, VPT2 properties, NMR spectrum
   Ute Becker             : All parallelization in ORCA, NUMFREQ, NUMCALC
   Giovanni Bistoni       : ED, misc. LED, open-shell LED, HFLD
   Martin Brehm           : Molecular dynamics
   Dmytro Bykov           : pre 5.0 version of the SCF Hessian
   Marcos Casanova-Páez   : Triplet and SCS-CIS(D). UHF-(DLPNO)-IP/EA/STEOM-CCSD. UHF-CVS-IP/STEOM-CCSD
   Vijay G. Chilkuri      : MRCI spin determinant printing, contributions to CSF-ICE
   Pauline Colinet        : FMM embedding
   Dipayan Datta          : RHF DLPNO-CCSD density
   Achintya Kumar Dutta   : EOM-CC, STEOM-CC
   Nicolas Foglia         : Exact transition moments, OPA infrastructure, MCD improvements
   Dmitry Ganyushin       : Spin-Orbit,Spin-Spin,Magnetic field MRCI
   Miquel Garcia          : C-PCM and meta-GGA Hessian, CCSD/C-PCM, Gaussian charge scheme
   Tiago L. C. Gouveia    : GS-ROHF, GS-ROCIS
   Yang Guo               : DLPNO-NEVPT2, F12-NEVPT2, CIM, IAO-localization
   Andreas Hansen         : Spin unrestricted coupled pair/coupled cluster methods
   Ingolf Harden          : AUTO-CI MPn and infrastructure 
   Benjamin Helmich-Paris : MC-RPA, TRAH-(SCF,CASSCF), AVAS, COSX integrals, SCF dyn. polar.
   Lee Huntington         : MR-EOM, pCC
   Robert Izsak           : Overlap fitted RIJCOSX, COSX-SCS-MP3, EOM
   Riya Kayal             : Wick's Theorem for AUTO-CI, AUTO-CI UHF-CCSDT
   Emily Kempfer          : AUTO-CI, RHF CISDT and CCSDT
   Christian Kollmar      : KDIIS, OOCD, Brueckner-CCSD(T), CCSD density, CASPT2, CASPT2-K, improved NEVPT2
   Axel Koslowski         : Symmetry handling
   Simone Kossmann        : Meta GGA functionals, TD-DFT gradient, OOMP2, (MP2 Hessian; deprecated post 5.0)
   Lucas Lang             : DCDCAS
   Marvin Lechner         : AUTO-CI (C++ implementation), FIC-MRCC
   Spencer Leger          : CASSCF response
   Dagmar Lenk            : GEPOL surface, SMD, ORCA-2-JSON
   Dimitrios Liakos       : Extrapolation schemes; Compound Job, initial MDCI parallelization
   Dimitrios Manganas     : Further ROCIS development; embedding schemes. LFT, Crystal Embedding
   Dimitrios Pantazis     : SARC Basis sets
   Anastasios Papadopoulos: AUTO-CI, single reference methods and gradients
   Taras Petrenko         : pre 6.0 DFT Hessian and TD-DFT gradient, (ASA, deprecated), ECA, 1-Electron XAS/XES, NRVS
   Peter Pinski           : DLPNO-MP2, DLPNO-MP2 Gradient
   Christoph Reimann      : Effective Core Potentials
   Marius Retegan         : Local ZFS, SOC
   Christoph Riplinger    : Optimizer, TS searches, QM/MM, DLPNO-CCSD(T), (RO)-DLPNO pert. Triples
   Michael Roemelt        : Original ROCIS implementation
   Masaaki Saitow         : Open-shell DLPNO-CCSD energy and density
   Barbara Sandhoefer     : DKH picture change effects
   Kantharuban Sivalingam : CASSCF convergence/infrastructure, NEVPT2 and variants, FIC-MRCI
   Bernardo de Souza      : ESD, SOC TD-DFT
   Georgi Stoychev        : AutoAux, RI-MP2 NMR, DLPNO-MP2 response, X2C
   Van Anh Tran           : RI-MP2 g-tensors
   Willem Van den Heuvel  : Paramagnetic NMR
   Zikuan Wang            : NOTCH, Electric field optimization 
   Frank Wennmohs         : Technical directorship and infrastructure
   Hang Xu                : AUTO-CI-Response properties 


 We gratefully acknowledge several colleagues who have allowed us to
 interface, adapt or use parts of their codes:
   Stefan Grimme, W. Hujo, H. Kruse, P. Pracht,  : VdW corrections, initial TS optimization,
                  C. Bannwarth, S. Ehlert,         DFT functionals, gCP, sTDA/sTD-DF
                  L. Wittmann, M. Mueller
   Ed Valeev, F. Pavosevic, A. Kumar             : LibInt (2-el integral package), F12 methods
   Garnet Chan, S. Sharma, J. Yang, R. Olivares  : DMRG
   Ulf Ekstrom                                   : XCFun DFT Library
   Mihaly Kallay                                 : mrcc  (arbitrary order and MRCC methods)
   Frank Weinhold                                : gennbo (NPA and NBO analysis)
   Simon Mueller                                 : openCOSMO-RS
   Christopher J. Cramer and Donald G. Truhlar   : smd solvation model
   Lars Goerigk                                  : TD-DFT with DH, B97 family of functionals
   V. Asgeirsson, H. Jonsson                     : NEB implementation
   FAccTs GmbH                                   : IRC, NEB, NEB-TS, DLPNO-Multilevel, CI-OPT
                                                   MM, QMMM, 2- and 3-layer-ONIOM, Crystal-QMMM,
                                                   LR-CPCM, SF, NACMEs, symmetry and pop. for TD-DFT,
                                                   nearIR, NL-DFT gradient (VV10), updates on ESD,
                                                   ML-optimized integration grids, MBIS, APM,
                                                   GOAT, DOCKER, SOLVATOR, interface openCOSMO-RS
   S Lehtola, MJT Oliveira, MAL Marques          : LibXC Library
   Liviu Ungur et al                             : ANISO software


 Your calculation uses the libint2 library for the computation of 2-el integrals
 For citations please refer to: http://libint.valeyev.net

 Your ORCA version has been built with support for libXC version: 6.2.2
 For citations please refer to: https://libxc.gitlab.io

 This ORCA versions uses:
   CBLAS   interface :  Fast vector & matrix operations
   LAPACKE interface :  Fast linear algebra routines
   SCALAPACK package :  Parallel linear algebra routines
   Shared memory     :  Shared parallel matrices
   BLAS/LAPACK       :  OpenBLAS 0.3.27  USE64BITINT DYNAMIC_ARCH NO_AFFINITY SkylakeX SINGLE_THREADED
        Core in use  :  SkylakeX
   Copyright (c) 2011-2014, The OpenBLAS Project




***************************************
The coordinates will be read from file: xtb_opt.xyz
***************************************


Your calculation utilizes the geometrical counterpoise correction gCP
Please cite in your paper:
H.Kruse, S. Grimme J.Chem.Phys., 136, (2012), 154101 
   

Your calculation utilizes the atom-pairwise dispersion correction
based on EEQ partial charges (D4)


Your calculation utilizes the SMD solvation module
Please cite in your paper:
A.V. Marenich, C.J. Cramer, D.G. Truhlar J. Phys. Chem. B, 113, (2009), 6378 

================================================================================

----- Orbital basis set information -----
Your calculation utilizes the basis: def2-mTZVPP
   Stefan Grimme, Andreas Hansen, Sebastian Ehlert, and Jan-Michael Mewes 
   J. Chem. Phys. 154, 064103 (2021). DOI: 10.1063/5.0040021

----- AuxJ basis set information -----
Your calculation utilizes the auxiliary basis: def2/J
   F. Weigend, Phys. Chem. Chem. Phys. 8, 1057 (2006).

================================================================================
                                        WARNINGS
                       Please study these warnings very carefully!
================================================================================

WARNING: Old DensityContainer found on disk!
         Will remove this file - 
         If you want to keep old densities, please start your calculation with a different basename. 

Using LibXC functional ID 497 : Re-regularized SCAN exchange by Furness et al
[ 1]  J. W. Furness, A. D. Kaplan, J. Ning, J. P. Perdew, and J. Sun.,  J. Phys. Chem. Lett. 11, 8208-8215 (2020)
[ 2]  J. W. Furness, A. D. Kaplan, J. Ning, J. P. Perdew, and J. Sun.,  J. Phys. Chem. Lett. 11, 9248-9248 (2020)
Using LibXC functional ID 498 : Re-regularized SCAN correlation by Furness et al
[ 1]  J. W. Furness, A. D. Kaplan, J. Ning, J. P. Perdew, and J. Sun.,  J. Phys. Chem. Lett. 11, 8208-8215 (2020)
[ 2]  J. W. Furness, A. D. Kaplan, J. Ning, J. P. Perdew, and J. Sun.,  J. Phys. Chem. Lett. 11, 9248-9248 (2020)
Using LibXC functional ID 497 : Re-regularized SCAN exchange by Furness et al
[ 1]  J. W. Furness, A. D. Kaplan, J. Ning, J. P. Perdew, and J. Sun.,  J. Phys. Chem. Lett. 11, 8208-8215 (2020)
[ 2]  J. W. Furness, A. D. Kaplan, J. Ning, J. P. Perdew, and J. Sun.,  J. Phys. Chem. Lett. 11, 9248-9248 (2020)
Using LibXC functional ID 498 : Re-regularized SCAN correlation by Furness et al
[ 1]  J. W. Furness, A. D. Kaplan, J. Ning, J. P. Perdew, and J. Sun.,  J. Phys. Chem. Lett. 11, 8208-8215 (2020)
[ 2]  J. W. Furness, A. D. Kaplan, J. Ning, J. P. Perdew, and J. Sun.,  J. Phys. Chem. Lett. 11, 9248-9248 (2020)

================================================================================
                                       INPUT FILE
================================================================================
NAME = xtb_opt.inp
|  1> ! r2scan-3c def2/J RI DEFGRID2 scfconv7 ENGRAD tightSCF miniprint
|  2> %cpcm
|  3>     smd true
|  4>     smdsolvent "water"
|  5> end
|  6> * xyzfile 0 1 xtb_opt.xyz
|  7> 
|  8>                          ****END OF INPUT****
================================================================================

                     *******************************
                     * Energy+Gradient Calculation *
                     *******************************

---------------------------------
CARTESIAN COORDINATES (ANGSTROEM)
---------------------------------
  C     -4.662005   -1.154597    0.015932
  C     -3.868083   -2.302212    0.036719
  C     -2.483581   -2.195892    0.044799
  C     -1.873163   -0.939196    0.030600
  C     -2.674011    0.214904    0.010082
  C     -4.066927    0.098590    0.003974
  C     -2.050965    1.550603   -0.000297
  O     -2.743263    2.573464    0.011779
  C     -0.569601    1.628731   -0.028825
  C      0.004075    2.889397   -0.078507
  C      1.396071    3.016866   -0.104986
  C      2.209347    1.907701   -0.077521
  C      1.661364    0.599103   -0.022133
  C      0.232187    0.455322   -0.002117
  C     -0.391596   -0.853365    0.036121
  O      0.269873   -1.914806    0.067260
  N      2.479555   -0.470356    0.008357
  C      3.932136   -0.402732   -0.009579
  C      4.494691   -1.815800    0.076220
  O      5.924154   -1.799904    0.023294
  H     -5.743397   -1.241451    0.008913
  H     -4.333000   -3.282590    0.046210
  H     -1.864427   -3.085412    0.061127
  H     -4.673167    0.997387   -0.011272
  H     -0.631533    3.766194   -0.098268
  H      1.844982    4.003996   -0.147913
  H      3.284941    2.032478   -0.099303
  H      2.018815   -1.374720    0.045835
  H      4.303501    0.186252    0.840939
  H      4.290752    0.075761   -0.930831
  H      4.158698   -2.407993   -0.781085
  H      4.142548   -2.307499    0.993692
  H      6.243078   -1.399145    0.842752

----------------------------
CARTESIAN COORDINATES (A.U.)
----------------------------
  NO LB      ZA    FRAG     MASS         X           Y           Z
   0 C     6.0000    0    12.011   -8.809912   -2.181872    0.030107
   1 C     6.0000    0    12.011   -7.309617   -4.350550    0.069388
   2 C     6.0000    0    12.011   -4.693288   -4.149635    0.084658
   3 C     6.0000    0    12.011   -3.539765   -1.774822    0.057825
   4 C     6.0000    0    12.011   -5.053149    0.406110    0.019052
   5 C     6.0000    0    12.011   -7.685378    0.186308    0.007510
   6 C     6.0000    0    12.011   -3.875762    2.930216   -0.000561
   7 O     8.0000    0    15.999   -5.184015    4.863142    0.022258
   8 C     6.0000    0    12.011   -1.076389    3.077856   -0.054471
   9 C     6.0000    0    12.011    0.007701    5.460169   -0.148356
  10 C     6.0000    0    12.011    2.638192    5.701050   -0.198396
  11 C     6.0000    0    12.011    4.175061    3.605032   -0.146494
  12 C     6.0000    0    12.011    3.139524    1.132140   -0.041825
  13 C     6.0000    0    12.011    0.438770    0.860433   -0.004000
  14 C     6.0000    0    12.011   -0.740010   -1.612626    0.068258
  15 O     8.0000    0    15.999    0.509986   -3.618459    0.127102
  16 N     7.0000    0    14.007    4.685680   -0.888844    0.015793
  17 C     6.0000    0    12.011    7.430660   -0.761053   -0.018101
  18 C     6.0000    0    12.011    8.493736   -3.431365    0.144035
  19 O     8.0000    0    15.999   11.195029   -3.401326    0.044020
  20 H     1.0000    0     1.008  -10.853447   -2.346003    0.016843
  21 H     1.0000    0     1.008   -8.188183   -6.203196    0.087324
  22 H     1.0000    0     1.008   -3.523256   -5.830584    0.115513
  23 H     1.0000    0     1.008   -8.831005    1.884788   -0.021300
  24 H     1.0000    0     1.008   -1.193425    7.117075   -0.185699
  25 H     1.0000    0     1.008    3.486511    7.566455   -0.279516
  26 H     1.0000    0     1.008    6.207640    3.840827   -0.187655
  27 H     1.0000    0     1.008    3.815008   -2.597844    0.086616
  28 H     1.0000    0     1.008    8.132439    0.351966    1.589144
  29 H     1.0000    0     1.008    8.108345    0.143167   -1.759016
  30 H     1.0000    0     1.008    7.858801   -4.550447   -1.476037
  31 H     1.0000    0     1.008    7.828281   -4.360542    1.877806
  32 H     1.0000    0     1.008   11.797707   -2.644000    1.592571

------------------------------------------------------------------------------
                   ___                                                        
                  /   \      - P O W E R E D   B Y -                         
                 /     \                                                     
                 |  |  |   _    _      __       _____    __    __             
                 |  |  |  | |  | |    /  \     |  _  \  |  |  /  |          
                  \  \/   | |  | |   /    \    | | | |  |  | /  /          
                 / \  \   | |__| |  /  /\  \   | |_| |  |  |/  /          
                |  |  |   |  __  | /  /__\  \  |    /   |      \           
                |  |  |   | |  | | |   __   |  |    \   |  |\   \          
                \     /   | |  | | |  |  |  |  | |\  \  |  | \   \       
                 \___/    |_|  |_| |__|  |__|  |_| \__\ |__|  \__/        
                                                                              
                      - O R C A' S   B I G   F R I E N D -                    
                                      &                                       
                       - I N T E G R A L  F E E D E R -                       
                                                                              
 v1 FN, 2020, v2 2021, v3 2022-2024                                           
------------------------------------------------------------------------------


----------------------
SHARK INTEGRAL PACKAGE
----------------------

Number of atoms                             ...     33
Number of basis functions                   ...    465
Number of shells                            ...    223
Maximum angular momentum                    ...      2
Integral batch strategy                     ... SHARK/LIBINT Hybrid
RI-J (if used) integral strategy            ... SPLIT-RIJ (Revised 2003 algorithm where possible)
Printlevel                                  ...      1
Contraction scheme used                     ... SEGMENTED contraction
Prescreening option                         ... SCHWARTZ
   Thresh                                   ... 3.000e-11
   Tcut                                     ... 1.000e-12
   Tpresel                                  ... 1.000e-12 
Coulomb Range Separation                    ... NOT USED
Exchange Range Separation                   ... NOT USED
Multipole approximations                    ... NOT USED
Finite Nucleus Model                        ... NOT USED
CABS basis                                  ... NOT available
Auxiliary Coulomb fitting basis             ... AVAILABLE
   # of basis functions in Aux-J            ...   1123
   # of shells in Aux-J                     ...    365
   Maximum angular momentum in Aux-J        ...      4
Auxiliary J/K fitting basis                 ... NOT available
Auxiliary Correlation fitting basis         ... NOT available
Auxiliary 'external' fitting basis          ... NOT available

Checking pre-screening integrals            ... done (  0.0 sec) Dimension = 223
Check shell pair data                       ... done (  0.0 sec)
Shell pair information
Shell pair cut-off parameter TPreSel        ...   1.0e-12
Total number of shell pairs                 ...     24976
Shell pairs after pre-screening             ...     18078
Total number of primitive shell pairs       ...     92714
Primitive shell pairs kept                  ...     42969
          la=0 lb=0:   5447 shell pairs
          la=1 lb=0:   6888 shell pairs
          la=1 lb=1:   2151 shell pairs
          la=2 lb=0:   2067 shell pairs
          la=2 lb=1:   1313 shell pairs
          la=2 lb=2:    212 shell pairs

Calculating one electron integrals          ... done (  0.1 sec)
Calculating RI/J V-Matrix + Cholesky decomp.... done (  0.1 sec)
Calculating Nuclear repulsion               ... done (  0.0 sec) ENN=   1441.514801326245 Eh

Diagonalization of the overlap matrix:
Smallest eigenvalue                        ... 6.269e-06
Time for diagonalization                   ...    0.024 sec
Threshold for overlap eigenvalues          ... 1.000e-07
Number of eigenvalues below threshold      ... 0
Time for construction of square roots      ...    0.030 sec
Total time needed                          ...    0.064 sec

-------------------
DFT GRID GENERATION
-------------------

General Integration Accuracy     IntAcc      ... 4.388
Radial Grid Type                 RadialGrid  ... OptM3 with GC (2021)
Angular Grid (max. ang.)         AngularGrid ... 4 (Lebedev-302)
Angular grid pruning method      GridPruning ... 4 (adaptive)
Weight generation scheme         WeightScheme... mBecke (2022)
Basis function cutoff            BFCut       ... 1.0000e-11
Integration weight cutoff        WCut        ... 1.0000e-14
Partially contracted basis set               ... off
Rotationally invariant grid construction     ... off
Angular grids for H and He will be reduced by one unit
Diffuse basis detected: some atoms will have their outermost
                        angular grid increased by 1.

Total number of grid points                  ...   161898
Total number of batches                      ...     2547
Average number of points per batch           ...       63
Average number of grid points per atom       ...     4906
Initializing property integral containers    ... done (  0.0 sec)

SHARK setup successfully completed in   3.0 seconds

Maximum memory used throughout the entire STARTUP-calculation: 83.8 MB
Occupation numbers will be reassigned to an Aufbau configuration
             **** ENERGY FILE WAS UPDATED (xtb_opt.en.tmp) ****
Finished Guess after   0.5 sec
Maximum memory used throughout the entire GUESS-calculation: 44.7 MB
--------------------
CPCM SOLVATION MODEL
--------------------
CPCM parameters:
  Epsilon                                         ...      78.3550
  Refrac                                          ...       1.3328
  Rsolv                                           ...       1.3000
  Surface type                                    ... GAUSSIAN VDW
  Discretization scheme                           ... Constant charge density
    Threshold for H atoms                         ...       5.0000 (charges/Ang^2)
    Threshold for non-H atoms                     ...       5.0000 (charges/Ang^2)
  Epsilon function type                           ...         CPCM
Solvent:                                          ... WATER
SMD-CDS solvent descriptors:
  Soln                                            ...       1.3328
  Soln25                                          ...       1.3323
  Sola                                            ...       0.0000
  Solb                                            ...       0.0000
  Solg                                            ...       0.0000
  Solc                                            ...       0.0000
  Solh                                            ...       0.0000
Radii:
  Scheme                                          ... Element-dependent radii
  Radius for C  used is    3.4960 Bohr (=   1.8500 Ang.)
  Radius for O  used is    2.8724 Bohr (=   1.5200 Ang.)
  Radius for N  used is    3.5716 Bohr (=   1.8900 Ang.)
  Radius for H  used is    2.2677 Bohr (=   1.2000 Ang.)
Calculating surface                               ...        done! (  0.0s)
Cavity surface points                             ...         2413
Cavity Volume                                     ...    1727.5535
Cavity Surface-area                               ...     982.0603
Calculating surface distance matrix               ...        done! (  0.0s)
Performing Cholesky decomposition & store         ...        done! (  0.2s)
Overall time for CPCM initialization              ...                 0.3s

----------------------------------------D-I-I-S--------------------------------------------
Iteration    Energy (Eh)           Delta-E    RMSDP     MaxDP     DIISErr   Damp  Time(sec)
-------------------------------------------------------------------------------------------
               ***  Starting incremental Fock matrix formation  ***
[...]
                          DFT DISPERSION CORRECTION                            
                                                                               
                                DFTD4 V3.4.0                                   
-------------------------------------------------------------------------------
-------------------------   ----------------
Dispersion correction           -0.015349813
-------------------------   ----------------

------------------   -----------------
gCP correction             0.015773784
------------------   -----------------

-------------------------   --------------------
FINAL SINGLE POINT ENERGY      -897.807667312969
-------------------------   --------------------

------------------------------------------------------------------------------
                         ORCA SCF GRADIENT CALCULATION
------------------------------------------------------------------------------

Nuc. rep. gradient        (SHARK) ... done (  0.0 sec)
HCore & Overlap gradient  (SHARK) ... done (  1.8 sec)
Split-RIJ-J gradient      (SHARK) ... done (  9.7 sec)
XC gradient                       ... done ( 20.3 sec)
CPCM gradient                     ... done (  4.4 sec)
SMD gradient                      ... done (  0.0 sec)
Dispersion correction             ... done (  0.0 sec)

-------------------
DISPERSION GRADIENT
-------------------

   1   C   :   -0.000122326   -0.000044241   -0.000000113
   2   C   :   -0.000093689   -0.000099282    0.000000875
   3   C   :   -0.000050770   -0.000135774    0.000002342
   4   C   :   -0.000060580   -0.000089627    0.000002732
   5   C   :   -0.000106787    0.000011232    0.000000941
   6   C   :   -0.000141485    0.000013228   -0.000000358
   7   C   :   -0.000085570    0.000108404    0.000000343
   8   O   :   -0.000083504    0.000121477    0.000000772
   9   C   :   -0.000013029    0.000116687   -0.000001830
  10   C   :    0.000007956    0.000160207   -0.000004546
  11   C   :    0.000053433    0.000154003   -0.000006141
  12   C   :    0.000086329    0.000113236   -0.000005911
  13   C   :    0.000076042    0.000032980   -0.000002604
  14   C   :    0.000027265    0.000017420    0.000000284
  15   C   :    0.000005157   -0.000101776    0.000004097
  16   O   :    0.000016086   -0.000136722    0.000005050
  17   N   :    0.000080331   -0.000061868   -0.000000160
  18   C   :    0.000120505   -0.000025905   -0.000001479
  19   C   :    0.000075172   -0.000066092    0.000003792
  20   O   :    0.000075329   -0.000028117    0.000015474
  21   H   :   -0.000046386   -0.000009710   -0.000000240
  22   H   :   -0.000025272   -0.000039430    0.000000319
  23   H   :    0.000000012   -0.000058714    0.000001003
  24   H   :   -0.000048860    0.000026692   -0.000000490
  25   H   :   -0.000009892    0.000056421   -0.000001443
  26   H   :    0.000019112    0.000051850   -0.000002206
  27   H   :    0.000035465    0.000040193   -0.000002782
  28   H   :    0.000024783   -0.000028445    0.000000181
  29   H   :    0.000041567   -0.000009083    0.000014803
  30   H   :    0.000041187   -0.000011292   -0.000017985
  31   H   :    0.000038661   -0.000029344   -0.000009613
  32   H   :    0.000038891   -0.000030105    0.000010558
  33   H   :    0.000024868   -0.000018503   -0.000005665

Difference to translation invariance:
           :    0.0000000000   -0.0000000000   -0.0000000000

Difference to rotation invariance:
           :    0.0000000000    0.0000000000   -0.0000000000

Norm of the Dispersion gradient    ...    0.0005818664
RMS gradient                       ...    0.0000584798
MAX gradient                       ...    0.0001602066
gCP correction                   ... done

------------------
CARTESIAN GRADIENT
------------------

   1   C   :   -0.000013533    0.000037992   -0.000010024
   2   C   :    0.000000023   -0.000020625   -0.000008356
   3   C   :    0.000054842   -0.000007104   -0.000011634
   4   C   :   -0.000047725    0.000035727    0.000018367
   5   C   :   -0.000038243   -0.000029855    0.000004266
   6   C   :    0.000031073    0.000015973   -0.000011502
   7   C   :    0.000040097   -0.000039100   -0.000004376
   8   O   :   -0.000018926    0.000036269    0.000052453
   9   C   :   -0.000024464   -0.000008297    0.000005989
  10   C   :    0.000004769    0.000021443    0.000002822
  11   C   :   -0.000020608    0.000037598   -0.000011674
  12   C   :   -0.000004133   -0.000072202   -0.000000064
  13   C   :    0.000076325   -0.000151674   -0.000001453
  14   C   :    0.000098045    0.000071434    0.000015348
  15   C   :   -0.000019481   -0.000077164   -0.000040002
  16   O   :    0.000015376    0.000008362    0.000048040
  17   N   :   -0.000108458    0.000100017    0.000062594
  18   C   :    0.000111732   -0.000140953    0.000046838
  19   C   :   -0.000587467    0.000036148    0.000088059
  20   O   :    0.000444517   -0.000092483   -0.000192381
  21   H   :   -0.000010965   -0.000008298   -0.000002525
  22   H   :   -0.000018256    0.000004593   -0.000014856
  23   H   :   -0.000022947   -0.000017716   -0.000012784
  24   H   :   -0.000007383    0.000007420   -0.000002604
  25   H   :    0.000001230    0.000012355    0.000006727
  26   H   :    0.000020801    0.000007018   -0.000008045
  27   H   :    0.000008548    0.000028227   -0.000017692
  28   H   :   -0.000006313    0.000065561   -0.000070641
  29   H   :   -0.000058919    0.000024685   -0.000021095
  30   H   :    0.000031192   -0.000020742   -0.000015020
  31   H   :    0.000017068    0.000032060    0.000034996
  32   H   :    0.000085352    0.000059357   -0.000021827
  33   H   :   -0.000033170    0.000043972    0.000092055

Difference to translation invariance:
           :    0.0000000000   -0.0000000000    0.0000000000

Difference to rotation invariance:
           :    0.0001894807   -0.0000389753   -0.0008971924

Norm of the Cartesian gradient     ...    0.0008863125
RMS gradient                       ...    0.0000890778
MAX gradient                       ...    0.0005874667

-------
TIMINGS
-------

Total SCF gradient time     ....       39.691 sec

Densities                   ....       0.004 sec  (  0.0%)
One electron gradient       ....       1.752 sec  (  4.4%)
RI-J Coulomb gradient       ....       9.703 sec  ( 24.4%)
XC gradient                 ....      20.260 sec  ( 51.0%)
CPCM gradient               ....       4.406 sec  ( 11.1%)
   A-Matrix (El+Nuc)        ....       0.182 sec  (  0.5%)
   Potential                ....       4.224 sec  ( 10.6%)
SMD gradient                ....       0.014 sec  (  0.0%)

Maximum memory used throughout the entire SCFGRAD-calculation: 71.6 MB

------------------------------------------------------------------------------
                              ORCA PROPERTY CALCULATIONS
------------------------------------------------------------------------------

GBWName                                 ... xtb_opt.gbw
Number of atoms                         ...     33
Number of basis functions               ...    465
Max core memory                         ...   1024 MB

Electric properties:
Dipole moment                           ... YES
Quadrupole moment                       ...  NO
Static polarizability (Dipole/Dipole)   ...  NO
Static polarizability (Dipole/Quad.)    ...  NO
Static polarizability (Quad./Quad.)     ...  NO
Static polarizability (Velocity)        ...  NO

Atomic electric properties:
Dipole moment                           ...  NO
Quadrupole moment                       ...  NO
Static polarizability                   ...  NO

Choice of electric origin               ... Center of mass
Position of electric origin             ...    -0.010414     0.024559     0.012362

General magnetic properties:
Magnetizability                         ...  NO

EPR properties:
g-Tensor (aka g-matrix)                 ...  NO
Zero-Field splitting spin-orbit         ...  NO
Zero-field splitting spin-spin          ...  NO
Hyperfine couplings                     ...  NO (   0 nuclei)
Quadrupole couplings                    ...  NO (   0 nuclei)
Contact density                         ...  NO (   0 nuclei)

NMR properties:
Chemical shifts                         ...  NO (   0 nuclei)
Spin-rotation constants                 ...  NO (   0 nuclei)
Spin-spin couplings                     ...  NO (   0 nuclei,    0 pairs)

Choice of magnetic origin               ... GIAO
Position of magnetic origin             ...     0.000000     0.000000     0.000000

Properties with geometric perturbations:
SCF Hessian                             ...  NO
IR spectrum                             ...  NO
VCD spectrum                            ...  NO
X-ray spectroscopy properties:
SCF XES/XAS/RIXS spectra                ...  NO


-------------
DIPOLE MOMENT
-------------

Method             : SCF
Type of density    : Electron Density
Multiplicity       :   1
Irrep              :   0
Energy             :  -897.8080912844118302 Eh
Relativity type    : 
Basis              : AO
                                X                 Y                 Z
Electronic contribution:    -11.187011442       3.656724629      -0.046573483
Nuclear contribution   :     12.363639621      -3.964358397       0.640904359
                        -----------------------------------------
Total Dipole Moment    :      1.176628179      -0.307633768       0.594330876
                        -----------------------------------------
Magnitude (a.u.)       :      1.353632741
Magnitude (Debye)      :      3.440660993



--------------------
Rotational spectrum 
--------------------
 
Rotational constants in cm-1:             0.020820             0.006937             0.005216 
Rotational constants in MHz :           624.164715           207.954820           156.370447 

Dipole components along the rotational axes: 
x,y,z [a.u.] :     1.195032    -0.245111     0.586636 
x,y,z [Debye]:     3.037529    -0.623022     1.491110 

 

Dipole moment calculation done in   0.0 sec 

Maximum memory used throughout the entire PROP-calculation: 41.8 MB

--------------------------------
SUGGESTED CITATIONS FOR THIS RUN
--------------------------------

Below you find a list of papers that are relevant to this ORCA run
We neither can nor want to force you to cite these papers, but we appreciate if you do
You receive ORCA, which is the product of decades of hard work by many enthusiastic individuals, for free
The only thing we kindly ask in return is that you cite our papers,
We deeply appreciate it, if you show your appreciation for ORCA by not just citing the generic ORCA reference.

Please note that relegating all ORCA citations to the supporting information does *not* help us.
SI sections are not indexed - citations you put there will not count into any citation statistics
But we need these citations in order to attract the funding resources that allow us to do what we are doing

Therefore, if you are a happy ORCA user, please consider citing a few of the papers listed below in the main body of your paper

In addition to the list printed below, the program has created the file xtb_opt.bibtex that contains the list in bibtex format
You can import this file easily into all common literature databanks and citation aid programs


List of essential papers. We consider these as the minimum necessary citations

  1. Neese,F.
     Software update: the ORCA program system, version 5.0
     WIRES Comput. Molec. Sci., 2022 12(1)e1606
     doi.org/10.1002/wcms.1606
  2. Grimme,S.; Hansen,A.; Ehlert,S.; Mewes,J.
     r2SCAN-3c: A 'Swiss army knife' composite electronic-structure method
     J. Chem. Phys., 2021 154 064103
     doi.org/10.1063/5.0040021

List of papers to cite with high priority. The work reported in these papers was absolutely
necessary for this run to complete.
Our perspective: the developers of density functionals and basis sets usually get cited in chemistry papers
Good! But without the algorithms to do something with them, the functionals or basis sets would not do anything.
Hence, in our opinion, the algorithm design and method developments papers are equally worthy of getting cited

  1. Neese,F.
     An improvement of the resolution of the identity approximation for the formation of the Coulomb matrix
     J. Comp. Chem., 2003 24(14)1740-1747
     doi.org/10.1002/jcc.10318
  2. Garcia-Rates,M.; Neese,F.
     Effect of the Solute Cavity on the Solvation Energy and its Derivatives within the Framework of the Gaussian Charge Scheme
     J. Comput. Chem., 2020 41 922-939
     doi.org/10.1002/jcc.26139
  3. Neese,F.
     The SHARK Integral Generation and Digestion System
     J. Comp. Chem., 2022  1-16
     doi.org/10.1002/jcc.26942
  4. Lehtola,S.; Steigemann,C.; Oliveira,M.; Marques,M.
     Recent developments in Libxc - A comprehensive library of functionals for density functional theory
     Software X, 2018 7 
     doi.org/10.1016/j.softx.2017.11.002
  5. Caldeweyher,E.; Bannwarth,C.; Grimme,S.
     Extension of the D3 dispersion coefficient model
     J. Chem. Phys., 2017 147 034112-XXXX
     doi.org/10.1063/1.4993215
  6. Caldeweyher,E.; Ehlert,S.; Hansen,A.; Neugebauer,H.; Spicher,S.; Bannwarth,C.; Grimme,S.
     A generally applicable atomic-charge dependent London dispersion correction
     J. Chem. Phys., 2019 150 154122-XXXX
     doi.org/10.1063/1.5090222
  7. Caldeweyher,E.; Mewes,J.; Ehlert,S.; Grimme,S.
     Extension and evaluation of the D4 London-dispersion model for periodic systems
     Phys. Chem. Chem. Phys., 2020 22(16)8499-8512
     doi.org/10.1039/D0CP00502A

List of suggested additional citations. These are papers that are important in the 'surrounding' of 
of this run, or papers that preceded the highly important papers. If you like your results we are grateful for a citation.

  1. Neese,F.
     The ORCA program system
     WIRES Comput. Molec. Sci., 2012 2(1)73-78
     doi.org/10.1002/wcms.81
  2. Neese,F.
     Software update: the ORCA program system, version 4.0
     WIRES Comput. Molec. Sci., 2018 8(1)1-6
     doi.org/10.1002/wcms.1327
  3. Neese,F.; Wennmohs,F.; Becker,U.; Riplinger,C.
     The ORCA quantum chemistry program package
     J. Chem. Phys., 2020 152 Art. No. L224108
     doi.org/10.1063/5.0004608

List of optional additional citations

  1. Neese,F.
     Approximate second-order SCF convergence for spin unrestricted wavefunctions
     Chem. Phys. Lett., 2000 325(1-3)93-98
     doi.org/10.1016/s0009-2614(00)00662-x

Timings for individual modules:

Sum of individual times          ...       70.850 sec (=   1.181 min)
Startup calculation              ...        2.944 sec (=   0.049 min)   4.2 %
SCF iterations                   ...       27.892 sec (=   0.465 min)  39.4 %
Property calculations            ...        0.157 sec (=   0.003 min)   0.2 %
SCF Gradient evaluation          ...       39.856 sec (=   0.664 min)  56.3 %
                             ****ORCA TERMINATED NORMALLY****
TOTAL RUN TIME: 0 days 0 hours 1 minutes 11 seconds 681 msec
  ------------------------------------------------------------------------
          * successful ORCA run, taking over control again...

         :::::::::::::::::::::::::::::::::::::::::::::::::::::
         ::                  ORCA SUMMARY                   ::
         :::::::::::::::::::::::::::::::::::::::::::::::::::::
         :: total energy            -897.807667312969 Eh    ::
         :: gradient norm              0.000886312455 Eh/a0 ::
         :: HOMO-LUMO gap              0.000000000000 eV    ::
         :::::::::::::::::::::::::::::::::::::::::::::::::::::

           -------------------------------------------------
          |                Property Printout                |
           -------------------------------------------------
           -------------------------------------------------
          |                Geometry Summary                 |
           -------------------------------------------------

      molecular mass/u    :      267.2799221
   center of mass at/Å    :       -0.0055029       0.0129935       0.0065418
  moments of inertia/u·Å² :        0.8096773E+03   0.2430210E+04   0.3231899E+04
rotational constants/cm⁻¹ :        0.2082019E-01   0.6936697E-02   0.5216014E-02

 * 29 selected distances

     #   Z          #   Z                                           value/Å
     1   6 C        2   6 C                                       1.3956460
     2   6 C        3   6 C                                       1.3886391
     3   6 C        4   6 C                                       1.3972112
     4   6 C        5   6 C                                       1.4048578
     1   6 C        6   6 C                                       1.3873456
     5   6 C        6   6 C                                       1.3977329
     7   6 C        8   8 O                                       1.2351969
     9   6 C       10   6 C                                       1.3860251
    10   6 C       11   6 C                                       1.3980211
    11   6 C       12   6 C                                       1.3756932
    12   6 C       13   6 C                                       1.4197524
     9   6 C       14   6 C                                       1.4213732
    13   6 C       17   7 N                                       1.3467636
    17   7 N       18   6 C                                       1.4543765
    18   6 C       19   6 C                                       1.5227774 (max)
    19   6 C       20   8 O                                       1.4320399
     1   6 C       21   1 H                                       1.0848996
     2   6 C       22   1 H                                       1.0850806
     3   6 C       23   1 H                                       1.0838801
     6   6 C       24   1 H                                       1.0842510
    10   6 C       25   1 H                                       1.0830900
    11   6 C       26   1 H                                       1.0852731
    12   6 C       27   1 H                                       1.0830494
    17   7 N       28   1 H                                       1.0156975
    18   6 C       29   1 H                                       1.0991441
    18   6 C       30   1 H                                       1.0983283
    19   6 C       31   1 H                                       1.0946933
    19   6 C       32   1 H                                       1.0986999
    20   8 O       33   1 H                                       0.9664008 (min)

 * 6 distinct bonds (by element types)

   Z      Z             #   av. dist./Å        max./Å        min./Å
   1 H    6 C          11     1.0891263     1.0991441     1.0830494
   6 C    6 C          12     1.4079229     1.5227774     1.3756932
   1 H    7 N           1     1.0156975     1.0156975     1.0156975
   6 C    7 N           2     1.4005701     1.4543765     1.3467636
   1 H    8 O           1     0.9664008     0.9664008     0.9664008
   6 C    8 O           2     1.3336184     1.4320399     1.2351969


optimized geometry written to: xtbopt.coord


           -------------------------------------------------
          | TOTAL ENERGY             -897.807667312969 Eh   |
          | GRADIENT NORM               0.000886312455 Eh/α |
           -------------------------------------------------

------------------------------------------------------------------------
 * finished run on 2025/04/11 at 17:59:44.229     
------------------------------------------------------------------------
 total:
 * wall-time:     0 d,  0 h,  7 min, 29.375 sec
 *  cpu-time:     0 d,  0 h,  0 min,  3.410 sec
 * ratio c/w:     0.008 speedup
 SCF:
 * wall-time:     0 d,  0 h,  1 min, 12.523 sec
 *  cpu-time:     0 d,  0 h,  0 min,  0.593 sec
 * ratio c/w:     0.008 speedup
 ANC optimizer:
 * wall-time:     0 d,  0 h,  6 min, 16.762 sec
 *  cpu-time:     0 d,  0 h,  0 min,  2.656 sec
 * ratio c/w:     0.007 speedup

