      -----------------------------------------------------------      
     |                   =====================                   |     
     |                           x T B                           |     
     |                   =====================                   |     
     |                         S. Grimme                         |     
     |          Mulliken Center for Theoretical Chemistry        |     
     |                    University of Bonn                     |     
      -----------------------------------------------------------      

   * xtb version 6.7.1 (edcfbbe) compiled by 'albert@albert-system' on 2024-07-22

   xtb is free software: you can redistribute it and/or modify it under
   the terms of the GNU Lesser General Public License as published by
   the Free Software Foundation, either version 3 of the License, or
   (at your option) any later version.
   
   xtb is distributed in the hope that it will be useful,
   but WITHOUT ANY WARRANTY; without even the implied warranty of
   MERCHANTABILITY or FITNESS FOR A PARTICULAR PURPOSE.  See the
   GNU Lesser General Public License for more details.
   
   Cite this work as:
   * C. Bannwarth, E. Caldeweyher, S. Ehlert, A. Hansen, P. Pracht,
     J. Seibert, S. Spicher, S. Grimme, WIREs Comput. Mol. Sci., 2020, 11,
     e01493. DOI: 10.1002/wcms.1493
   
   for GFN2-xTB:
   * C. Bannwarth, S. Ehlert and S. Grimme., J. Chem. Theory Comput., 2019,
     15, 1652-1671. DOI: 10.1021/acs.jctc.8b01176
   for GFN1-xTB:
   * S. Grimme, C. Bannwarth, P. Shushkov, J. Chem. Theory Comput., 2017,
     13, 1989-2009. DOI: 10.1021/acs.jctc.7b00118
   for GFN0-xTB:
   * P. Pracht, E. Caldeweyher, S. Ehlert, S. Grimme, ChemRxiv, 2019, preprint.
     DOI: 10.26434/chemrxiv.8326202.v1
   for GFN-FF:
   * S. Spicher and S. Grimme, Angew. Chem. Int. Ed., 2020, 59, 15665-15673.
     DOI: 10.1002/anie.202004239
   
   for ALPB and GBSA implicit solvation:
   * S. Ehlert, M. Stahn, S. Spicher, S. Grimme, J. Chem. Theory Comput.,
     2021, 17, 4250-4261. DOI: 10.1021/acs.jctc.1c00471
   
   for ddCOSMO and CPCM-X implicit solvation:
   * M. Stahn, S. Ehlert, S. Grimme, J. Phys. Chem. A,
     2023, XX, XXXX-XXXX. DOI: 10.1021/acs.jpca.3c04382
   
   for DFT-D4:
   * E. Caldeweyher, C. Bannwarth and S. Grimme, J. Chem. Phys., 2017,
     147, 034112. DOI: 10.1063/1.4993215
   * E. Caldeweyher, S. Ehlert, A. Hansen, H. Neugebauer, S. Spicher,
     C. Bannwarth and S. Grimme, J. Chem. Phys., 2019, 150, 154122.
     DOI: 10.1063/1.5090222
   * E. Caldeweyher, J.-M. Mewes, S. Ehlert and S. Grimme, Phys. Chem. Chem. Phys.
     2020, 22, 8499-8512. DOI: 10.1039/D0CP00502A
   
   for sTDA-xTB:
   * S. Grimme and C. Bannwarth, J. Chem. Phys., 2016, 145, 054103.
     DOI: 10.1063/1.4959605
   
   in the mass-spec context:
   * V. Asgeirsson, C. Bauer and S. Grimme, Chem. Sci., 2017, 8, 4879.
     DOI: 10.1039/c7sc00601b
   * J. Koopman and S. Grimme, ACS Omega 2019, 4, 12, 15120-15133.
     DOI: 10.1021/acsomega.9b02011
   
   for metadynamics refer to:
   * S. Grimme, J. Chem. Theory Comput., 2019, 155, 2847-2862
     DOI: 10.1021/acs.jctc.9b00143
   
   for SPH calculations refer to:
   * S. Spicher and S. Grimme, J. Chem. Theory Comput., 2021, 17, 1701-1714
     DOI: 10.1021/acs.jctc.0c01306
   
   for ONIOM refer to:
   * C. Plett, A. Katbashev, S. Ehlert, S. Grimme, M. Bursch,
     Phys. Chem. Chem. Phys., 2023, 25, 17860-17868. DOI: 10.1039/D3CP02178E
   
   for DIPRO refer to:
   * J. Kohn, N. Gildemeister, S. Grimme, D. Fazzi, A. Hansen,
     J. Chem. Phys., 2023, just accepted.
   
   for PTB refer to:
   * S. Grimme, M. Mueller, A. Hansen, J. Chem. Phys., 2023, 158, 124111.
     DOI: 10.1063/5.0137838
   
   with help from (in alphabetical order)
   P. Atkinson, C. Bannwarth, F. Bohle, G. Brandenburg, E. Caldeweyher
   M. Checinski, S. Dohm, S. Ehlert, S. Ehrlich, I. Gerasimov, C. Hölzer
   A. Katbashev, J. Kohn, J. Koopman, C. Lavigne, S. Lehtola, F. März, M. Müller,
   F. Musil, H. Neugebauer, J. Pisarek, C. Plett, P. Pracht, F. Pultar,
   J. Seibert, P. Shushkov, S. Spicher, M. Stahn, M. Steiner, T. Strunk,
   J. Stückrath, T. Rose, and J. Unsleber
   
 * started run on 2025/04/11 at 15:53:54.365     
   ID    Z sym.   atoms
    1    6 C      1-4, 7, 8
    2    8 O      5, 6
    3    1 H      9-20

           -------------------------------------------------
          |                Calculation Setup                |
           -------------------------------------------------

          program call               : /srv/scratch/z5358697/.xtb/bin/xtb gas.coord --gfn2 --sp --chrg 0 --norestart --parallel 1
          hostname                   : k061
          coordinate file            : gas.coord
          omp threads                :                     1


           -------------------------------------------------
          |                 G F N 2 - x T B                 |
           -------------------------------------------------

        Reference                      10.1021/acs.jctc.8b01176
      * Hamiltonian:
        H0-scaling (s, p, d)           1.850000    2.230000    2.230000
        zeta-weighting                 0.500000
      * Dispersion:
        s8                             2.700000
        a1                             0.520000
        a2                             5.000000
        s9                             5.000000
      * Repulsion:
        kExp                           1.500000    1.000000
        rExp                           1.000000
      * Coulomb:
        alpha                          2.000000
        third order                    shell-resolved
        anisotropic                    true
        a3                             3.000000
        a5                             4.000000
        cn-shift                       1.200000
        cn-exp                         4.000000
        max-rad                        5.000000


          ...................................................
          :                      SETUP                      :
          :.................................................:
          :  # basis functions                  44          :
          :  # atomic orbitals                  44          :
          :  # shells                           28          :
          :  # electrons                        48          :
          :  max. iterations                   250          :
          :  Hamiltonian                  GFN2-xTB          :
          :  restarted?                      false          :
          :  GBSA solvation                  false          :
          :  PC potential                    false          :
          :  electronic temp.          300.0000000     K    :
          :  accuracy                    1.0000000          :
          :  -> integral cutoff          0.2500000E+02      :
          :  -> integral neglect         0.1000000E-07      :
          :  -> SCF convergence          0.1000000E-05 Eh   :
          :  -> wf. convergence          0.1000000E-03 e    :
          :  Broyden damping             0.4000000          :
          :  net charge                          0          :
          :  unpaired electrons                  0          :
          ...................................................

 iter      E             dE          RMSdq      gap      omega  full diag
   1    -27.3553573 -0.273554E+02  0.385E+00    5.97       0.0  T
   2    -27.4261335 -0.707762E-01  0.199E+00    4.73       1.0  T
   3    -27.4294081 -0.327459E-02  0.112E+00    5.21       1.0  T
   4    -27.4316349 -0.222684E-02  0.178E-01    4.92       1.0  T
   5    -27.4319221 -0.287230E-03  0.732E-02    5.00       1.0  T
   6    -27.4319272 -0.505819E-05  0.238E-02    4.99       1.0  T
   7    -27.4319286 -0.139825E-05  0.714E-03    4.99       3.1  T
   8    -27.4319287 -0.125014E-06  0.178E-03    4.99      12.6  T
   9    -27.4319287 -0.653424E-08  0.866E-04    4.99      25.8  T
  10    -27.4319287 -0.220344E-08  0.251E-04    4.99      89.0  T

   *** convergence criteria satisfied after 10 iterations ***

         #    Occupation            Energy/Eh            Energy/eV
      -------------------------------------------------------------
         1        2.0000           -0.7407710             -20.1574
       ...           ...                  ...                  ...
        18        2.0000           -0.4729972             -12.8709
        19        2.0000           -0.4673873             -12.7183
        20        2.0000           -0.4488335             -12.2134
        21        2.0000           -0.4465299             -12.1507
        22        2.0000           -0.4388429             -11.9415
        23        2.0000           -0.4369780             -11.8908
        24        2.0000           -0.4081103             -11.1052 (HOMO)
        25                         -0.2246829              -6.1139 (LUMO)
        26                         -0.0029064              -0.0791
        27                          0.0953081               2.5935
        28                          0.1022339               2.7819
        29                          0.1252533               3.4083
       ...                                ...                  ...
        44                          0.6278686              17.0852
      -------------------------------------------------------------
                  HL-Gap            0.1834274 Eh            4.9913 eV
             Fermi-level           -0.3163966 Eh           -8.6096 eV

 SCC (total)                   0 d,  0 h,  0 min,  0.023 sec
 SCC setup                      ...        0 min,  0.000 sec (  1.031%)
 Dispersion                     ...        0 min,  0.000 sec (  0.565%)
 classical contributions        ...        0 min,  0.000 sec (  0.133%)
 integral evaluation            ...        0 min,  0.002 sec (  9.263%)
 iterations                     ...        0 min,  0.016 sec ( 67.319%)
 molecular gradient             ...        0 min,  0.005 sec ( 21.023%)
 printout                       ...        0 min,  0.000 sec (  0.595%)

         :::::::::::::::::::::::::::::::::::::::::::::::::::::
         ::                     SUMMARY                     ::
         :::::::::::::::::::::::::::::::::::::::::::::::::::::
         :: total energy             -27.115366506752 Eh    ::
         :: gradient norm              0.027049620612 Eh/a0 ::
         :: HOMO-LUMO gap              4.991313344349 eV    ::
         ::.................................................::
         :: SCC energy               -27.431887626543 Eh    ::
         :: -> isotropic ES            0.048397623036 Eh    ::
         :: -> anisotropic ES          0.002650542585 Eh    ::
         :: -> anisotropic XC          0.007635964794 Eh    ::
         :: -> dispersion             -0.011597445337 Eh    ::
         :: repulsion energy           0.316521119791 Eh    ::
         :: add. restraining           0.000000000000 Eh    ::
         :: total charge              -0.000000000000 e     ::
         :::::::::::::::::::::::::::::::::::::::::::::::::::::

           -------------------------------------------------
          |                Property Printout                |
           -------------------------------------------------

    * Orbital Energies and Occupations

         #    Occupation            Energy/Eh            Energy/eV
      -------------------------------------------------------------
         1        2.0000           -0.7407710             -20.1574
       ...           ...                  ...                  ...
        12        2.0000           -0.5271076             -14.3433
        13        2.0000           -0.5089959             -13.8505
        14        2.0000           -0.5017542             -13.6534
        15        2.0000           -0.4914213             -13.3723
        16        2.0000           -0.4857254             -13.2173
        17        2.0000           -0.4789544             -13.0330
        18        2.0000           -0.4729972             -12.8709
        19        2.0000           -0.4673873             -12.7183
        20        2.0000           -0.4488335             -12.2134
        21        2.0000           -0.4465299             -12.1507
        22        2.0000           -0.4388429             -11.9415
        23        2.0000           -0.4369780             -11.8908
        24        2.0000           -0.4081103             -11.1052 (HOMO)
        25                         -0.2246829              -6.1139 (LUMO)
        26                         -0.0029064              -0.0791
        27                          0.0953081               2.5935
        28                          0.1022339               2.7819
        29                          0.1252533               3.4083
        30                          0.1301251               3.5409
        31                          0.1436264               3.9083
        32                          0.1484103               4.0384
        33                          0.1532442               4.1700
        34                          0.1603399               4.3631
        35                          0.1707328               4.6459
       ...                                ...                  ...
        44                          0.6278686              17.0852
      -------------------------------------------------------------
                  HL-Gap            0.1834274 Eh            4.9913 eV
             Fermi-level           -0.3163966 Eh           -8.6096 eV

     #   Z          covCN         q      C6AA      α(0)
     1   6 C        3.752    -0.103    22.534     6.769
     2   6 C        3.802    -0.051    21.480     6.598
     3   6 C        3.804    -0.090    22.212     6.710
     4   6 C        2.715     0.358    20.928     7.488
     5   8 O        0.856    -0.426    22.216     6.319
     6   8 O        1.704    -0.265    18.386     5.789
     7   6 C        3.696     0.083    19.362     6.295
     8   6 C        3.752    -0.116    22.781     6.807
     9   1 H        0.925     0.038     2.480     2.463
    10   1 H        0.925     0.040     2.452     2.449
    11   1 H        0.925     0.037     2.494     2.469
    12   1 H        0.925     0.040     2.449     2.447
    13   1 H        0.924     0.054     2.274     2.358
    14   1 H        0.925     0.060     2.200     2.319
    15   1 H        0.924     0.066     2.133     2.284
    16   1 H        0.924     0.053     2.279     2.361
    17   1 H        0.924     0.051     2.302     2.373
    18   1 H        0.925     0.059     2.209     2.324
    19   1 H        0.925     0.059     2.209     2.324
    20   1 H        0.925     0.053     2.277     2.360

 Mol. C6AA /au·bohr⁶  :       3019.433146
 Mol. C8AA /au·bohr⁸  :      64021.845829
 Mol. α(0) /au        :         81.307127


Wiberg/Mayer (AO) data.
largest (>0.10) Wiberg bond orders for each atom

 ---------------------------------------------------------------------------
     #   Z sym  total        # sym  WBO       # sym  WBO       # sym  WBO
 ---------------------------------------------------------------------------
     1   6 C    3.997 --     2 C    1.021     9 H    0.987    11 H    0.987
                            10 H    0.987
     2   6 C    3.994 --     1 C    1.021     3 C    0.991    12 H    0.978
                            13 H    0.976
     3   6 C    3.994 --     2 C    0.991    14 H    0.974     4 C    0.973
                            15 H    0.953
     4   6 C    3.914 --     5 O    1.735     6 O    1.150     3 C    0.973
     5   8 O    2.016 --     4 C    1.735     6 O    0.174
     6   8 O    2.313 --     4 C    1.150     7 C    0.931     5 O    0.174
     7   6 C    3.927 --     8 C    1.021    17 H    0.970    16 H    0.970
                             6 O    0.931
     8   6 C    3.991 --     7 C    1.021    19 H    0.985    18 H    0.985
                            20 H    0.983
     9   1 H    0.999 --     1 C    0.987
    10   1 H    0.998 --     1 C    0.987
    11   1 H    0.999 --     1 C    0.987
    12   1 H    0.998 --     2 C    0.978
    13   1 H    0.997 --     2 C    0.976
    14   1 H    0.996 --     3 C    0.974
    15   1 H    0.996 --     3 C    0.953
    16   1 H    0.997 --     7 C    0.970
    17   1 H    0.997 --     7 C    0.970
    18   1 H    0.996 --     8 C    0.985
    19   1 H    0.996 --     8 C    0.985
    20   1 H    0.996 --     8 C    0.983
 ---------------------------------------------------------------------------

Topologies differ in total number of bonds
Writing topology from bond orders to xtbtopo.mol

molecular dipole:
                 x           y           z       tot (Debye)
 q only:        0.266      -0.567       0.695
   full:        0.280      -0.545       0.761       2.484
molecular quadrupole (traceless):
                xx          xy          yy          xz          yz          zz
 q only:        7.864      -1.590      -3.303      -1.185       3.169      -4.561
  q+dip:        6.526      -0.626      -2.405      -1.779       4.214      -4.120
   full:        6.899      -0.628      -2.241      -1.640       4.621      -4.658


           -------------------------------------------------
          | TOTAL ENERGY              -27.115366506752 Eh   |
          | GRADIENT NORM               0.027049620612 Eh/α |
          | HOMO-LUMO GAP               4.991313344349 eV   |
           -------------------------------------------------

------------------------------------------------------------------------
 * finished run on 2025/04/11 at 15:53:54.426     
------------------------------------------------------------------------
 total:
 * wall-time:     0 d,  0 h,  0 min,  0.060 sec
 *  cpu-time:     0 d,  0 h,  0 min,  0.025 sec
 * ratio c/w:     0.417 speedup
 SCF:
 * wall-time:     0 d,  0 h,  0 min,  0.024 sec
 *  cpu-time:     0 d,  0 h,  0 min,  0.016 sec
 * ratio c/w:     0.686 speedup

