
                                 *****************
                                 * O   R   C   A *
                                 *****************

                                            #,                                       
                                            ###                                      
                                            ####                                     
                                            #####                                    
                                            ######                                   
                                           ########,                                 
                                     ,,################,,,,,                         
                               ,,#################################,,                 
                          ,,##########################################,,             
                       ,#########################################, ''#####,          
                    ,#############################################,,   '####,        
                  ,##################################################,,,,####,       
                ,###########''''           ''''###############################       
              ,#####''   ,,,,##########,,,,          '''####'''          '####       
            ,##' ,,,,###########################,,,                        '##       
           ' ,,###''''                  '''############,,,                           
         ,,##''                                '''############,,,,        ,,,,,,###''
      ,#''                                            '''#######################'''  
     '                                                          ''''####''''         
             ,#######,   #######,   ,#######,      ##                                
            ,#'     '#,  ##    ##  ,#'     '#,    #''#        ,####,   ,####,        
            ##       ##  ##   ,#'  ##            #'  '#       #'       #'  '#        
            ##       ##  #######   ##           ,######,      #####,   #    #        
            '#,     ,#'  ##    ##  '#,     ,#' ,#      #,     #,   #   #,  ,#        
             '#######'   ##     ##  '#######'  #'      '#     '####' # '####'        



                #########################################################
                #                        -***-                          #
                #          Department of theory and spectroscopy        #
                #                                                       #
                #                      Frank Neese                      #
                #                                                       #
                #     Directorship, Architecture, Infrastructure        #
                #                    SHARK, DRIVERS                     #
                #        Core code/Algorithms in most modules           #
                #                                                       #
                #        Max Planck Institute fuer Kohlenforschung      #
                #                Kaiser Wilhelm Platz 1                 #
                #                 D-45470 Muelheim/Ruhr                 #
                #                      Germany                          #
                #                                                       #
                #                  All rights reserved                  #
                #                        -***-                          #
                #########################################################


                         Program Version 6.0.0  -   RELEASE  -


 With contributions from (in alphabetic order):
   Daniel Aravena         : Magnetic Suceptibility
   Michael Atanasov       : Ab Initio Ligand Field Theory (pilot matlab implementation)
   Alexander A. Auer      : GIAO ZORA, VPT2 properties, NMR spectrum
   Ute Becker             : All parallelization in ORCA, NUMFREQ, NUMCALC
   Giovanni Bistoni       : ED, misc. LED, open-shell LED, HFLD
   Martin Brehm           : Molecular dynamics
   Dmytro Bykov           : pre 5.0 version of the SCF Hessian
   Marcos Casanova-Páez   : Triplet and SCS-CIS(D). UHF-(DLPNO)-IP/EA/STEOM-CCSD. UHF-CVS-IP/STEOM-CCSD
   Vijay G. Chilkuri      : MRCI spin determinant printing, contributions to CSF-ICE
   Pauline Colinet        : FMM embedding
   Dipayan Datta          : RHF DLPNO-CCSD density
   Achintya Kumar Dutta   : EOM-CC, STEOM-CC
   Nicolas Foglia         : Exact transition moments, OPA infrastructure, MCD improvements
   Dmitry Ganyushin       : Spin-Orbit,Spin-Spin,Magnetic field MRCI
   Miquel Garcia          : C-PCM and meta-GGA Hessian, CCSD/C-PCM, Gaussian charge scheme
   Tiago L. C. Gouveia    : GS-ROHF, GS-ROCIS
   Yang Guo               : DLPNO-NEVPT2, F12-NEVPT2, CIM, IAO-localization
   Andreas Hansen         : Spin unrestricted coupled pair/coupled cluster methods
   Ingolf Harden          : AUTO-CI MPn and infrastructure 
   Benjamin Helmich-Paris : MC-RPA, TRAH-(SCF,CASSCF), AVAS, COSX integrals, SCF dyn. polar.
   Lee Huntington         : MR-EOM, pCC
   Robert Izsak           : Overlap fitted RIJCOSX, COSX-SCS-MP3, EOM
   Riya Kayal             : Wick's Theorem for AUTO-CI, AUTO-CI UHF-CCSDT
   Emily Kempfer          : AUTO-CI, RHF CISDT and CCSDT
   Christian Kollmar      : KDIIS, OOCD, Brueckner-CCSD(T), CCSD density, CASPT2, CASPT2-K, improved NEVPT2
   Axel Koslowski         : Symmetry handling
   Simone Kossmann        : Meta GGA functionals, TD-DFT gradient, OOMP2, (MP2 Hessian; deprecated post 5.0)
   Lucas Lang             : DCDCAS
   Marvin Lechner         : AUTO-CI (C++ implementation), FIC-MRCC
   Spencer Leger          : CASSCF response
   Dagmar Lenk            : GEPOL surface, SMD, ORCA-2-JSON
   Dimitrios Liakos       : Extrapolation schemes; Compound Job, initial MDCI parallelization
   Dimitrios Manganas     : Further ROCIS development; embedding schemes. LFT, Crystal Embedding
   Dimitrios Pantazis     : SARC Basis sets
   Anastasios Papadopoulos: AUTO-CI, single reference methods and gradients
   Taras Petrenko         : pre 6.0 DFT Hessian and TD-DFT gradient, (ASA, deprecated), ECA, 1-Electron XAS/XES, NRVS
   Peter Pinski           : DLPNO-MP2, DLPNO-MP2 Gradient
   Christoph Reimann      : Effective Core Potentials
   Marius Retegan         : Local ZFS, SOC
   Christoph Riplinger    : Optimizer, TS searches, QM/MM, DLPNO-CCSD(T), (RO)-DLPNO pert. Triples
   Michael Roemelt        : Original ROCIS implementation
   Masaaki Saitow         : Open-shell DLPNO-CCSD energy and density
   Barbara Sandhoefer     : DKH picture change effects
   Kantharuban Sivalingam : CASSCF convergence/infrastructure, NEVPT2 and variants, FIC-MRCI
   Bernardo de Souza      : ESD, SOC TD-DFT
   Georgi Stoychev        : AutoAux, RI-MP2 NMR, DLPNO-MP2 response, X2C
   Van Anh Tran           : RI-MP2 g-tensors
   Willem Van den Heuvel  : Paramagnetic NMR
   Zikuan Wang            : NOTCH, Electric field optimization 
   Frank Wennmohs         : Technical directorship and infrastructure
   Hang Xu                : AUTO-CI-Response properties 


 We gratefully acknowledge several colleagues who have allowed us to
 interface, adapt or use parts of their codes:
   Stefan Grimme, W. Hujo, H. Kruse, P. Pracht,  : VdW corrections, initial TS optimization,
                  C. Bannwarth, S. Ehlert,         DFT functionals, gCP, sTDA/sTD-DF
                  L. Wittmann, M. Mueller
   Ed Valeev, F. Pavosevic, A. Kumar             : LibInt (2-el integral package), F12 methods
   Garnet Chan, S. Sharma, J. Yang, R. Olivares  : DMRG
   Ulf Ekstrom                                   : XCFun DFT Library
   Mihaly Kallay                                 : mrcc  (arbitrary order and MRCC methods)
   Frank Weinhold                                : gennbo (NPA and NBO analysis)
   Simon Mueller                                 : openCOSMO-RS
   Christopher J. Cramer and Donald G. Truhlar   : smd solvation model
   Lars Goerigk                                  : TD-DFT with DH, B97 family of functionals
   V. Asgeirsson, H. Jonsson                     : NEB implementation
   FAccTs GmbH                                   : IRC, NEB, NEB-TS, DLPNO-Multilevel, CI-OPT
                                                   MM, QMMM, 2- and 3-layer-ONIOM, Crystal-QMMM,
                                                   LR-CPCM, SF, NACMEs, symmetry and pop. for TD-DFT,
                                                   nearIR, NL-DFT gradient (VV10), updates on ESD,
                                                   ML-optimized integration grids, MBIS, APM,
                                                   GOAT, DOCKER, SOLVATOR, interface openCOSMO-RS
   S Lehtola, MJT Oliveira, MAL Marques          : LibXC Library
   Liviu Ungur et al                             : ANISO software


 Your calculation uses the libint2 library for the computation of 2-el integrals
 For citations please refer to: http://libint.valeyev.net

 Your ORCA version has been built with support for libXC version: 6.2.2
 For citations please refer to: https://libxc.gitlab.io

 This ORCA versions uses:
   CBLAS   interface :  Fast vector & matrix operations
   LAPACKE interface :  Fast linear algebra routines
   SCALAPACK package :  Parallel linear algebra routines
   Shared memory     :  Shared parallel matrices
   BLAS/LAPACK       :  OpenBLAS 0.3.27  USE64BITINT DYNAMIC_ARCH NO_AFFINITY SkylakeX SINGLE_THREADED
        Core in use  :  SkylakeX
   Copyright (c) 2011-2014, The OpenBLAS Project


Your calculation utilizes the geometrical counterpoise correction gCP
Please cite in your paper:
H.Kruse, S. Grimme J.Chem.Phys., 136, (2012), 154101 
   

Your calculation utilizes the atom-pairwise dispersion correction
based on EEQ partial charges (D4)


================================================================================

----- Orbital basis set information -----
Your calculation utilizes the basis: def2-mTZVPP
   Stefan Grimme, Andreas Hansen, Sebastian Ehlert, and Jan-Michael Mewes 
   J. Chem. Phys. 154, 064103 (2021). DOI: 10.1063/5.0040021

----- AuxJ basis set information -----
Your calculation utilizes the auxiliary basis: def2/J
   F. Weigend, Phys. Chem. Chem. Phys. 8, 1057 (2006).

================================================================================
                                        WARNINGS
                       Please study these warnings very carefully!
================================================================================

Using LibXC functional ID 497 : Re-regularized SCAN exchange by Furness et al
[ 1]  J. W. Furness, A. D. Kaplan, J. Ning, J. P. Perdew, and J. Sun.,  J. Phys. Chem. Lett. 11, 8208-8215 (2020)
[ 2]  J. W. Furness, A. D. Kaplan, J. Ning, J. P. Perdew, and J. Sun.,  J. Phys. Chem. Lett. 11, 9248-9248 (2020)
Using LibXC functional ID 498 : Re-regularized SCAN correlation by Furness et al
[ 1]  J. W. Furness, A. D. Kaplan, J. Ning, J. P. Perdew, and J. Sun.,  J. Phys. Chem. Lett. 11, 8208-8215 (2020)
[ 2]  J. W. Furness, A. D. Kaplan, J. Ning, J. P. Perdew, and J. Sun.,  J. Phys. Chem. Lett. 11, 9248-9248 (2020)
Using LibXC functional ID 497 : Re-regularized SCAN exchange by Furness et al
[ 1]  J. W. Furness, A. D. Kaplan, J. Ning, J. P. Perdew, and J. Sun.,  J. Phys. Chem. Lett. 11, 8208-8215 (2020)
[ 2]  J. W. Furness, A. D. Kaplan, J. Ning, J. P. Perdew, and J. Sun.,  J. Phys. Chem. Lett. 11, 9248-9248 (2020)
Using LibXC functional ID 498 : Re-regularized SCAN correlation by Furness et al
[ 1]  J. W. Furness, A. D. Kaplan, J. Ning, J. P. Perdew, and J. Sun.,  J. Phys. Chem. Lett. 11, 8208-8215 (2020)
[ 2]  J. W. Furness, A. D. Kaplan, J. Ning, J. P. Perdew, and J. Sun.,  J. Phys. Chem. Lett. 11, 9248-9248 (2020)

================================================================================
                                       INPUT FILE
================================================================================
NAME = sp_gas.inp
|  1> ! r2scan-3c def2/J RI DEFGRID2 scfconv6 printgap
|  2> %output
|  3>     printlevel normal
|  4> end
|  5> * xyz 0 1
|  6> C -3.4989773855 -0.9161830141 0.1805753361
|  7> C -2.1642936042 -0.28054992 0.5468689896
|  8> C -1.2403605634 -0.1823000072 -0.673828697
|  9> C 0.0313208011 0.5344861979 -0.3042357777
| 10> O 0.0872873325 1.684680191 0.0822162859
| 11> O 1.0893935862 -0.251819457 -0.4315929296
| 12> C 2.3905364511 0.2547561391 -0.0838385094
| 13> C 3.1666928026 -0.8353358165 0.6336804576
| 14> H -4.0116552355 -0.3207691448 -0.5705326447
| 15> H -3.34734182 -1.9168985294 -0.2156784125
| 16> H -4.1345631556 -0.9848245114 1.0590862986
| 17> H -1.6740688414 -0.874460242 1.3208027766
| 18> H -2.3234816326 0.7233985597 0.9455020044
| 19> H -1.740297702 0.3949349755 -1.4532051474
| 20> H -0.9914231025 -1.1726082311 -1.0523521738
| 21> H 2.8852482013 0.5424577541 -1.015964
| 22> H 2.2606033562 1.1438091163 0.5411881038
| 23> H 2.6665350608 -1.1087975256 1.5586303925
| 24> H 3.2395631013 -1.7149401345 0.0009380435
| 25> H 4.1638921723 -0.4734993146 0.8618046645
| 26> *
| 27> 
| 28>                          ****END OF INPUT****
================================================================================

                       ****************************
                       * Single Point Calculation *
                       ****************************

---------------------------------
CARTESIAN COORDINATES (ANGSTROEM)
---------------------------------
  C     -3.498977   -0.916183    0.180575
  C     -2.164294   -0.280550    0.546869
  C     -1.240361   -0.182300   -0.673829
  C      0.031321    0.534486   -0.304236
  O      0.087287    1.684680    0.082216
  O      1.089394   -0.251819   -0.431593
  C      2.390536    0.254756   -0.083839
  C      3.166693   -0.835336    0.633680
  H     -4.011655   -0.320769   -0.570533
  H     -3.347342   -1.916899   -0.215678
  H     -4.134563   -0.984825    1.059086
  H     -1.674069   -0.874460    1.320803
  H     -2.323482    0.723399    0.945502
  H     -1.740298    0.394935   -1.453205
  H     -0.991423   -1.172608   -1.052352
  H      2.885248    0.542458   -1.015964
  H      2.260603    1.143809    0.541188
  H      2.666535   -1.108798    1.558630
  H      3.239563   -1.714940    0.000938
  H      4.163892   -0.473499    0.861805

----------------------------
CARTESIAN COORDINATES (A.U.)
----------------------------
  NO LB      ZA    FRAG     MASS         X           Y           Z
   0 C     6.0000    0    12.011   -6.612109   -1.731335    0.341238
   1 C     6.0000    0    12.011   -4.089922   -0.530163    1.033433
   2 C     6.0000    0    12.011   -2.343942   -0.344497   -1.273352
   3 C     6.0000    0    12.011    0.059188    1.010033   -0.574922
   4 O     8.0000    0    15.999    0.164949    3.183584    0.155366
   5 O     8.0000    0    15.999    2.058656   -0.475870   -0.815592
   6 C     6.0000    0    12.011    4.517459    0.481419   -0.158432
   7 C     6.0000    0    12.011    5.984182   -1.578556    1.197483
   8 H     1.0000    0     1.008   -7.580930   -0.606166   -1.078150
   9 H     1.0000    0     1.008   -6.325559   -3.622413   -0.407573
  10 H     1.0000    0     1.008   -7.813192   -1.861049    2.001383
  11 H     1.0000    0     1.008   -3.163532   -1.652490    2.495956
  12 H     1.0000    0     1.008   -4.390744    1.367025    1.786740
  13 H     1.0000    0     1.008   -3.288686    0.746319   -2.746160
  14 H     1.0000    0     1.008   -1.873518   -2.215908   -1.988657
  15 H     1.0000    0     1.008    5.452329    1.025097   -1.919894
  16 H     1.0000    0     1.008    4.271921    2.161486    1.022697
  17 H     1.0000    0     1.008    5.039021   -2.095324    2.945385
  18 H     1.0000    0     1.008    6.121887   -3.240767    0.001773
  19 H     1.0000    0     1.008    7.868616   -0.894784    1.628575

--------------------------------
INTERNAL COORDINATES (ANGSTROEM)
--------------------------------
 C      0   0   0     0.000000000000     0.00000000     0.00000000
 C      1   0   0     1.523017159120     0.00000000     0.00000000
 C      2   1   0     1.534082185321   111.29376698     0.00000000
 C      3   2   1     1.505840258007   110.10869135   176.10074535
 O      4   3   2     1.214670190571   124.59247103   297.75173231
 O      4   3   2     1.324392104189   111.62128661   116.75384578
 C      6   4   3     1.438931800404   119.35071263   181.77379287
 C      7   6   4     1.518404630407   108.88547051   139.86532753
 H      1   2   3     1.086977208803   110.54290790   299.39942357
 H      1   2   3     1.086941544227   110.46688010    59.56960247
 H      1   2   3     1.086490882400   110.15439131   179.49004180
 H      2   1   3     1.091798193487   109.69055015   239.07521501
 H      2   1   3     1.091861556593   110.10785274   120.51629207
 H      3   2   1     1.091130156875   109.04434442    57.66934091
 H      3   2   1     1.089018025678   110.85539112   296.76373485
 H      7   6   4     1.093786937793   107.19512655   260.16546968
 H      7   6   4     1.094511796477   108.45914343    17.79947102
 H      8   7   6     1.086495032247   110.34494702   297.64732732
 H      8   7   6     1.085991159853   109.90467914    57.69280792
 H      8   7   6     1.085068150307   109.25153855   177.64331896

---------------------------
INTERNAL COORDINATES (A.U.)
---------------------------
 C      0   0   0     0.000000000000     0.00000000     0.00000000
 C      1   0   0     2.878085328000     0.00000000     0.00000000
 C      2   1   0     2.898995197183   111.29376698     0.00000000
 C      3   2   1     2.845625689067   110.10869135   176.10074535
 O      4   3   2     2.295394003216   124.59247103   297.75173231
 O      4   3   2     2.502738370844   111.62128661   116.75384578
 C      6   4   3     2.719187028153   119.35071263   181.77379287
 C      7   6   4     2.869368911948   108.88547051   139.86532753
 H      1   2   3     2.054089238452   110.54290790   299.39942357
 H      1   2   3     2.054021842170   110.46688010    59.56960247
 H      1   2   3     2.053170214738   110.15439131   179.49004180
 H      2   1   3     2.063199579200   109.69055015   239.07521501
 H      2   1   3     2.063319318118   110.10785274   120.51629207
 H      3   2   1     2.061937172957   109.04434442    57.66934091
 H      3   2   1     2.057945823435   110.85539112   296.76373485
 H      7   6   4     2.066957761288   107.19512655   260.16546968
 H      7   6   4     2.068327545687   108.45914343    17.79947102
 H      8   7   6     2.053178056813   110.34494702   297.64732732
 H      8   7   6     2.052225875981   109.90467914    57.69280792
 H      8   7   6     2.050481640721   109.25153855   177.64331896

---------------------
BASIS SET INFORMATION
---------------------
There are 3 groups of distinct atoms

 Group   1 Type C   : 11s6p1d contracted to 5s3p1d pattern {62111/411/1}
 Group   2 Type O   : 11s6p2d contracted to 5s3p2d pattern {62111/411/11}
 Group   3 Type H   : 4s1p contracted to 2s1p pattern {31/1}

Atom   0C    basis set group =>   1
Atom   1C    basis set group =>   1
Atom   2C    basis set group =>   1
Atom   3C    basis set group =>   1
Atom   4O    basis set group =>   2
Atom   5O    basis set group =>   2
Atom   6C    basis set group =>   1
Atom   7C    basis set group =>   1
Atom   8H    basis set group =>   3
Atom   9H    basis set group =>   3
Atom  10H    basis set group =>   3
Atom  11H    basis set group =>   3
Atom  12H    basis set group =>   3
Atom  13H    basis set group =>   3
Atom  14H    basis set group =>   3
Atom  15H    basis set group =>   3
Atom  16H    basis set group =>   3
Atom  17H    basis set group =>   3
Atom  18H    basis set group =>   3
Atom  19H    basis set group =>   3
---------------------------------
AUXILIARY/J BASIS SET INFORMATION
---------------------------------
There are 3 groups of distinct atoms

 Group   1 Type C   : 12s5p4d2f1g contracted to 6s4p3d1f1g pattern {711111/2111/211/2/1}
 Group   2 Type O   : 12s5p4d2f1g contracted to 6s4p3d1f1g pattern {711111/2111/211/2/1}
 Group   3 Type H   : 5s2p1d contracted to 3s1p1d pattern {311/2/1}

Atom   0C    basis set group =>   1
Atom   1C    basis set group =>   1
Atom   2C    basis set group =>   1
Atom   3C    basis set group =>   1
Atom   4O    basis set group =>   2
Atom   5O    basis set group =>   2
Atom   6C    basis set group =>   1
Atom   7C    basis set group =>   1
Atom   8H    basis set group =>   3
Atom   9H    basis set group =>   3
Atom  10H    basis set group =>   3
Atom  11H    basis set group =>   3
Atom  12H    basis set group =>   3
Atom  13H    basis set group =>   3
Atom  14H    basis set group =>   3
Atom  15H    basis set group =>   3
Atom  16H    basis set group =>   3
Atom  17H    basis set group =>   3
Atom  18H    basis set group =>   3
Atom  19H    basis set group =>   3

Checking for AutoStart:
The File: sp_gas.gbw exists
Trying to determine its content:
     ... Fine, the file contains calculation information
     ... Fine, the calculation information was read
     ... Fine, the file contains a basis set
     ... Fine, the basis set was read
     ... Fine, the file contains a geometry
     ... Fine, the geometry was read
     ... Fine, the file contains a set of orbitals
     ... Fine, the orbitals can be read
     => possible old guess file was deleted
     => GBW file was renamed to GES file
     => GES file is set as startup file
     => Guess is set to MORead
     ... now leaving AutoStart

------------------------------------------------------------------------------
                             ORCA STARTUP CALCULATIONS
                           -- RI-GTO INTEGRALS CHOSEN --
------------------------------------------------------------------------------
------------------------------------------------------------------------------
                   ___                                                        
                  /   \      - P O W E R E D   B Y -                         
                 /     \                                                     
                 |  |  |   _    _      __       _____    __    __             
                 |  |  |  | |  | |    /  \     |  _  \  |  |  /  |          
                  \  \/   | |  | |   /    \    | | | |  |  | /  /          
                 / \  \   | |__| |  /  /\  \   | |_| |  |  |/  /          
                |  |  |   |  __  | /  /__\  \  |    /   |      \           
                |  |  |   | |  | | |   __   |  |    \   |  |\   \          
                \     /   | |  | | |  |  |  |  | |\  \  |  | \   \       
                 \___/    |_|  |_| |__|  |__|  |_| \__\ |__|  \__/        
                                                                              
                      - O R C A' S   B I G   F R I E N D -                    
                                      &                                       
                       - I N T E G R A L  F E E D E R -                       
                                                                              
 v1 FN, 2020, v2 2021, v3 2022-2024                                           
------------------------------------------------------------------------------


----------------------
SHARK INTEGRAL PACKAGE
----------------------

Number of atoms                             ...     20
Number of basis functions                   ...    222
Number of shells                            ...    110
Maximum angular momentum                    ...      2
Integral batch strategy                     ... SHARK/LIBINT Hybrid
RI-J (if used) integral strategy            ... SPLIT-RIJ (Revised 2003 algorithm where possible)
Printlevel                                  ...      1
Contraction scheme used                     ... SEGMENTED contraction
Prescreening option                         ... SCHWARTZ
   Thresh                                   ... 1.000e-10
   Tcut                                     ... 1.000e-11
   Tpresel                                  ... 1.000e-11 
Coulomb Range Separation                    ... NOT USED
Exchange Range Separation                   ... NOT USED
Multipole approximations                    ... NOT USED
Finite Nucleus Model                        ... NOT USED
CABS basis                                  ... NOT available
Auxiliary Coulomb fitting basis             ... AVAILABLE
   # of basis functions in Aux-J            ...    524
   # of shells in Aux-J                     ...    180
   Maximum angular momentum in Aux-J        ...      4
Auxiliary J/K fitting basis                 ... NOT available
Auxiliary Correlation fitting basis         ... NOT available
Auxiliary 'external' fitting basis          ... NOT available

Checking pre-screening integrals            ... done (  0.0 sec) Dimension = 110
Check shell pair data                       ... done (  0.0 sec)
Shell pair information
Shell pair cut-off parameter TPreSel        ...   1.0e-11
Total number of shell pairs                 ...      6105
Shell pairs after pre-screening             ...      5146
Total number of primitive shell pairs       ...     21533
Primitive shell pairs kept                  ...     12806
          la=0 lb=0:   1732 shell pairs
          la=1 lb=0:   1941 shell pairs
          la=1 lb=1:    567 shell pairs
          la=2 lb=0:    549 shell pairs
          la=2 lb=1:    307 shell pairs
          la=2 lb=2:     50 shell pairs

Calculating one electron integrals          ... done (  0.0 sec)
Calculating RI/J V-Matrix + Cholesky decomp.... done (  0.1 sec)
Calculating Nuclear repulsion               ... done (  0.0 sec) ENN=    385.561983699693 Eh

Diagonalization of the overlap matrix:
Smallest eigenvalue                        ... 1.350e-04
Time for diagonalization                   ...    0.009 sec
Threshold for overlap eigenvalues          ... 1.000e-07
Number of eigenvalues below threshold      ... 0
Time for construction of square roots      ...    0.017 sec
Total time needed                          ...    0.036 sec

-------------------
DFT GRID GENERATION
-------------------

General Integration Accuracy     IntAcc      ... 4.388
Radial Grid Type                 RadialGrid  ... OptM3 with GC (2021)
Angular Grid (max. ang.)         AngularGrid ... 4 (Lebedev-302)
Angular grid pruning method      GridPruning ... 4 (adaptive)
Weight generation scheme         WeightScheme... mBecke (2022)
Basis function cutoff            BFCut       ... 1.0000e-10
Integration weight cutoff        WCut        ... 1.0000e-14
Partially contracted basis set               ... off
Rotationally invariant grid construction     ... off
Angular grids for H and He will be reduced by one unit
Diffuse basis detected: some atoms will have their outermost
                        angular grid increased by 1.

Total number of grid points                  ...    87495
Total number of batches                      ...     1376
Average number of points per batch           ...       63
Average number of grid points per atom       ...     4375
Initializing property integral containers    ... done (  0.0 sec)

SHARK setup successfully completed in   1.3 seconds

Maximum memory used throughout the entire STARTUP-calculation: 39.1 MB
-------------------------------------------------------------------------------
                                 ORCA GUESS
                   Start orbitals & Density for SCF / CASSCF
-------------------------------------------------------------------------------

------------
SCF SETTINGS
------------
Hamiltonian:
 Density Functional     Method          .... DFT(GTOs)
  Functional kind                       .... Exchange
  Functional name                       .... Re-regularized SCAN exchange by Furness et al
  Functional family                     .... MGGA
  Functional refs                              
    [ 0] J. W. Furness, A. D. Kaplan, J. Ning, J. P. Perdew, and J. Sun.,  J. Phys. Chem. Lett. 11, 8208-8215 (2020), doi: 10.1021/acs.jpclett.0c02405
    [ 1] J. W. Furness, A. D. Kaplan, J. Ning, J. P. Perdew, and J. Sun.,  J. Phys. Chem. Lett. 11, 9248-9248 (2020), doi: 10.1021/acs.jpclett.0c03077
  Functional external parameters        .... 6
    Parameter  0 _c1        =  6.670000e-01 : c1 parameter        
    Parameter  1 _c2        =  8.000000e-01 : c2 parameter        
    Parameter  2 _d         =  1.240000e+00 : d parameter         
    Parameter  3 _k1        =  6.500000e-02 : k1 parameter        
    Parameter  4 _eta       =  1.000000e-03 : eta parameter       
    Parameter  5 _dp2       =  3.610000e-01 : dp2 parameter       
  Functional kind                       .... Correlation
  Functional name                       .... Re-regularized SCAN correlation by Furness et al
  Functional family                     .... MGGA
  Functional refs                              
    [ 0] J. W. Furness, A. D. Kaplan, J. Ning, J. P. Perdew, and J. Sun.,  J. Phys. Chem. Lett. 11, 8208-8215 (2020), doi: 10.1021/acs.jpclett.0c02405
    [ 1] J. W. Furness, A. D. Kaplan, J. Ning, J. P. Perdew, and J. Sun.,  J. Phys. Chem. Lett. 11, 9248-9248 (2020), doi: 10.1021/acs.jpclett.0c03077
  Functional external parameters        .... 1
    Parameter  0 _eta       =  1.000000e-03 : Regularization parameter
 Gradients option       PostSCFGGA      .... off
 RI-approximation to the Coulomb term is turned on
   Number of AuxJ basis functions       .... 524


General Settings:
 Integral files         IntName         .... sp_gas
 Hartree-Fock type      HFTyp           .... RHF
 Total Charge           Charge          ....    0
 Multiplicity           Mult            ....    1
 Number of Electrons    NEL             ....   64
 Basis Dimension        Dim             ....  222
 Nuclear Repulsion      ENuc            ....    385.5619836997 Eh

Convergence Acceleration:
 AO-DIIS                CNVDIIS         .... on
   Start iteration      DIISMaxIt       ....    12
   Startup error        DIISStart       ....  0.200000
   # of expansion vecs  DIISMaxEq       ....     5
   Bias factor          DIISBfac        ....   1.050
   Max. coefficient     DIISMaxC        ....  10.000
 MO-DIIS                CNVKDIIS        .... off
 Trust-Rad. Augm. Hess. CNVTRAH         .... auto
   Auto Start mean grad. ratio tolernc. ....  1.125000
   Auto Start start iteration           ....     1
   Auto Start num. interpolation iter.  ....    10
   Max. Number of Micro iterations      ....    24
   Max. Number of Macro iterations      .... Maxiter - #DIIS iter
   Number of Davidson start vectors     ....     2
   Converg. threshold    (grad. norm)   ....   3.330e-04
   Grad. Scal. Fac. for Micro threshold ....   0.100
   Minimum threshold for Micro iter.    ....   1.000e-02
   NR start threshold (gradient norm)   ....   1.000e-04
   Initial trust radius                 ....   0.400
   Minimum AH scaling param. (alpha)    ....   1.000
   Maximum AH scaling param. (alpha)    .... 1000.000
   Quad. conv. algorithm                .... NR
   White noise on init. David. guess    .... on
   Maximum white noise                  ....   0.010
   Pseudo random numbers                .... off
   Inactive MOs                         .... canonical
   Orbital update algorithm             .... Taylor
   Preconditioner                       .... Diag
   Full preconditioner red. dimension   ....   250
   COSX micro iterations for RIJONX calc.... off
 SOSCF                  CNVSOSCF        .... on
   Start iteration      SOSCFMaxIt      ....   150
   Startup grad/error   SOSCFStart      ....  0.003300
   Hessian update       SOSCFHessUp     .... L-BFGS
 Level Shifting         CNVShift        .... on
   Level shift para.    LevelShift      ....    0.2500
   Turn off err/grad.   ShiftErr        ....    0.0010
 Zerner damping         CNVZerner       .... off
 Static damping         CNVDamp         .... on
   Fraction old density DampFac         ....    0.7000
   Max. Damping (<1)    DampMax         ....    0.9800
   Min. Damping (>=0)   DampMin         ....    0.0000
   Turn off err/grad.   DampErr         ....    0.1000

SCF Procedure:
 Maximum # iterations   MaxIter         ....   125
 SCF integral mode      SCFMode         .... Direct
   Integral package                     .... SHARK and LIBINT hybrid scheme
 Reset frequency        DirectResetFreq ....    20
 Integral Threshold     Thresh          ....  1.000e-10 Eh
 Primitive CutOff       TCut            ....  1.000e-11 Eh

Convergence Tolerance:
 Convergence Check Mode ConvCheckMode   .... Total+1el-Energy
 Convergence forced     ConvForced      .... 0
 Energy Change          TolE            ....  1.000e-06 Eh
 1-El. energy change                    ....  1.000e-03 Eh
 Orbital Gradient       TolG            ....  3.330e-04
 Orbital Rotation angle TolX            ....  3.330e-04
 DIIS Error             TolErr          ....  1.000e-06

---------------------
INITIAL GUESS: MOREAD
---------------------
Guess MOs are being read from file: sp_gas.ges
Input Geometry matches current geometry (good)
Atom 0: N(Shells)= 9 and 6 - projection required
Input basis set needs projection
NBasis(read)= 136
NBasis(calc)= 222
Basis set overlap was calculated
Using GuessMode=FMatrix for the initial guess
C*T matrix was formed
Effective Fockian was calculated
Effective Fockian was diagonalized
Initial density was built
                      ------------------
                      INITIAL GUESS DONE (   0.1 sec)
                      ------------------
             **** ENERGY FILE WAS UPDATED (sp_gas.en.tmp) ****
Finished Guess after   0.3 sec
Maximum memory used throughout the entire GUESS-calculation: 14.8 MB

-------------------------------------------------------------------------------------------
                                      ORCA LEAN-SCF
                              memory conserving SCF solver
-------------------------------------------------------------------------------------------

----------------------------------------D-I-I-S--------------------------------------------
Iteration    Energy (Eh)           Delta-E    RMSDP     MaxDP     DIISErr   Damp  Time(sec)
-------------------------------------------------------------------------------------------
               ***  Starting incremental Fock matrix formation  ***
    1    -386.0468312078587587     0.00e+00  3.45e-03  1.22e-01  6.26e-01  0.700   2.9
    2    -386.1046572965917676    -5.78e-02  2.82e-03  9.06e-02  4.40e-01  0.700   2.8
    3    -386.1455279419253657    -4.09e-02  2.08e-03  6.42e-02  3.08e-01  0.700   2.6
    4    -386.1742182107369672    -2.87e-02  1.49e-03  4.53e-02  2.16e-01  0.700   2.5
                               ***Turning on AO-DIIS***
    5    -386.1943400587176711    -2.01e-02  1.07e-03  3.25e-02  1.51e-01  0.700   2.6
    6    -386.2084436978148005    -1.41e-02  7.62e-04  2.29e-02  1.06e-01  0.700   2.7
    7    -386.2183294962328546    -9.89e-03  5.37e-04  1.61e-02  7.40e-02  0.700   2.5
    8    -386.2252553105347488    -6.93e-03  1.26e-03  3.75e-02  5.19e-02  0.000   2.5
                              *** Initializing SOSCF ***
---------------------------------------S-O-S-C-F--------------------------------------
Iteration    Energy (Eh)           Delta-E    RMSDP     MaxDP     MaxGrad    Time(sec)
--------------------------------------------------------------------------------------
    9    -386.2414354186058745    -1.62e-02  7.83e-06  2.82e-04  8.28e-05     2.5
                  *** Gradient check signals convergence ***

               *****************************************************
               *                     SUCCESS                       *
               *           SCF CONVERGED AFTER   9 CYCLES          *
               *****************************************************

             **** ENERGY FILE WAS UPDATED (sp_gas.en.tmp) ****

----------------
TOTAL SCF ENERGY
----------------

Total Energy       :       -386.24143541860587 Eh          -10510.16378 eV

Components:
Nuclear Repulsion  :        385.56198369969331 Eh           10491.67496 eV
Electronic Energy  :       -771.80341911829919 Eh          -21001.83875 eV
One Electron Energy:      -1288.27478992530132 Eh          -35055.73923 eV
Two Electron Energy:        516.47137080700213 Eh           14053.90049 eV

Virial components:
Potential Energy   :       -770.88749344939106 Eh          -20976.91514 eV
Kinetic Energy     :        384.64605803078524 Eh           10466.75136 eV
Virial Ratio       :          2.00414765042956

DFT components:
N(Alpha)           :       31.999975793249 electrons
N(Beta)            :       31.999975793249 electrons
N(Total)           :       63.999951586497 electrons
E(X)               :      -52.079537021083 Eh       
E(C)               :       -2.036722980614 Eh       
E(XC)              :      -54.116260001697 Eh       

---------------
SCF CONVERGENCE
---------------

  Last Energy change         ...    1.6180e-02  Tolerance :   1.0000e-06
  Last MAX-Density change    ...    2.8206e-04  Tolerance :   1.0000e-05
  Last RMS-Density change    ...    7.8339e-06  Tolerance :   1.0000e-06
  Last DIIS Error            ...    8.2779e-05  Tolerance :   1.0000e-06
  Last Orbital Gradient      ...    8.2779e-05  Tolerance :   3.3300e-04
  Last Orbital Rotation      ...    8.2779e-05  Tolerance :   3.3300e-04


----------------
ORBITAL ENERGIES
----------------

  NO   OCC          E(Eh)            E(eV) 
   0   2.0000     -18.996305      -516.9157 
   1   2.0000     -18.925103      -514.9782 
   2   2.0000     -10.150482      -276.2087 
   3   2.0000     -10.089705      -274.5548 
   4   2.0000     -10.039792      -273.1966 
   5   2.0000     -10.035377      -273.0765 
   6   2.0000     -10.031659      -272.9753 
   7   2.0000     -10.021741      -272.7054 
   8   2.0000      -1.070320       -29.1249 
   9   2.0000      -0.973264       -26.4839 
  10   2.0000      -0.773048       -21.0357 
  11   2.0000      -0.743114       -20.2212 
  12   2.0000      -0.680490       -18.5171 
  13   2.0000      -0.617028       -16.7902 
  14   2.0000      -0.565666       -15.3925 
  15   2.0000      -0.529849       -14.4179 
  16   2.0000      -0.468105       -12.7378 
  17   2.0000      -0.456636       -12.4257 
  18   2.0000      -0.447299       -12.1716 
  19   2.0000      -0.422910       -11.5080 
  20   2.0000      -0.406150       -11.0519 
  21   2.0000      -0.381534       -10.3821 
  22   2.0000      -0.374686       -10.1957 
  23   2.0000      -0.370390       -10.0788 
  24   2.0000      -0.359926        -9.7941 
  25   2.0000      -0.335053        -9.1173 
  26   2.0000      -0.326864        -8.8944 
  27   2.0000      -0.314060        -8.5460 
  28   2.0000      -0.306287        -8.3345 
  29   2.0000      -0.302927        -8.2431 
  30   2.0000      -0.268941        -7.3183 
  31   2.0000      -0.233735        -6.3603 
  32   0.0000      -0.013097        -0.3564 
  33   0.0000       0.078870         2.1462 
  34   0.0000       0.097013         2.6399 
  35   0.0000       0.104172         2.8347 
  36   0.0000       0.120044         3.2666 
  37   0.0000       0.131233         3.5710 
  38   0.0000       0.136219         3.7067 
  39   0.0000       0.142106         3.8669 
  40   0.0000       0.147667         4.0182 
  41   0.0000       0.156738         4.2651 
  42   0.0000       0.166666         4.5352 
*Only the first 10 virtual orbitals were printed.

                    ********************************
                    * MULLIKEN POPULATION ANALYSIS *
                    ********************************

-----------------------
MULLIKEN ATOMIC CHARGES
-----------------------
   0 C :   -0.472017
   1 C :   -0.228266
   2 C :   -0.344882
   3 C :    0.417407
   4 O :   -0.441537
   5 O :   -0.172279
   6 C :   -0.159502
   7 C :   -0.443492
   8 H :    0.145789
   9 H :    0.142678
  10 H :    0.150313
  11 H :    0.137793
  12 H :    0.166852
  13 H :    0.163540
  14 H :    0.160800
  15 H :    0.142719
  16 H :    0.183233
  17 H :    0.151254
  18 H :    0.152852
  19 H :    0.146744
Sum of atomic charges:   -0.0000000

--------------------------------
MULLIKEN REDUCED ORBITAL CHARGES
--------------------------------
  0 C s       :     3.335409  s :     3.335409
      pz      :     1.087524  p :     3.109537
      px      :     0.967220
      py      :     1.054793
      dz2     :     0.003094  d :     0.027071
      dxz     :     0.008012
      dyz     :     0.004588
      dx2y2   :     0.006623
      dxy     :     0.004754

  1 C s       :     3.201147  s :     3.201147
      pz      :     0.969946  p :     2.990169
      px      :     0.928950
      py      :     1.091273
      dz2     :     0.005396  d :     0.036949
      dxz     :     0.010136
      dyz     :     0.007183
      dx2y2   :     0.008015
      dxy     :     0.006220

  2 C s       :     3.263825  s :     3.263825
      pz      :     1.003899  p :     3.046322
      px      :     0.978099
      py      :     1.064324
      dz2     :     0.006145  d :     0.034735
      dxz     :     0.007570
      dyz     :     0.007142
      dx2y2   :     0.006216
      dxy     :     0.007662

  3 C s       :     3.134592  s :     3.134592
      pz      :     0.753580  p :     2.322613
      px      :     0.808322
      py      :     0.760711
      dz2     :     0.010282  d :     0.125388
      dxz     :     0.014634
      dyz     :     0.022061
      dx2y2   :     0.028346
      dxy     :     0.050065

  4 O s       :     3.840463  s :     3.840463
      pz      :     1.447013  p :     4.579218
      px      :     1.814695
      py      :     1.317510
      dz2     :     0.004928  d :     0.021856
      dxz     :     0.000788
      dyz     :     0.008595
      dx2y2   :     0.007055
      dxy     :     0.000489

  5 O s       :     3.699682  s :     3.699682
      pz      :     1.721638  p :     4.444118
      px      :     1.087956
      py      :     1.634523
      dz2     :     0.002468  d :     0.028479
      dxz     :     0.001608
      dyz     :     0.007471
      dx2y2   :     0.000831
      dxy     :     0.016101

  6 C s       :     3.286119  s :     3.286119
      pz      :     1.065531  p :     2.820226
      px      :     0.759247
      py      :     0.995448
      dz2     :     0.007226  d :     0.053157
      dxz     :     0.012433
      dyz     :     0.009215
      dx2y2   :     0.012688
      dxy     :     0.011595

  7 C s       :     3.311228  s :     3.311228
      pz      :     1.057486  p :     3.106451
      px      :     1.045084
      py      :     1.003881
      dz2     :     0.004368  d :     0.025813
      dxz     :     0.004170
      dyz     :     0.007306
      dx2y2   :     0.005011
      dxy     :     0.004958

  8 H s       :     0.835961  s :     0.835961
      pz      :     0.007186  p :     0.018250
      px      :     0.005325
      py      :     0.005739

  9 H s       :     0.839069  s :     0.839069
      pz      :     0.004704  p :     0.018253
      px      :     0.003680
      py      :     0.009869

 10 H s       :     0.831354  s :     0.831354
      pz      :     0.008318  p :     0.018333
      px      :     0.006267
      py      :     0.003749

 11 H s       :     0.844352  s :     0.844352
      pz      :     0.007338  p :     0.017855
      px      :     0.004860
      py      :     0.005656

 12 H s       :     0.815341  s :     0.815341
      pz      :     0.004384  p :     0.017807
      px      :     0.003389
      py      :     0.010033

 13 H s       :     0.818411  s :     0.818411
      pz      :     0.007535  p :     0.018048
      px      :     0.005063
      py      :     0.005451

 14 H s       :     0.821375  s :     0.821375
      pz      :     0.004364  p :     0.017825
      px      :     0.003625
      py      :     0.009836

 15 H s       :     0.839874  s :     0.839874
      pz      :     0.009068  p :     0.017407
      px      :     0.004268
      py      :     0.004070

 16 H s       :     0.798528  s :     0.798528
      pz      :     0.005947  p :     0.018239
      px      :     0.002828
      py      :     0.009464

 17 H s       :     0.830520  s :     0.830520
      pz      :     0.009056  p :     0.018226
      px      :     0.005064
      py      :     0.004106

 18 H s       :     0.828891  s :     0.828891
      pz      :     0.005992  p :     0.018258
      px      :     0.003633
      py      :     0.008633

 19 H s       :     0.834810  s :     0.834810
      pz      :     0.004078  p :     0.018445
      px      :     0.010056
      py      :     0.004311


------------------------
MULLIKEN OVERLAP CHARGES
------------------------
B(  0-C ,  1-C ) :   0.4719 B(  0-C ,  2-C ) :  -0.1883 B(  0-C ,  8-H ) :   0.8691 
B(  0-C ,  9-H ) :   0.8438 B(  0-C , 10-H ) :   0.8089 B(  0-C , 12-H ) :  -0.0598 
B(  1-C ,  2-C ) :   0.3969 B(  1-C ,  8-H ) :  -0.1160 B(  1-C ,  9-H ) :  -0.0841 
B(  1-C , 10-H ) :  -0.0823 B(  1-C , 11-H ) :   0.7956 B(  1-C , 12-H ) :   0.8497 
B(  1-C , 13-H ) :  -0.0923 B(  1-C , 14-H ) :  -0.0522 B(  2-C ,  3-C ) :   0.4602 
B(  2-C ,  4-O ) :  -0.1228 B(  2-C ,  5-O ) :  -0.0613 B(  2-C , 12-H ) :  -0.0597 
B(  2-C , 13-H ) :   0.8763 B(  2-C , 14-H ) :   0.8644 B(  3-C ,  4-O ) :   0.9542 
B(  3-C ,  5-O ) :   0.3871 B(  3-C ,  6-C ) :  -0.2451 B(  3-C , 13-H ) :  -0.0714 
B(  3-C , 14-H ) :  -0.1265 B(  3-C , 16-H ) :  -0.0502 B(  4-O ,  5-O ) :  -0.2164 
B(  5-O ,  6-C ) :   0.2472 B(  5-O ,  7-C ) :  -0.0695 B(  5-O , 15-H ) :  -0.0781 
B(  5-O , 16-H ) :  -0.0688 B(  6-C ,  7-C ) :   0.4742 B(  6-C , 15-H ) :   0.7518 
B(  6-C , 16-H ) :   0.8725 B(  6-C , 17-H ) :  -0.0807 B(  6-C , 19-H ) :  -0.0819 
B(  7-C , 16-H ) :  -0.0666 B(  7-C , 17-H ) :   0.8344 B(  7-C , 18-H ) :   0.8139 
B(  7-C , 19-H ) :   0.8229 B(  8-H ,  9-H ) :  -0.0534 B( 15-H , 16-H ) :  -0.0524 



                     *******************************
                     * LOEWDIN POPULATION ANALYSIS *
                     *******************************

----------------------
LOEWDIN ATOMIC CHARGES
----------------------
   0 C :   -0.420445
   1 C :   -0.288979
   2 C :   -0.229932
   3 C :    0.359898
   4 O :   -0.442426
   5 O :   -0.596677
   6 C :    0.031511
   7 C :   -0.386961
   8 H :    0.150945
   9 H :    0.150147
  10 H :    0.152961
  11 H :    0.155186
  12 H :    0.165702
  13 H :    0.179053
  14 H :    0.176254
  15 H :    0.174769
  16 H :    0.193564
  17 H :    0.158080
  18 H :    0.158233
  19 H :    0.159117

-------------------------------
LOEWDIN REDUCED ORBITAL CHARGES
-------------------------------
  0 C s       :     2.973298  s :     2.973298
      pz      :     1.152957  p :     3.383680
      px      :     1.089535
      py      :     1.141189
      dz2     :     0.007363  d :     0.063467
      dxz     :     0.018767
      dyz     :     0.011367
      dx2y2   :     0.015221
      dxy     :     0.010749

  1 C s       :     2.935373  s :     2.935373
      pz      :     1.082078  p :     3.273806
      px      :     1.051191
      py      :     1.140536
      dz2     :     0.011351  d :     0.079800
      dxz     :     0.022234
      dyz     :     0.015836
      dx2y2   :     0.017318
      dxy     :     0.013061

  2 C s       :     2.925559  s :     2.925559
      pz      :     1.095340  p :     3.230510
      px      :     1.029227
      py      :     1.105943
      dz2     :     0.011910  d :     0.073863
      dxz     :     0.017068
      dyz     :     0.015407
      dx2y2   :     0.013875
      dxy     :     0.015603

  3 C s       :     2.735557  s :     2.735557
      pz      :     0.740989  p :     2.631482
      px      :     0.930269
      py      :     0.960225
      dz2     :     0.023288  d :     0.273063
      dxz     :     0.027794
      dyz     :     0.045031
      dx2y2   :     0.064356
      dxy     :     0.112594

  4 O s       :     3.549852  s :     3.549852
      pz      :     1.450320  p :     4.672384
      px      :     1.748347
      py      :     1.473717
      dz2     :     0.027407  d :     0.220190
      dxz     :     0.016284
      dyz     :     0.051271
      dx2y2   :     0.061525
      dxy     :     0.063703

  5 O s       :     3.463463  s :     3.463463
      pz      :     1.695662  p :     4.657897
      px      :     1.319719
      py      :     1.642516
      dz2     :     0.053761  d :     0.475317
      dxz     :     0.104062
      dyz     :     0.047494
      dx2y2   :     0.137899
      dxy     :     0.132102

  6 C s       :     2.868769  s :     2.868769
      pz      :     1.080442  p :     2.980441
      px      :     0.851543
      py      :     1.048456
      dz2     :     0.014007  d :     0.119279
      dxz     :     0.028827
      dyz     :     0.022251
      dx2y2   :     0.027433
      dxy     :     0.026762

  7 C s       :     2.973442  s :     2.973442
      pz      :     1.131917  p :     3.352585
      px      :     1.112456
      py      :     1.108211
      dz2     :     0.009927  d :     0.060934
      dxz     :     0.009707
      dyz     :     0.017520
      dx2y2   :     0.012522
      dxy     :     0.011258

  8 H s       :     0.805674  s :     0.805674
      pz      :     0.017313  p :     0.043381
      px      :     0.012331
      py      :     0.013737

  9 H s       :     0.806436  s :     0.806436
      pz      :     0.010695  p :     0.043417
      px      :     0.008336
      py      :     0.024386

 10 H s       :     0.803509  s :     0.803509
      pz      :     0.020589  p :     0.043529
      px      :     0.014777
      py      :     0.008163

 11 H s       :     0.801742  s :     0.801742
      pz      :     0.017639  p :     0.043071
      px      :     0.011706
      py      :     0.013727

 12 H s       :     0.790528  s :     0.790528
      pz      :     0.010405  p :     0.043770
      px      :     0.007915
      py      :     0.025449

 13 H s       :     0.777020  s :     0.777020
      pz      :     0.018234  p :     0.043927
      px      :     0.012305
      py      :     0.013389

 14 H s       :     0.779754  s :     0.779754
      pz      :     0.010503  p :     0.043992
      px      :     0.008593
      py      :     0.024895

 15 H s       :     0.784887  s :     0.784887
      pz      :     0.022252  p :     0.040344
      px      :     0.008947
      py      :     0.009145

 16 H s       :     0.761941  s :     0.761941
      pz      :     0.014278  p :     0.044495
      px      :     0.007309
      py      :     0.022908

 17 H s       :     0.798591  s :     0.798591
      pz      :     0.022126  p :     0.043329
      px      :     0.011991
      py      :     0.009213

 18 H s       :     0.798329  s :     0.798329
      pz      :     0.014616  p :     0.043438
      px      :     0.007770
      py      :     0.021053

 19 H s       :     0.797026  s :     0.797026
      pz      :     0.009041  p :     0.043857
      px      :     0.024712
      py      :     0.010104


---------------------------------
LOEWDIN BOND ORDERS (THRESH 0.050000)
---------------------------------
B(  0-C ,  1-C ) :   1.1451 B(  0-C ,  2-C ) :   0.0748 B(  0-C ,  8-H ) :   0.9295 
B(  0-C ,  9-H ) :   0.9288 B(  0-C , 10-H ) :   0.9280 B(  1-C ,  2-C ) :   1.0743 
B(  1-C ,  3-C ) :   0.0800 B(  1-C , 11-H ) :   0.8940 B(  1-C , 12-H ) :   0.8871 
B(  2-C ,  3-C ) :   0.9227 B(  2-C ,  4-O ) :   0.1806 B(  2-C ,  5-O ) :   0.1877 
B(  2-C , 13-H ) :   0.8664 B(  2-C , 14-H ) :   0.8667 B(  3-C ,  4-O ) :   2.1646 
B(  3-C ,  5-O ) :   1.4582 B(  3-C ,  6-C ) :   0.0855 B(  4-O ,  5-O ) :   0.4621 
B(  4-O ,  6-C ) :   0.0731 B(  5-O ,  6-C ) :   1.2912 B(  5-O ,  7-C ) :   0.1676 
B(  5-O , 15-H ) :   0.0955 B(  5-O , 16-H ) :   0.0894 B(  6-C ,  7-C ) :   1.0906 
B(  6-C , 15-H ) :   0.8328 B(  6-C , 16-H ) :   0.8118 B(  7-C , 17-H ) :   0.9249 
B(  7-C , 18-H ) :   0.9224 B(  7-C , 19-H ) :   0.9194 

------------------------------------------
LOEWDIN REDUCED ORBITAL POPULATIONS PER MO
-------------------------------------------
THRESHOLD FOR PRINTING IS 0.1%%
                      0         1         2         3         4         5   
                 -18.99631 -18.92510 -10.15048 -10.08971 -10.03979 -10.03538
                   2.00000   2.00000   2.00000   2.00000   2.00000   2.00000
                  --------  --------  --------  --------  --------  --------
 1 C  s               0.0       0.0       0.0       0.0       0.0      99.7
 2 C  s               0.0       0.0       0.0       0.0      99.6       0.0
 3 C  s               0.0       0.0      98.9       0.0       0.0       0.0
 4 O  s               0.0      99.9       0.0       0.0       0.0       0.0
 4 O  py              0.0       0.0       0.2       0.0       0.0       0.0
 4 O  dx2y2           0.0       0.0       0.2       0.0       0.0       0.0
 5 O  s              99.9       0.0       0.0       0.0       0.0       0.0
 5 O  dx2y2           0.0       0.0       0.0       0.1       0.0       0.0
 5 O  dxy             0.0       0.0       0.2       0.1       0.0       0.0
 6 C  s               0.0       0.0       0.0      99.4       0.0       0.0

                      6         7         8         9        10        11   
                 -10.03166 -10.02174  -1.07032  -0.97326  -0.77305  -0.74311
                   2.00000   2.00000   2.00000   2.00000   2.00000   2.00000
                  --------  --------  --------  --------  --------  --------
 0 C  s               0.0      99.7       0.0       0.0       8.4       6.0
 0 C  px              0.0       0.0       0.0       0.0       2.0       0.6
 0 C  py              0.0       0.0       0.0       0.0       0.4       0.1
 1 C  s               0.0       0.0       0.1       0.0      18.9       7.6
 1 C  pz              0.0       0.0       0.1       0.0       1.6       0.2
 1 C  px              0.0       0.1       0.2       0.1       0.1       0.3
 2 C  s               0.0       0.0       1.0       0.3      19.8       1.3
 2 C  pz              0.0       0.0       0.1       0.1       1.2       0.5
 2 C  px              0.0       0.0       1.6       0.1       0.3       2.0
 2 C  py              0.0       0.0       0.3       0.5       0.0       0.0
 3 C  s               0.0       0.0      16.1       4.4       2.7       0.9
 3 C  pz              0.0       0.0       0.1       1.6       0.5       0.2
 3 C  px              0.0       0.0       5.0       2.2       4.2       1.0
 3 C  py              0.0       0.0       0.0      19.3       4.4       1.2
 3 C  dz2             0.0       0.0       0.5       0.0       0.0       0.0
 3 C  dyz             0.0       0.0       0.2       0.4       0.0       0.0
 3 C  dx2y2           0.0       0.0       0.0       1.2       0.1       0.0
 3 C  dxy             0.0       0.0       0.4       0.3       0.0       0.1
 4 O  s               0.0       0.0      11.3      43.0       1.5       0.2
 4 O  pz              0.0       0.0       0.3       0.4       0.0       0.0
 4 O  px              0.0       0.0       0.0       0.1       0.1       0.0
 4 O  py              0.0       0.0       2.7       3.3       0.3       0.1
 4 O  dz2             0.0       0.0       0.3       0.0       0.0       0.0
 4 O  dyz             0.0       0.0       0.3       0.0       0.1       0.0
 4 O  dx2y2           0.0       0.0       0.6       0.1       0.2       0.2
 4 O  dxy             0.0       0.0       0.3       0.2       0.3       0.0
 5 O  s               0.0       0.0      42.8      15.3       0.0       0.9
 5 O  pz              0.0       0.0       0.2       0.0       0.1       0.3
 5 O  px              0.0       0.0       0.3       0.8       5.6       9.6
 5 O  py              0.0       0.0       2.3       0.4       0.0       0.1
 5 O  dz2             0.0       0.0       0.4       0.1       0.0       0.2
 5 O  dxz             0.0       0.0       0.0       0.1       0.0       0.4
 5 O  dx2y2           0.0       0.0       0.0       0.3       0.1       0.7
 5 O  dxy             0.0       0.0       0.3       0.9       0.2       0.4
 6 C  s               0.0       0.0       4.4       1.8       4.6      17.0
 6 C  pz              0.0       0.0       0.2       0.1       0.0       0.6
 6 C  px              0.0       0.0       5.0       1.0       0.1       1.8
 6 C  py              0.0       0.0       0.3       0.6       0.3       1.2
 6 C  dx2y2           0.0       0.0       0.2       0.1       0.0       0.0
 6 C  dxy             0.0       0.0       0.1       0.1       0.0       0.0
 7 C  s              99.7       0.0       0.3       0.2       2.9      19.9
 7 C  pz              0.0       0.0       0.1       0.1       0.1       0.4
 7 C  px              0.0       0.0       0.4       0.2       0.2       0.4
 7 C  py              0.0       0.0       0.2       0.1       0.2       1.0
 8 H  s               0.0       0.0       0.0       0.0       1.1       0.9
 9 H  s               0.0       0.0       0.0       0.0       1.1       0.9
10 H  s               0.0       0.0       0.0       0.0       1.1       0.9
11 H  s               0.0       0.0       0.0       0.0       2.5       1.1
11 H  pz              0.0       0.0       0.0       0.0       0.1       0.1
12 H  s               0.0       0.0       0.0       0.0       2.4       1.1
12 H  py              0.0       0.0       0.0       0.0       0.2       0.1
13 H  s               0.0       0.0       0.0       0.0       2.7       0.2
13 H  pz              0.0       0.0       0.0       0.0       0.1       0.0
14 H  s               0.0       0.0       0.1       0.0       3.0       0.1
14 H  py              0.0       0.0       0.0       0.0       0.2       0.0
15 H  s               0.0       0.0       0.3       0.1       0.7       2.9
15 H  pz              0.0       0.0       0.0       0.0       0.0       0.2
16 H  s               0.0       0.0       0.4       0.1       0.6       2.5
16 H  py              0.0       0.0       0.0       0.0       0.0       0.2
17 H  s               0.0       0.0       0.0       0.0       0.4       3.1
17 H  pz              0.0       0.0       0.0       0.0       0.0       0.2
18 H  s               0.0       0.0       0.0       0.0       0.4       3.2
18 H  py              0.0       0.0       0.0       0.0       0.0       0.2
19 H  s               0.0       0.0       0.0       0.0       0.4       3.3
19 H  px              0.0       0.0       0.0       0.0       0.0       0.2

                     12        13        14        15        16        17   
                  -0.68049  -0.61703  -0.56567  -0.52985  -0.46811  -0.45664
                   2.00000   2.00000   2.00000   2.00000   2.00000   2.00000
                  --------  --------  --------  --------  --------  --------
 0 C  s              19.6       5.8       7.6       0.1       0.2       0.2
 0 C  pz              0.1       0.0       1.5       0.5       1.7       0.0
 0 C  px              0.1       1.0       5.2       0.1       1.8       1.9
 0 C  py              0.0       0.2       1.4       0.0       0.1       0.0
 1 C  s               2.3       1.2      14.4       0.9       0.0       0.4
 1 C  pz              0.8       0.2       5.0       2.1       4.6       0.0
 1 C  px              8.0       2.6       1.5       0.0       0.1       0.3
 1 C  py              0.9       0.5       0.8       0.0       2.3       0.9
 1 C  dxz             0.1       0.0       0.0       0.0       0.0       0.0
 2 C  s              11.8       3.1       3.2       1.6       1.5       0.1
 2 C  pz              0.4       0.0       7.4       1.7       1.9       2.5
 2 C  px              2.3       1.5       1.5       1.1       7.0       1.2
 2 C  py              0.2       0.0       0.1       0.0       9.6       2.9
 2 C  dxz             0.0       0.0       0.1       0.0       0.0       0.1
 2 C  dxy             0.0       0.0       0.0       0.0       0.2       0.0
 3 C  s               2.6       1.5       0.6       2.6       2.1       1.1
 3 C  pz              0.7       0.0       1.7       0.1       1.2       6.3
 3 C  px              4.4       1.9       1.5       2.0       9.1       4.2
 3 C  py              2.3       1.3       0.0       1.3       0.1       0.4
 3 C  dxz             0.0       0.0       0.0       0.0       0.0       0.1
 3 C  dxy             0.1       0.2       0.1       0.0       0.0       0.0
 4 O  s               0.8       0.1       0.1       1.9       1.3       2.8
 4 O  pz              0.1       0.0       0.3       0.0       1.4       0.6
 4 O  px              0.3       0.1       0.1       1.0       6.2       1.4
 4 O  py              0.3       0.2       0.1       1.8       2.1       6.9
 4 O  dz2             0.0       0.0       0.0       0.1       0.0       0.3
 4 O  dxz             0.1       0.0       0.1       0.0       0.0       0.1
 4 O  dyz             0.1       0.0       0.1       0.0       0.2       0.1
 4 O  dx2y2           0.1       0.3       0.0       0.1       0.1       0.1
 4 O  dxy             0.3       0.0       0.0       0.2       0.9       0.2
 5 O  s               1.0       0.0       0.7       4.7       0.3       0.2
 5 O  pz              0.0       0.0       0.2       0.1       5.0      19.8
 5 O  px              2.0      17.5       0.1      12.0       0.6       1.1
 5 O  py              0.1       0.1       0.3       9.6       3.1       0.4
 5 O  dz2             0.2       0.1       0.2       0.2       0.2       0.1
 5 O  dxz             0.1       0.0       0.1       0.0       0.2       0.1
 5 O  dyz             0.0       0.1       0.0       0.1       0.3       0.3
 5 O  dx2y2           1.0       0.0       0.4       0.1       1.0       0.1
 5 O  dxy             0.1       1.1       0.2       0.4       0.4       0.1
 6 C  s               0.4       5.6       2.6       5.6       0.1       0.2
 6 C  pz              0.7       2.5       0.3       0.5       8.0      14.2
 6 C  px              2.2       2.5       0.3       5.5       1.7       4.2
 6 C  py              0.3       1.8       1.5      14.4       2.3       0.3
 6 C  dz2             0.0       0.0       0.0       0.1       0.0       0.0
 6 C  dxz             0.0       0.0       0.0       0.1       0.0       0.0
 6 C  dxy             0.1       0.2       0.0       0.2       0.0       0.0
 7 C  s               7.5      14.7       1.2       0.5       0.1       0.1
 7 C  pz              0.0       1.1       0.4       0.1       4.1       2.4
 7 C  px              0.1       1.5       0.1       0.2       0.0       6.5
 7 C  py              0.0       1.5       1.1       5.2       0.1       0.5
 8 H  s               3.9       1.6       3.9       0.1       0.0       0.3
 8 H  pz              0.2       0.1       0.1       0.0       0.0       0.0
 8 H  py              0.1       0.0       0.1       0.0       0.0       0.0
 9 H  s               3.9       1.7       3.8       0.1       0.1       0.1
 9 H  py              0.3       0.1       0.2       0.0       0.0       0.0
10 H  s               4.3       1.9       2.9       0.0       1.3       0.5
10 H  pz              0.2       0.1       0.2       0.0       0.0       0.0
10 H  px              0.1       0.0       0.0       0.0       0.0       0.0
11 H  s               0.4       0.3       7.0       0.9       0.1       0.2
11 H  pz              0.0       0.0       0.2       0.0       0.0       0.0
11 H  py              0.0       0.0       0.2       0.0       0.0       0.0
12 H  s               0.4       0.4       6.3       0.5       1.4       0.0
12 H  py              0.0       0.0       0.4       0.0       0.1       0.0
13 H  s               2.5       1.1       2.5       1.8       1.1       0.2
13 H  pz              0.1       0.1       0.0       0.0       0.0       0.0
13 H  py              0.1       0.0       0.1       0.0       0.1       0.0
14 H  s               2.6       0.5       1.8       0.9       4.7       1.5
14 H  px              0.0       0.0       0.0       0.0       0.1       0.0
14 H  py              0.2       0.0       0.1       0.0       0.1       0.0
15 H  s               0.1       2.2       1.8       4.5       2.8       5.4
15 H  pz              0.0       0.1       0.1       0.3       0.1       0.1
16 H  s               0.0       1.5       1.3       8.4       2.5       1.2
16 H  pz              0.0       0.1       0.0       0.2       0.0       0.0
16 H  py              0.0       0.1       0.0       0.2       0.1       0.2
17 H  s               1.6       4.6       0.7       0.7       1.2       1.1
17 H  pz              0.1       0.2       0.0       0.0       0.0       0.0
17 H  px              0.0       0.1       0.0       0.0       0.0       0.0
18 H  s               1.5       4.3       0.6       1.4       0.4       1.2
18 H  pz              0.0       0.2       0.0       0.0       0.0       0.0
18 H  py              0.1       0.2       0.0       0.0       0.0       0.0
19 H  s               1.8       5.2       0.4       0.0       0.1       1.5
19 H  px              0.1       0.3       0.0       0.0       0.0       0.0

                     18        19        20        21        22        23   
                  -0.44730  -0.42291  -0.40615  -0.38153  -0.37469  -0.37039
                   2.00000   2.00000   2.00000   2.00000   2.00000   2.00000
                  --------  --------  --------  --------  --------  --------
 0 C  pz              0.7       0.0      15.1       8.0       0.6       8.3
 0 C  px              0.1       1.7       0.1       0.9      11.9       0.5
 0 C  py              7.0       7.6       0.6       4.5       0.0       0.0
 1 C  s               0.1       0.0       0.1       0.0       0.3       0.1
 1 C  pz              1.8       0.0      10.4       1.6       0.5       0.7
 1 C  px              3.5       2.0       0.6       2.4       4.7       0.4
 1 C  py             11.0      10.5       0.9       0.2       2.1       0.0
 2 C  s               0.0       0.0       0.1       0.2       0.7       0.2
 2 C  pz              2.6       0.2       6.0       5.0       2.1       2.8
 2 C  px              6.9       0.0       3.0       0.1       1.1       0.4
 2 C  py             11.2       1.5       0.2       2.5       0.1       0.2
 3 C  s               0.2       1.4       0.1       0.0       0.3       0.1
 3 C  pz              1.9       0.2       9.4       0.6       2.3       2.5
 3 C  px              1.4       0.2       0.3       1.9       0.5       0.1
 3 C  py              2.6       4.2       0.4       0.1       1.8       0.9
 3 C  dxz             0.0       0.0       0.0       0.1       0.0       0.1
 3 C  dx2y2           0.3       0.1       0.0       0.0       0.3       0.0
 3 C  dxy             0.0       0.1       0.0       0.0       0.1       0.0
 4 O  s               3.2       7.9       0.2       0.0       0.7       0.5
 4 O  pz              3.2       4.0       4.1       0.3       6.9       0.6
 4 O  px              0.3       0.2       0.0       2.4       0.1       0.0
 4 O  py              3.8      20.8       2.9       0.6       2.5       4.3
 4 O  dz2             0.0       0.0       0.1       0.0       0.2       0.0
 4 O  dyz             0.2       0.1       0.3       0.0       0.1       0.1
 4 O  dx2y2           0.1       0.2       0.1       0.0       0.0       0.0
 4 O  dxy             0.1       0.0       0.0       0.1       0.0       0.0
 5 O  s               0.3       1.2       0.0       1.4       0.3       0.5
 5 O  pz              0.3       0.0       3.1       4.5       0.2       3.2
 5 O  px              0.6       4.0       1.1       0.8       2.3       0.7
 5 O  py              9.9       8.5       0.3       0.5       5.6       0.7
 5 O  dz2             0.0       0.1       0.0       0.1       0.0       0.0
 5 O  dxz             0.0       0.1       1.3       0.1       0.7       0.2
 5 O  dyz             0.0       0.0       0.1       0.0       0.1       0.2
 5 O  dx2y2           0.7       0.0       0.1       0.1       0.0       0.1
 5 O  dxy             0.1       0.3       0.0       0.1       0.7       0.0
 6 C  s               0.2       0.2       0.0       0.1       0.2       0.2
 6 C  pz              0.1       2.4       2.4       0.1       4.3       0.2
 6 C  px              1.5       2.0       2.4       0.3       5.6       0.4
 6 C  py              0.5       0.1       0.9       1.7       7.1       0.7
 6 C  dxz             0.0       0.0       0.1       0.1       0.0       0.0
 6 C  dx2y2           0.0       0.1       0.0       0.1       0.1       0.2
 7 C  s               0.2       0.1       0.0       0.0       0.2       0.0
 7 C  pz              1.2       0.1       9.9      13.9       1.4       0.9
 7 C  px              0.7       0.2       1.3       7.5       6.9      21.9
 7 C  py              0.8       3.8       0.1       6.0      11.2      11.2
 7 C  dz2             0.0       0.0       0.0       0.0       0.0       0.2
 7 C  dxz             0.0       0.0       0.0       0.0       0.0       0.2
 7 C  dyz             0.0       0.0       0.0       0.0       0.2       0.0
 7 C  dx2y2           0.0       0.0       0.0       0.2       0.0       0.2
 7 C  dxy             0.0       0.0       0.0       0.1       0.1       0.0
 8 H  s               1.1       1.8       3.4       0.1       0.7       1.2
 9 H  s               1.9       2.5       0.2       4.5       0.1       0.9
 9 H  py              0.0       0.0       0.0       0.1       0.0       0.0
10 H  s               0.3       0.1       4.3       3.2       3.7       3.6
10 H  pz              0.0       0.0       0.0       0.0       0.1       0.0
10 H  px              0.0       0.0       0.1       0.0       0.0       0.1
11 H  s               3.2       2.0       2.5       0.0       0.0       0.0
11 H  pz              0.1       0.1       0.0       0.0       0.0       0.0
12 H  s               2.7       3.4       0.1       0.4       0.3       0.0
13 H  s               5.8       0.4       0.8       0.5       0.5       1.4
13 H  pz              0.2       0.0       0.0       0.0       0.0       0.0
13 H  px              0.0       0.0       0.1       0.0       0.0       0.0
14 H  s               3.2       0.2       0.4       3.3       0.3       0.9
15 H  s               0.2       0.0       1.5       0.0       0.5       0.6
15 H  px              0.0       0.0       0.0       0.0       0.1       0.0
16 H  s               0.0       0.9       1.2       0.1       0.5       0.5
17 H  s               0.5       0.1       4.1       0.8       0.3       7.8
17 H  pz              0.0       0.0       0.1       0.0       0.0       0.2
17 H  px              0.0       0.0       0.0       0.1       0.1       0.0
18 H  s               0.1       1.5       1.6       7.2       2.7       2.0
18 H  pz              0.0       0.0       0.0       0.0       0.1       0.1
18 H  px              0.0       0.0       0.0       0.1       0.0       0.2
18 H  py              0.0       0.0       0.1       0.1       0.0       0.0
19 H  s               0.4       0.0       0.0       8.7       1.5      14.5
19 H  px              0.0       0.0       0.0       0.2       0.0       0.2
19 H  py              0.0       0.0       0.0       0.0       0.2       0.0

                     24        25        26        27        28        29   
                  -0.35993  -0.33505  -0.32686  -0.31406  -0.30629  -0.30293
                   2.00000   2.00000   2.00000   2.00000   2.00000   2.00000
                  --------  --------  --------  --------  --------  --------
 0 C  s               0.0       0.1       0.5       0.1       0.0       0.1
 0 C  pz              1.0       7.5       0.2       9.8       1.6       0.9
 0 C  px              1.8       4.2      13.9       0.3       0.2       5.5
 0 C  py             18.1       0.2       6.2       1.7       8.5       0.2
 0 C  dxz             0.1       0.1       0.1       0.2       0.2       0.1
 0 C  dyz             0.1       0.0       0.0       0.0       0.2       0.1
 0 C  dx2y2           0.0       0.0       0.1       0.2       0.1       0.1
 1 C  s               0.0       0.1       0.2       0.4       0.0       0.0
 1 C  pz              0.0       2.7       1.4      15.7       3.5       1.3
 1 C  px              0.2       4.6      12.3       0.5       0.9       6.9
 1 C  py              0.0       0.1       4.8       2.1      17.9       1.2
 1 C  dz2             0.0       0.0       0.1       0.0       0.1       0.1
 1 C  dxz             0.0       0.0       0.0       0.3       0.3       0.0
 1 C  dyz             0.0       0.0       0.0       0.0       0.5       0.1
 1 C  dx2y2           0.1       0.0       0.2       0.3       0.1       0.0
 1 C  dxy             0.1       0.1       0.1       0.1       0.0       0.0
 2 C  s               0.0       0.0       0.2       0.9       0.1       0.0
 2 C  pz              0.7       0.2       0.1      14.4       2.6       1.6
 2 C  px              2.7       1.6       4.4       1.1       0.2       7.5
 2 C  py             16.8       0.2       0.1       0.2       5.2       0.3
 2 C  dz2             0.0       0.0       0.2       0.0       0.0       0.1
 2 C  dxz             0.1       0.0       0.0       0.1       0.2       0.0
 2 C  dyz             0.2       0.0       0.0       0.0       0.3       0.1
 2 C  dx2y2           0.1       0.0       0.0       0.1       0.0       0.0
 2 C  dxy             0.0       0.0       0.2       0.1       0.0       0.0
 3 C  s               0.1       0.0       0.3       0.1       0.0       0.4
 3 C  pz              0.1       5.6       0.4       0.7       0.4       0.1
 3 C  px              0.1       0.0       4.7       0.0       0.1       0.3
 3 C  py              2.2       0.3       0.3       0.9       0.5       2.6
 3 C  dyz             0.0       0.2       0.0       0.1       0.0       0.0
 3 C  dx2y2           0.2       0.0       0.0       0.2       0.1       0.3
 3 C  dxy             0.1       0.1       0.0       0.0       0.0       0.0
 4 O  s               0.8       0.1       0.0       0.4       0.1       0.5
 4 O  pz              1.3       8.5       0.2       1.3       1.7       3.9
 4 O  px              0.0       0.9       2.5       0.2       0.1       0.5
 4 O  py              5.4       4.0       0.4       4.5       0.4       2.3
 4 O  dxz             0.1       0.0       0.2       0.0       0.1       0.0
 4 O  dyz             0.0       0.2       0.0       0.1       0.0       0.0
 4 O  dx2y2           0.0       0.0       0.0       0.1       0.2       0.3
 5 O  s               0.0       0.3       0.0       0.4       0.1       2.4
 5 O  pz              3.2       0.1       0.9       0.0       2.5       3.2
 5 O  px              0.9       0.9       0.7       0.1       0.1       1.8
 5 O  py              0.7       3.6       0.7       7.5       0.4      18.5
 5 O  dxz             0.0       1.2       0.1       0.0       0.3       0.0
 5 O  dyz             0.0       0.0       0.1       0.2       0.1       0.1
 5 O  dx2y2           0.0       0.0       0.0       0.2       0.1       1.6
 5 O  dxy             0.1       0.2       0.1       0.2       0.0       0.0
 6 C  s               0.0       0.2       0.0       0.1       0.0       0.3
 6 C  pz              0.4       7.1       1.2       0.0       1.8       2.4
 6 C  px              0.0       1.2       3.5       0.0       0.1       0.4
 6 C  py              0.0       1.8       5.3       3.8       0.2       6.6
 6 C  dz2             0.0       0.2       0.0       0.0       0.0       0.0
 6 C  dxz             0.0       0.1       0.0       0.1       0.0       0.0
 6 C  dyz             0.0       0.0       0.3       0.1       0.1       0.3
 6 C  dx2y2           0.0       0.0       0.0       0.1       0.0       0.3
 6 C  dxy             0.0       0.1       0.0       0.1       0.0       0.0
 7 C  s               0.0       0.1       0.1       0.2       0.0       0.2
 7 C  pz              6.0      10.4       1.2       0.1       0.8       0.5
 7 C  px              0.2       1.3       4.8       0.6       0.0       0.1
 7 C  py              1.0       1.1       4.7       2.4       0.1       2.5
 7 C  dz2             0.0       0.1       0.1       0.0       0.0       0.0
 7 C  dyz             0.1       0.1       0.2       0.0       0.0       0.1
 8 H  s               6.5       5.5       0.1       1.0       6.6       0.2
 8 H  pz              0.1       0.0       0.0       0.0       0.0       0.0
 8 H  px              0.0       0.0       0.1       0.0       0.0       0.0
 9 H  s               6.8       0.0       1.7       4.0       4.5       1.4
 9 H  pz              0.1       0.1       0.0       0.0       0.1       0.0
 9 H  px              0.0       0.0       0.2       0.0       0.0       0.0
10 H  s               0.1       0.9       1.9       5.5       0.6       3.0
10 H  py              0.1       0.0       0.1       0.0       0.1       0.0
11 H  s               0.1       2.8       0.8       2.1      12.8       1.0
11 H  py              0.0       0.1       0.1       0.1       0.0       0.0
12 H  s               0.0       0.2       2.0       5.8       9.1       2.5
12 H  pz              0.0       0.0       0.0       0.1       0.2       0.0
12 H  px              0.0       0.0       0.2       0.0       0.0       0.0
13 H  s               6.9       0.6       1.4       1.8       5.6       0.7
13 H  pz              0.2       0.0       0.0       0.0       0.0       0.1
14 H  s               7.7       0.1       0.0       2.0       3.2       1.3
14 H  pz              0.1       0.0       0.0       0.1       0.1       0.0
15 H  s               0.1       7.5       1.0       0.2       1.3       0.2
16 H  s               0.2       0.2       4.7       2.0       1.2       7.0
17 H  s               2.1       7.7       1.8       0.0       0.5       0.2
18 H  s               2.8       1.0       3.9       0.7       0.5       2.3
19 H  s               0.1       0.4       0.6       0.0       0.0       0.2
19 H  pz              0.0       0.1       0.0       0.0       0.0       0.0

                     30        31        32        33        34        35   
                  -0.26894  -0.23374  -0.01310   0.07887   0.09701   0.10417
                   2.00000   2.00000   0.00000   0.00000   0.00000   0.00000
                  --------  --------  --------  --------  --------  --------
 0 C  s               0.0       0.1       0.1       0.9       1.5      27.6
 0 C  pz              0.0       0.0       0.1       0.0       0.0       0.3
 0 C  px              0.1       0.5       0.7       0.7       0.3       1.2
 0 C  py              0.1       0.0       0.1       0.3       0.1       0.4
 0 C  dz2             0.0       0.0       0.0       0.0       0.0       0.1
 0 C  dxz             0.0       0.0       0.0       0.3       0.0       0.1
 0 C  dx2y2           0.0       0.0       0.1       0.0       0.0       0.1
 0 C  dxy             0.0       0.0       0.0       0.0       0.0       0.2
 1 C  s               0.0       0.1       1.7       3.2       0.0      11.2
 1 C  pz              0.0       0.0       1.5       2.0       0.1       2.2
 1 C  px              0.0       0.3       1.0       3.0       0.8       5.0
 1 C  py              0.5       0.0       0.1       0.2       0.1       0.7
 1 C  dz2             0.0       0.0       0.0       0.0       0.0       0.1
 1 C  dxz             0.0       0.0       0.0       0.3       0.0       0.1
 1 C  dx2y2           0.0       0.0       0.1       0.0       0.0       0.2
 1 C  dxy             0.0       0.0       0.0       0.0       0.1       0.3
 2 C  s               0.0       0.5       0.1       9.8       0.1       1.3
 2 C  pz              0.1       0.4       0.1       1.5       0.0       2.2
 2 C  px              0.0       3.9       0.7       1.1       0.8       6.6
 2 C  py              0.2       2.9       0.0       0.2       0.1       1.4
 2 C  dz2             0.0       0.0       0.0       0.0       0.0       0.7
 2 C  dxz             0.0       0.0       1.8       0.0       0.0       0.3
 2 C  dx2y2           0.0       0.1       0.0       0.1       0.1       0.0
[...]
 3 C  px              0.2       0.6       4.8       0.0       0.0       0.0
 3 C  py              0.9       0.7       2.3       6.9       0.0       0.0
 3 C  dz2             0.3       0.2       1.7       0.8       0.0       0.0
 3 C  dxz             1.7       0.1       0.4       0.0       0.0       0.0
 3 C  dyz             0.0       0.0       0.0       1.9       0.0       0.0
 3 C  dx2y2           6.8       0.1       0.5       3.9       0.0       0.0
 3 C  dxy             7.9       1.3      10.1       0.0       0.0       0.0
 4 O  s               2.7       1.0       0.4      18.7       0.0       0.0
 4 O  pz              0.1       0.1       0.0       2.1       0.0       0.0
 4 O  px              7.5       0.1       0.3       0.0       0.0       0.0
 4 O  py              1.0       0.8       0.2      19.9       0.0       0.0
 4 O  dz2             1.0       0.1       0.2       4.0       0.0       0.0
 4 O  dxz             1.3       0.0       0.3       0.0       0.0       0.0
 4 O  dyz             0.3       0.4       0.1       8.8       0.0       0.0
 4 O  dx2y2           0.3       1.4       0.2      20.9       0.0       0.0
 4 O  dxy            18.9       0.1       1.6       0.1       0.0       0.0
 5 O  s               3.8      24.5       6.6       1.0       0.0       0.0
 5 O  pz              0.7       1.5       0.0       0.1       0.0       0.0
 5 O  px              0.1       8.4      27.1       0.5       0.0       0.0
 5 O  py              6.1       4.9       3.4       0.2       0.0       0.0
 5 O  dz2             0.5       9.2       3.2       0.6       0.0       0.0
 5 O  dxz             0.0       2.6       1.7       0.3       0.0       0.0
 5 O  dyz             2.1       0.7       0.0       0.1       0.0       0.0
 5 O  dx2y2           7.0      12.4       0.3       0.8       0.0       0.0
 5 O  dxy             0.3       0.7      24.3       0.4       0.0       0.0
 6 C  s               0.0       1.5       0.4       0.1       5.8       5.6
 6 C  pz              0.0       0.1       0.2       0.0       0.0       0.0
 6 C  px              0.0       7.1       1.2       0.3       0.0       0.0
 6 C  py              0.1       1.0       0.4       0.0       0.0       0.0
 6 C  dz2             0.0       3.1       0.3       0.1       0.0       0.0
 6 C  dxz             0.1       2.9       0.3       0.1       0.0       0.0
 6 C  dyz             0.4       0.3       0.0       0.0       0.0       0.0
 6 C  dx2y2           0.5       4.0       1.4       0.2       0.0       0.0
 6 C  dxy             0.8       3.0       0.7       0.2       0.0       0.0
 7 C  s               0.1       0.0       0.0       0.0      10.3      75.5
 7 C  pz              0.1       0.0       0.0       0.0       0.0       0.0
 7 C  px              0.3       0.1       0.0       0.0       0.0       0.0
 7 C  py              0.1       0.1       0.0       0.0       0.0       0.0
 7 C  dz2             0.2       0.0       0.0       0.0       0.0       0.0
 7 C  dxz             0.1       0.1       0.0       0.0       0.0       0.0
 7 C  dyz             1.1       0.1       0.0       0.0       0.0       0.0
 7 C  dx2y2           0.0       0.3       0.0       0.0       0.0       0.0
 7 C  dxy             0.0       0.1       0.0       0.0       0.0       0.0
10 H  pz              0.2       0.0       0.0       0.0       0.0       0.0
11 H  s               0.4       0.0       0.0       0.0       0.0       0.0
11 H  pz              0.7       0.0       0.0       0.0       0.0       0.0
11 H  px              0.2       0.0       0.0       0.0       0.0       0.0
11 H  py              0.3       0.0       0.0       0.0       0.0       0.0
13 H  s               0.3       0.0       0.0       0.0       0.0       0.0
13 H  pz              0.6       0.0       0.0       0.0       0.0       0.0
13 H  py              0.4       0.0       0.0       0.0       0.0       0.0
14 H  s               0.7       0.0       0.1       0.0       0.0       0.0
14 H  pz              0.3       0.0       0.0       0.0       0.0       0.0
14 H  px              0.3       0.0       0.1       0.0       0.0       0.0
14 H  py              1.4       0.0       0.0       0.0       0.0       0.0
15 H  s               0.0       0.7       0.0       0.0       0.0       0.0
15 H  pz              0.0       1.5       0.0       0.0       0.0       0.0
16 H  s               0.1       0.2       0.2       0.0       0.0       0.0
16 H  pz              0.0       0.1       0.1       0.0       0.0       0.0
16 H  px              1.3       0.3       0.1       0.0       0.0       0.0
16 H  py              0.1       0.1       0.2       0.0       0.0       0.0
17 H  s               0.3       0.0       0.0       0.0       0.0       0.0
17 H  pz              0.4       0.0       0.0       0.0       0.0       0.0
17 H  px              0.1       0.0       0.0       0.0       0.0       0.0
18 H  s               0.2       0.0       0.0       0.0       0.0       0.0
18 H  pz              0.1       0.0       0.0       0.0       0.0       0.0
18 H  py              0.3       0.0       0.0       0.0       0.0       0.0
19 H  px              0.1       0.2       0.0       0.0       0.0       0.0

                    216       217       218       219       220       221   
                  21.96267  21.99035  22.06853  22.27104  43.68620  43.73814
                   0.00000   0.00000   0.00000   0.00000   0.00000   0.00000
                  --------  --------  --------  --------  --------  --------
 0 C  s              37.1       2.1       3.5       0.0       0.0       0.0
 1 C  s              56.7      14.2       1.7       1.4       0.0       0.0
 2 C  s               1.3      25.7      53.5       0.1       0.0       0.0
 3 C  s               0.8       0.8       0.0      97.2       0.0       0.0
 4 O  s               0.0       0.0       0.0       0.2      85.0      14.9
 4 O  py              0.0       0.0       0.0       0.1       0.0       0.0
 5 O  s               0.0       0.0       0.1       0.2      14.9      85.1
 5 O  px              0.0       0.0       0.0       0.1       0.0       0.0
 6 C  s               2.2      45.3      40.5       0.2       0.0       0.0
 7 C  s               1.8      11.7       0.3       0.0       0.0       0.0



                      *****************************
                      * MAYER POPULATION ANALYSIS *
                      *****************************

  NA   - Mulliken gross atomic population
  ZA   - Total nuclear charge
  QA   - Mulliken gross atomic charge
  VA   - Mayer's total valence
  BVA  - Mayer's bonded valence
  FA   - Mayer's free valence

  ATOM       NA         ZA         QA         VA         BVA        FA
  0 C      6.4720     6.0000    -0.4720     3.7995     3.7995    -0.0000
  1 C      6.2283     6.0000    -0.2283     3.6610     3.6610    -0.0000
  2 C      6.3449     6.0000    -0.3449     3.8508     3.8508     0.0000
  3 C      5.5826     6.0000     0.4174     3.7622     3.7622    -0.0000
  4 O      8.4415     8.0000    -0.4415     1.9380     1.9380    -0.0000
  5 O      8.1723     8.0000    -0.1723     1.9195     1.9195    -0.0000
  6 C      6.1595     6.0000    -0.1595     3.6295     3.6295    -0.0000
  7 C      6.4435     6.0000    -0.4435     3.8536     3.8536    -0.0000
  8 H      0.8542     1.0000     0.1458     0.9640     0.9640    -0.0000
  9 H      0.8573     1.0000     0.1427     0.9640     0.9640    -0.0000
 10 H      0.8497     1.0000     0.1503     0.9614     0.9614     0.0000
 11 H      0.8622     1.0000     0.1378     0.9627     0.9627    -0.0000
 12 H      0.8331     1.0000     0.1669     0.9564     0.9564    -0.0000
 13 H      0.8365     1.0000     0.1635     0.9597     0.9597     0.0000
 14 H      0.8392     1.0000     0.1608     0.9622     0.9622     0.0000
 15 H      0.8573     1.0000     0.1427     0.9524     0.9524    -0.0000
 16 H      0.8168     1.0000     0.1832     0.9550     0.9550     0.0000
 17 H      0.8487     1.0000     0.1513     0.9616     0.9616    -0.0000
 18 H      0.8471     1.0000     0.1529     0.9608     0.9608     0.0000
 19 H      0.8533     1.0000     0.1467     0.9644     0.9644    -0.0000

  Mayer bond orders larger than 0.100000
B(  0-C ,  1-C ) :   0.8914 B(  0-C ,  8-H ) :   0.9873 B(  0-C ,  9-H ) :   0.9809 
B(  0-C , 10-H ) :   0.9732 B(  1-C ,  2-C ) :   0.9218 B(  1-C , 11-H ) :   0.9573 
B(  1-C , 12-H ) :   0.9645 B(  2-C ,  3-C ) :   0.9692 B(  2-C , 13-H ) :   0.9698 
B(  2-C , 14-H ) :   0.9808 B(  3-C ,  4-O ) :   1.8182 B(  3-C ,  5-O ) :   1.0622 
B(  5-O ,  6-C ) :   0.7815 B(  6-C ,  7-C ) :   0.9488 B(  6-C , 15-H ) :   0.9473 
B(  6-C , 16-H ) :   0.9665 B(  7-C , 17-H ) :   0.9738 B(  7-C , 18-H ) :   0.9701 
B(  7-C , 19-H ) :   0.9678 

-------
TIMINGS
-------

Total SCF time: 0 days 0 hours 0 min 24 sec 

Total time                  ....      24.026 sec
Sum of individual times     ....      23.490 sec  ( 97.8%)

SCF preparation             ....       0.219 sec  (  0.9%)
Fock matrix formation       ....      22.213 sec  ( 92.5%)
  Startup                   ....       0.053 sec  (  0.2% of F)
  Split-RI-J                ....       4.583 sec  ( 20.6% of F)
  XC integration            ....      17.021 sec  ( 76.6% of F)
    Basis function eval.    ....       3.208 sec  ( 18.8% of XC)
    Density eval.           ....       5.043 sec  ( 29.6% of XC)
    XC-Functional eval.     ....       2.332 sec  ( 13.7% of XC)
    XC-Potential eval.      ....       5.441 sec  ( 32.0% of XC)
Diagonalization             ....       0.000 sec  (  0.0%)
Density matrix formation    ....       0.261 sec  (  1.1%)
Total Energy calculation    ....       0.044 sec  (  0.2%)
Population analysis         ....       0.144 sec  (  0.6%)
Orbital Transformation      ....       0.078 sec  (  0.3%)
Orbital Orthonormalization  ....       0.000 sec  (  0.0%)
DIIS solution               ....       0.496 sec  (  2.1%)
  MO trafo                  ....       0.000 sec  (  0.0 % of DIIS)
  Orb grad                  ....       0.000 sec  (  0.0 % of DIIS)
  Energy W gradient         ....       0.000 sec  (  0.0 % of DIIS)
  DIIS error                ....       0.030 sec  (  6.1 % of DIIS)
  DIIS work                 ....       0.392 sec  ( 78.9 % of DIIS)
  Form Q                    ....       0.000 sec  (  0.0 % of DIIS)
  Form QpQm                 ....       0.000 sec  (  0.0 % of DIIS)
  Exp/Cayley                ....       0.000 sec  (  0.0 % of DIIS)
  Orb update                ....       0.000 sec  (  0.0 % of DIIS)
  Wake-sleep                ....       0.034 sec  (  6.9 % of DIIS)
SOSCF solution              ....       0.035 sec  (  0.1%)
  MO trafo                  ....       0.035 sec  ( 99.7 % of SOSCF)
  Orb grad                  ....       0.000 sec  (  0.0 % of SOSCF)
  Rot update                ....       0.000 sec  (  0.0 % of SOSCF)
  Step                      ....       0.000 sec  (  0.0 % of SOSCF)
Finished LeanSCF after  24.1 sec

Maximum memory used throughout the entire LEANSCF-calculation: 23.3 MB


-------------------------------------------------------------------------------
                          DFT DISPERSION CORRECTION                            
                                                                               
                                DFTD4 V3.4.0                                   
-------------------------------------------------------------------------------
The R2SCAN3C composite method is recognized
Using three-body term ABC
Active option DFTDOPT                   ...         5   

-------------------------   ----------------
Dispersion correction           -0.004837136
-------------------------   ----------------

------------------   -----------------
gCP correction             0.011735210
------------------   -----------------

-------------------------   --------------------
FINAL SINGLE POINT ENERGY      -386.234537343837
-------------------------   --------------------


------------------------------------------------------------------------------
                              ORCA PROPERTY CALCULATIONS
------------------------------------------------------------------------------

GBWName                                 ... sp_gas.gbw
Number of atoms                         ...     20
Number of basis functions               ...    222
Max core memory                         ...   1024 MB

Electric properties:
Dipole moment                           ... YES
Quadrupole moment                       ...  NO
Static polarizability (Dipole/Dipole)   ...  NO
Static polarizability (Dipole/Quad.)    ...  NO
Static polarizability (Quad./Quad.)     ...  NO
Static polarizability (Velocity)        ...  NO

Atomic electric properties:
Dipole moment                           ...  NO
Quadrupole moment                       ...  NO
Static polarizability                   ...  NO

Choice of electric origin               ... Center of mass
Position of electric origin             ...    -0.000013    -0.000019     0.000005

General magnetic properties:
Magnetizability                         ...  NO

EPR properties:
g-Tensor (aka g-matrix)                 ...  NO
Zero-Field splitting spin-orbit         ...  NO
Zero-field splitting spin-spin          ...  NO
Hyperfine couplings                     ...  NO (   0 nuclei)
Quadrupole couplings                    ...  NO (   0 nuclei)
Contact density                         ...  NO (   0 nuclei)

NMR properties:
Chemical shifts                         ...  NO (   0 nuclei)
Spin-rotation constants                 ...  NO (   0 nuclei)
Spin-spin couplings                     ...  NO (   0 nuclei,    0 pairs)

Choice of magnetic origin               ... GIAO
Position of magnetic origin             ...     0.000000     0.000000     0.000000

Properties with geometric perturbations:
SCF Hessian                             ...  NO
IR spectrum                             ...  NO
VCD spectrum                            ...  NO
X-ray spectroscopy properties:
SCF XES/XAS/RIXS spectra                ...  NO


-------------
DIPOLE MOMENT
-------------

Method             : SCF
Type of density    : Electron Density
Multiplicity       :   1
Irrep              :   0
Energy             :  -386.2414354186058745 Eh
Relativity type    : 
Basis              : AO
                                X                 Y                 Z
Electronic contribution:      3.063911371       4.608466751      -1.931850129
Nuclear contribution   :     -2.803609483      -5.384654853       1.852595757
                        -----------------------------------------
Total Dipole Moment    :      0.260301888      -0.776188103      -0.079254373
                        -----------------------------------------
Magnitude (a.u.)       :      0.822500030
Magnitude (Debye)      :      2.090628931



--------------------
Rotational spectrum 
--------------------
 
Rotational constants in cm-1:             0.149432             0.029769             0.027114 
Rotational constants in MHz :          4479.846532           892.445957           812.848076 

Dipole components along the rotational axes: 
x,y,z [a.u.] :     0.211313    -0.763668    -0.220599 
x,y,z [Debye]:     0.537114    -1.941091    -0.560717 

 

Dipole moment calculation done in   0.0 sec 

Maximum memory used throughout the entire PROP-calculation: 13.5 MB

--------------------------------
SUGGESTED CITATIONS FOR THIS RUN
--------------------------------

Below you find a list of papers that are relevant to this ORCA run
We neither can nor want to force you to cite these papers, but we appreciate if you do
You receive ORCA, which is the product of decades of hard work by many enthusiastic individuals, for free
The only thing we kindly ask in return is that you cite our papers,
We deeply appreciate it, if you show your appreciation for ORCA by not just citing the generic ORCA reference.

Please note that relegating all ORCA citations to the supporting information does *not* help us.
SI sections are not indexed - citations you put there will not count into any citation statistics
But we need these citations in order to attract the funding resources that allow us to do what we are doing

Therefore, if you are a happy ORCA user, please consider citing a few of the papers listed below in the main body of your paper

In addition to the list printed below, the program has created the file sp_gas.bibtex that contains the list in bibtex format
You can import this file easily into all common literature databanks and citation aid programs


List of essential papers. We consider these as the minimum necessary citations

  1. Neese,F.
     Software update: the ORCA program system, version 5.0
     WIRES Comput. Molec. Sci., 2022 12(1)e1606
     doi.org/10.1002/wcms.1606
  2. Grimme,S.; Hansen,A.; Ehlert,S.; Mewes,J.
     r2SCAN-3c: A 'Swiss army knife' composite electronic-structure method
     J. Chem. Phys., 2021 154 064103
     doi.org/10.1063/5.0040021

List of papers to cite with high priority. The work reported in these papers was absolutely
necessary for this run to complete.
Our perspective: the developers of density functionals and basis sets usually get cited in chemistry papers
Good! But without the algorithms to do something with them, the functionals or basis sets would not do anything.
Hence, in our opinion, the algorithm design and method developments papers are equally worthy of getting cited

  1. Neese,F.
     An improvement of the resolution of the identity approximation for the formation of the Coulomb matrix
     J. Comp. Chem., 2003 24(14)1740-1747
     doi.org/10.1002/jcc.10318
  2. Neese,F.
     The SHARK Integral Generation and Digestion System
     J. Comp. Chem., 2022  1-16
     doi.org/10.1002/jcc.26942
  3. Lehtola,S.; Steigemann,C.; Oliveira,M.; Marques,M.
     Recent developments in Libxc - A comprehensive library of functionals for density functional theory
     Software X, 2018 7 
     doi.org/10.1016/j.softx.2017.11.002
  4. Caldeweyher,E.; Bannwarth,C.; Grimme,S.
     Extension of the D3 dispersion coefficient model
     J. Chem. Phys., 2017 147 034112-XXXX
     doi.org/10.1063/1.4993215
  5. Caldeweyher,E.; Ehlert,S.; Hansen,A.; Neugebauer,H.; Spicher,S.; Bannwarth,C.; Grimme,S.
     A generally applicable atomic-charge dependent London dispersion correction
     J. Chem. Phys., 2019 150 154122-XXXX
     doi.org/10.1063/1.5090222
  6. Caldeweyher,E.; Mewes,J.; Ehlert,S.; Grimme,S.
     Extension and evaluation of the D4 London-dispersion model for periodic systems
     Phys. Chem. Chem. Phys., 2020 22(16)8499-8512
     doi.org/10.1039/D0CP00502A

List of suggested additional citations. These are papers that are important in the 'surrounding' of 
of this run, or papers that preceded the highly important papers. If you like your results we are grateful for a citation.

  1. Neese,F.
     The ORCA program system
     WIRES Comput. Molec. Sci., 2012 2(1)73-78
     doi.org/10.1002/wcms.81
  2. Neese,F.
     Software update: the ORCA program system, version 4.0
     WIRES Comput. Molec. Sci., 2018 8(1)1-6
     doi.org/10.1002/wcms.1327
  3. Neese,F.; Wennmohs,F.; Becker,U.; Riplinger,C.
     The ORCA quantum chemistry program package
     J. Chem. Phys., 2020 152 Art. No. L224108
     doi.org/10.1063/5.0004608

List of optional additional citations

  1. Neese,F.
     Approximate second-order SCF convergence for spin unrestricted wavefunctions
     Chem. Phys. Lett., 2000 325(1-3)93-98
     doi.org/10.1016/s0009-2614(00)00662-x

Timings for individual modules:

Sum of individual times          ...       25.972 sec (=   0.433 min)
Startup calculation              ...        1.352 sec (=   0.023 min)   5.2 %
SCF iterations                   ...       24.487 sec (=   0.408 min)  94.3 %
Property calculations            ...        0.133 sec (=   0.002 min)   0.5 %
                             ****ORCA TERMINATED NORMALLY****
TOTAL RUN TIME: 0 days 0 hours 0 minutes 26 seconds 769 msec
