20
 energy: -386.242535097321 gnorm: 0.000762105292 xtb: 6.7.1 (edcfbbe)
C           -3.33229009232061       -1.13018053546928        0.31052137555560
C           -1.83673528039431       -0.95856080228615        0.05874282984375
C           -1.43698210668798        0.51474373115823        0.13387593302775
C           -0.00143257610850        0.83931881912327       -0.17008535219398
O            0.37703991545219        1.92064483991740       -0.59749001257533
O            0.83800222907815       -0.17097194829921        0.10640193428726
C            2.26113582136878        0.08841806601045       -0.11677103267217
C            3.00983034579538       -1.16242760420616        0.26522314073185
H           -3.62256263286682       -2.18428502352964        0.26080236820930
H           -3.60827039714431       -0.75077099208923        1.30099647583732
H           -3.92172040636434       -0.58271741745080       -0.43355877402034
H           -1.57612276948436       -1.35502023426046       -0.92970958783283
H           -1.26813809479283       -1.53629218506780        0.79459172594785
H           -1.62555366288681        0.90147661535539        1.14602141373118
H           -2.04602007722873        1.12022190667253       -0.54484017847619
H            2.40169140781880        0.34391790394045       -1.17111329141419
H            2.55312578981329        0.94460392632201        0.49847968348178
H            4.07939328802766       -0.99630148187239        0.10395659695135
H            2.85628884774531       -1.40884114429541        1.31997252395075
H            2.69845643905169       -2.01269434718229       -0.34892867538639
20
 energy: -386.242539987976 gnorm: 0.000351156074 xtb: 6.7.1 (edcfbbe)
C           -3.33041415644905       -1.13158417090298        0.31023770206409
C           -1.83546683017525       -0.95722966647997        0.05882581685681
C           -1.43743900852612        0.51637329893754        0.13406697771503
C           -0.00195231123543        0.84113977068120       -0.16924507621345
O            0.37687702032923        1.92226561927242       -0.59665059201708
O            0.83749221696795       -0.16919435434608        0.10719424136611
C            2.26119866314493        0.08838886164689       -0.11749048406817
C            3.00788116394993       -1.16337835668038        0.26524637753119
H           -3.61804843039322       -2.18610326370266        0.26042329687652
H           -3.60721084131952       -0.75294197649613        1.30029578694510
H           -3.92097329591029       -0.58588812156737       -0.43365565133466
H           -1.57438977985931       -1.35349985942082       -0.92928141240440
H           -1.26657753960696       -1.53390525510001        0.79479942850749
H           -1.62613695573765        0.90316225345098        1.14599649963451
H           -2.04750630394603        1.12100772149597       -0.54446509037246
H            2.40155819515852        0.34317538875710       -1.17202003520074
H            2.55524822258063        0.94478270907059        0.49650585877222
H            4.07780337222320       -1.00077856026908        0.10484943068906
H            2.85279362549985       -1.40870949255457        1.31971778970778
H            2.69440014939334       -2.01280021263069       -0.34826035333043
20
 energy: -386.242539987976 gnorm: 0.000351156074 xtb: 6.7.1 (edcfbbe)
C           -3.33041415644905       -1.13158417090298        0.31023770206409
C           -1.83546683017525       -0.95722966647997        0.05882581685681
C           -1.43743900852612        0.51637329893754        0.13406697771503
C           -0.00195231123543        0.84113977068120       -0.16924507621345
O            0.37687702032923        1.92226561927242       -0.59665059201708
O            0.83749221696795       -0.16919435434608        0.10719424136611
C            2.26119866314493        0.08838886164689       -0.11749048406817
C            3.00788116394993       -1.16337835668038        0.26524637753119
H           -3.61804843039322       -2.18610326370266        0.26042329687652
H           -3.60721084131952       -0.75294197649613        1.30029578694510
H           -3.92097329591029       -0.58588812156737       -0.43365565133466
H           -1.57438977985931       -1.35349985942082       -0.92928141240440
H           -1.26657753960696       -1.53390525510001        0.79479942850749
H           -1.62613695573765        0.90316225345098        1.14599649963451
H           -2.04750630394603        1.12100772149597       -0.54446509037246
H            2.40155819515852        0.34317538875710       -1.17202003520074
H            2.55524822258063        0.94478270907059        0.49650585877222
H            4.07780337222320       -1.00077856026908        0.10484943068906
H            2.85279362549985       -1.40870949255457        1.31971778970778
H            2.69440014939334       -2.01280021263069       -0.34826035333043
