31
 energy: -767.465051912871 gnorm: 0.001180948447 xtb: 6.7.1 (edcfbbe)
C           -3.66468197313509        0.17821404299871        1.88926013611712
C           -3.06700835569895        0.59118319323823        0.54581151570474
H           -3.10139223608008        1.68116953890497        0.44199918345372
C           -1.61846261189301        0.15785848506790        0.39579465741140
C           -1.29270136983271       -1.22346065504654        0.40285169841764
C            0.00766489542895       -1.64475129014082        0.28206902508030
C            1.06604230381870       -0.70812931972070        0.14946209290534
C            2.41191025560148       -1.10735655223600        0.02703744786553
C            3.41305891777873       -0.16388997118059       -0.10169036688703
C            3.10286439948963        1.21663209596155       -0.11309803561601
C            1.79295591974111        1.62067481230725        0.00600478128209
C            0.74128714228214        0.68626847812244        0.13948528712042
C           -0.61157648174998        1.08568935743670        0.26084501779649
O            4.69095108797645       -0.64800752066032       -0.21638594032759
C            5.75928926825969        0.30413890592513       -0.33803983601236
C           -3.86423203463029        0.02181433347641       -0.60878569787126
O           -4.67677913474997       -0.88122435842471       -0.53331597240272
O           -3.55711754509575        0.62966561282099       -1.77838116234715
H           -3.08402107683351        0.62801279526180        2.69886428903044
H           -4.70063644719775        0.51892558154941        1.97260688230967
H           -3.64797094276600       -0.90753310787227        2.01382768226206
H           -2.08804510892067       -1.95735896472889        0.50263381490193
H            0.24327379114332       -2.70515295533634        0.28590931368852
H            2.66704342326936       -2.16294435929616        0.03356678009858
H            3.88390602309523        1.95964342358593       -0.21538600586332
H            1.55464900600386        2.68047431910256       -0.00280907546020
H           -0.84565021275516        2.14730711642665        0.24825587506541
H            5.81269116409018        0.95242561229760        0.54372177928308
H            5.64684274832974        0.91059484760780       -1.24360888735256
H            6.67218431085882       -0.28838633650414       -0.40877890446657
H           -4.07534923388016        0.20915398550036       -2.48663791399287
31
 energy: -767.465054451597 gnorm: 0.000721318806 xtb: 6.7.1 (edcfbbe)
C           -3.66453054085044        0.17820300880184        1.88896296641388
C           -3.06677935505617        0.59129923514115        0.54572227957724
H           -3.10118279055006        1.68119523993064        0.44194329512132
C           -1.61838620625762        0.15802202649431        0.39533237947423
C           -1.29257514429635       -1.22322723453794        0.40217431800665
C            0.00782519741961       -1.64435885447128        0.28145196068924
C            1.06612525394730       -0.70765462366409        0.14913308208257
C            2.41196264275398       -1.10703687539693        0.02692008354985
C            3.41333773513274       -0.16369194747185       -0.10135939565231
C            3.10315054055830        1.21673544654088       -0.11267010471895
C            1.79317710557521        1.62094542432656        0.00618362148295
C            0.74142213131298        0.68669142821972        0.13934625009200
C           -0.61154143243147        1.08587388625955        0.26073295735274
O            4.69122780309705       -0.64833698816180       -0.21553443379215
C            5.75998532501216        0.30385990037253       -0.33789344183008
C           -3.86558231299056        0.02270757855799       -0.60833115555592
O           -4.67775915242403       -0.88041167021167       -0.53162249955130
O           -3.55840523697771        0.62794152738566       -1.77848460918357
H           -3.08566092101003        0.62970986066203        2.69882139520930
H           -4.70139768463074        0.51667521103727        1.97114157756345
H           -3.64595940835952       -0.90756370092289        2.01412543380054
H           -2.08780239814875       -1.95722546866377        0.50184681809644
H            0.24370620928041       -2.70470307020154        0.28519378516013
H            2.66673022759852       -2.16271204904901        0.03328977557431
H            3.88428940263275        1.95975458783219       -0.21471358309545
H            1.55542856574009        2.68084982654870       -0.00254139821402
H           -0.84574513795251        2.14743036258308        0.24874027276710
H            5.81395409934581        0.95189756347582        0.54392413513115
H            5.64698514611883        0.91015971313277       -1.24338406892372
H            6.67250432197157       -0.28910449320504       -0.40918179645978
H           -4.07751509797728        0.20772645221978       -2.48618127985730
31
 energy: -767.465054451597 gnorm: 0.000721318806 xtb: 6.7.1 (edcfbbe)
C           -3.66453054085044        0.17820300880184        1.88896296641388
C           -3.06677935505617        0.59129923514115        0.54572227957724
H           -3.10118279055006        1.68119523993064        0.44194329512132
C           -1.61838620625762        0.15802202649431        0.39533237947423
C           -1.29257514429635       -1.22322723453794        0.40217431800665
C            0.00782519741961       -1.64435885447128        0.28145196068924
C            1.06612525394730       -0.70765462366409        0.14913308208257
C            2.41196264275398       -1.10703687539693        0.02692008354985
C            3.41333773513274       -0.16369194747185       -0.10135939565231
C            3.10315054055830        1.21673544654088       -0.11267010471895
C            1.79317710557521        1.62094542432656        0.00618362148295
C            0.74142213131298        0.68669142821972        0.13934625009200
C           -0.61154143243147        1.08587388625955        0.26073295735274
O            4.69122780309705       -0.64833698816180       -0.21553443379215
C            5.75998532501216        0.30385990037253       -0.33789344183008
C           -3.86558231299056        0.02270757855799       -0.60833115555592
O           -4.67775915242403       -0.88041167021167       -0.53162249955130
O           -3.55840523697771        0.62794152738566       -1.77848460918357
H           -3.08566092101003        0.62970986066203        2.69882139520930
H           -4.70139768463074        0.51667521103727        1.97114157756345
H           -3.64595940835952       -0.90756370092289        2.01412543380054
H           -2.08780239814875       -1.95722546866377        0.50184681809644
H            0.24370620928041       -2.70470307020154        0.28519378516013
H            2.66673022759852       -2.16271204904901        0.03328977557431
H            3.88428940263275        1.95975458783219       -0.21471358309545
H            1.55542856574009        2.68084982654870       -0.00254139821402
H           -0.84574513795251        2.14743036258308        0.24874027276710
H            5.81395409934581        0.95189756347582        0.54392413513115
H            5.64698514611883        0.91015971313277       -1.24338406892372
H            6.67250432197157       -0.28910449320504       -0.40918179645978
H           -4.07751509797728        0.20772645221978       -2.48618127985730
