21
 energy: -23.234902608010 gnorm: 0.021173978621 xtb: 6.7.1 (edcfbbe)
C            2.03602927944948        1.27962702201197       -0.36152627503061
C            1.20205051123728        0.00437895064739       -0.38660617389724
C            2.07412933410161       -1.24534062985611       -0.38271318343764
S            0.02674250521886       -0.02966512506036        1.05958541878748
C           -1.63907502988480       -0.00442940727137        0.23582079851634
C           -1.87184017454468        1.27689803305370       -0.55502548132534
C           -1.88580604182290       -1.25287313140130       -0.60216334729699
H            1.40387532296010        2.17046707298275       -0.41318846519687
H            2.63630565625961        1.33731585134343        0.55308895910646
H            2.72315892757347        1.29212992670243       -1.21618153838959
H            0.57556147414221        0.00221715992774       -1.28411949310355
H            2.67127272189316       -1.30419160490519        0.53392368592892
H            2.76601230947840       -1.21953890175111       -1.23318293779795
H            1.46898041968193       -2.15321413233740       -0.45657861216870
H           -2.31599954506180       -0.01710013375611        1.09901498339516
H           -1.18973322686936        1.34846800559147       -1.40890678424812
H           -2.89493579468587        1.28448752357386       -0.94945925084060
H           -1.73682012228029        2.16317433240021        0.07057306183456
H           -1.76101836189802       -2.16304114461779       -0.00960523154056
H           -1.20426557874510       -1.30122113452645       -1.45821375554744
H           -2.90885306972095       -1.23464424564020       -0.99655503381264
21
 energy: -23.235882243933 gnorm: 0.006538825530 xtb: 6.7.1 (edcfbbe)
C            2.03466657224219        1.27835774890373       -0.35987713416492
C            1.20721020683569        0.00441992289342       -0.40653028890456
C            2.07304794630210       -1.24437904378444       -0.38156785587902
S            0.02462006664254       -0.02785440961886        1.02182190150278
C           -1.64568197131163       -0.00404207332840        0.22655224939928
C           -1.86923383329589        1.27736627768656       -0.55828889929915
C           -1.88292992561118       -1.25314586278511       -0.60512981261223
H            1.39588723606293        2.15882249070522       -0.40262564963778
H            2.62018254047698        1.32326627011705        0.55821081192160
H            2.71881138230014        1.30080080005003       -1.20884716418825
H            0.57827438939691        0.00202476409752       -1.29813733927110
H            2.65509448364149       -1.29053607823207        0.53868957322837
H            2.76183410857979       -1.22879109747550       -1.22691674954021
H            1.46107572788835       -2.14240923911960       -0.44567895974846
H           -2.30164173767833       -0.01695683781608        1.10285344296411
H           -1.19062028413674        1.34660725717354       -1.40823714593251
H           -2.89080984185834        1.29331408905224       -0.93877456611082
H           -1.72069330826163        2.14909820219418        0.07650947184214
H           -1.74430356089547       -2.14925437934915       -0.00286729128674
H           -1.20463606904555       -1.29897319907289       -1.45695606390597
H           -2.90438261179202       -1.24383131517983       -0.98622118644149
21
 energy: -23.236014730516 gnorm: 0.002316781711 xtb: 6.7.1 (edcfbbe)
C            2.03054640797486        1.27735409017674       -0.35996073910597
C            1.20319315974808        0.00452507233142       -0.41510729830810
C            2.06866996879723       -1.24347679493387       -0.38161878038741
S            0.02815248559872       -0.02790134676889        1.01503531782826
C           -1.63780054710931       -0.00382553135951        0.21916951835315
C           -1.86719762379460        1.27869946389365       -0.56079504227637
C           -1.88058110188190       -1.25429173617562       -0.60748444000940
H            1.38915523571284        2.15420534760298       -0.39412139090148
H            2.60815554221931        1.31071840089857        0.56076837805040
H            2.71520235109341        1.30919147605825       -1.20503859473054
H            0.57976088912996        0.00220262464007       -1.30952454488195
H            2.64303519057299       -1.27826380552522        0.54110080936183
H            2.75760847685563       -1.23730188381359       -1.22373185853991
H            1.45401855681354       -2.13825109022763       -0.43666962769849
H           -2.28503450349496       -0.01680656242027        1.10032953908082
H           -1.19349824099400        1.34619536549767       -1.41170838056161
H           -2.88957793639884        1.30207234730902       -0.93175368349798
H           -1.70752697788578        2.14320555646818        0.07876329874597
H           -1.73073106892347       -2.14339010878066       -0.00009653487038
H           -1.20696918049071       -1.29820245453728       -1.46003492585882
H           -2.90280956706066       -1.25275414322246       -0.97953967585694
21
 energy: -23.236039982164 gnorm: 0.001080050466 xtb: 6.7.1 (edcfbbe)
C            2.02972898682868        1.27828705960671       -0.35997937630879
C            1.20282735401305        0.00454348752446       -0.41781294510074
C            2.06785275942482       -1.24446582139045       -0.38177222393393
S            0.02736528498666       -0.02780916610252        1.01061422417322
C           -1.63884050152007       -0.00376918721674        0.21893772897792
C           -1.86608483864817        1.27990864621863       -0.56102059988887
C           -1.87938359772622       -1.25545154445185       -0.60771281109396
H            1.38678743525215        2.15443384180871       -0.38967114560888
H            2.60610300472757        1.30692216739416        0.56158052464797
H            2.71467970611040        1.31542103786123       -1.20434039282884
H            0.58195251255766        0.00232249044087       -1.31410969043387
H            2.64123775628891       -1.27442895434509        0.54162108458054
H            2.75685997385787       -1.24378228961357       -1.22359814093231
H            1.45153574184220       -2.13865432859237       -0.43189400610612
H           -2.28663655000642       -0.01670515653599        1.09962811859985
H           -1.19604370768596        1.34480476161116       -1.41522476823733
H           -2.88991975315852        1.30777601576695       -0.92690072804301
H           -1.69942935224008        2.14343640929177        0.07835405481527
H           -1.72254576259213       -2.14355369757827       -0.00035486145092
H           -1.20922389113060       -1.29663848005812       -1.46332048728013
H           -2.90305104469945       -1.25869300452809       -0.97504221461200
21
 energy: -23.236059461421 gnorm: 0.001481388981 xtb: 6.7.1 (edcfbbe)
C            2.02835090598939        1.27952892186053       -0.35825249126737
C            1.20151362002427        0.00459133322033       -0.42025063312285
C            2.06636018309844       -1.24580834635442       -0.38035841884010
S            0.02696300504879       -0.02772111604408        1.00742826979494
C           -1.63804932088792       -0.00370503791748        0.21774180809986
C           -1.86451333512878        1.28137372013009       -0.56235239461393
C           -1.87769178326796       -1.25685112558132       -0.60904446184512
H            1.38318215300087        2.15497327573426       -0.37992778931293
H            2.60697748396499        1.30222208847248        0.56244156925385
H            2.71119833069565        1.32477753869690       -1.20398546715660
H            0.58396961176185        0.00257185734465       -1.31940681607573
H            2.64282711829422       -1.26936158321256        0.54168721652432
H            2.75259742917955       -1.25386006656699       -1.22451020040408
H            1.44752855571356       -2.13942779506539       -0.42129687593467
H           -2.28891062073575       -0.01654892007405        1.09632247437628
H           -1.20422572173838        1.33953489093100       -1.42555514645112
H           -2.89294409240337        1.31856929583878       -0.91545577745619
H           -1.68173043574366        2.14436524482319        0.07435078388608
H           -1.70482654537772       -2.14435641273856       -0.00411935512848
H           -1.21687367577433       -1.29096633525514       -1.47314689358822
H           -2.90593134923135       -1.26999714113066       -0.96432805680284
21
 energy: -23.236069956091 gnorm: 0.000948577045 xtb: 6.7.1 (edcfbbe)
C            2.02879333461882        1.27920751831923       -0.35720651996069
C            1.20193379740629        0.00461027508783       -0.41700211881921
C            2.06667706641892       -1.24548907775186       -0.37939341513702
S            0.02577693114512       -0.02776727538921        1.01001270267378
C           -1.63806395681635       -0.00372266012107        0.21722769030144
C           -1.86468940703082        1.28081401205870       -0.56328720691873
C           -1.87782391207823       -1.25631352805977       -0.60996547542512
H            1.38393485595956        2.15477464477059       -0.37759317775906
H            2.61072967976693        1.30283499385954        0.56139978741433
H            2.70901572310213        1.32369940454194       -1.20522936830892
H            0.58369486770454        0.00263450363777       -1.31551683093281
H            2.64692240652905       -1.26969212825188        0.54028743021120
H            2.74988793304547       -1.25308503049419       -1.22612833287359
H            1.44806878021422       -2.13919022369464       -0.41857332768278
H           -2.28996761759388       -0.01657906620830        1.09518785351784
H           -1.20827628630854        1.33628341980045       -1.42951270766010
H           -2.89448686449619        1.31984690332218       -0.91203531791260
H           -1.67746104521672        2.14447587422084        0.07088524040187
H           -1.70062458105659       -2.14446662331668       -0.00758513501884
H           -1.22082285678446       -1.28761440767610       -1.47698547946616
H           -2.90744733204692       -1.27135724154381       -0.96100494670976
21
 energy: -23.236076986915 gnorm: 0.000305130714 xtb: 6.7.1 (edcfbbe)
C            2.02913421905599        1.27858853158875       -0.35548529930833
C            1.20205487572861        0.00463380314065       -0.41458320020313
C            2.06684307299594       -1.24491193789707       -0.37784451780255
S            0.02495403278924       -0.02759935735050        1.01226047804823
C           -1.63824710502131       -0.00374344382318        0.21640895436422
C           -1.86486592699321        1.27988843481518       -0.56477657233215
C           -1.87791640456119       -1.25541008280180       -0.61144750749701
H            1.38524432831320        2.15463393533206       -0.37357223083723
H            2.61510109516307        1.30225101726874        0.56061512216520
H            2.70589566695420        1.32192855348057       -1.20637788183382
H            0.58230806586670        0.00270447081398       -1.31184808417789
H            2.65183393039933       -1.26867871403240        0.53889633330651
H            2.74588729119878       -1.25186647623955       -1.22796755506080
H            1.44904532492035       -2.13902410791226       -0.41385601649726
H           -2.29029040946480       -0.01665060673482        1.09431908057919
H           -1.21400545188296        1.33082815184131       -1.43513979595287
H           -2.89662479469000        1.32148396315641       -0.90690509563043
H           -1.67076221202903        2.14418694854307        0.06611470838384
H           -1.69393548885172       -2.14419190672818       -0.01237882672796
H           -1.22635927427149       -1.28197890068630       -1.48240105834474
H           -2.90952331913734       -1.27316798866309       -0.95604969070594
21
 energy: -23.236078395063 gnorm: 0.000207482311 xtb: 6.7.1 (edcfbbe)
C            2.02948012021535        1.27847521354796       -0.35514043663833
C            1.20228186028932        0.00467635196890       -0.41347440939805
C            2.06703386167910       -1.24480082786678       -0.37753417088957
S            0.02427391325553       -0.02764965649181        1.01282872995739
C           -1.63875050423261       -0.00374171448850        0.21609013030848
C           -1.86510767829048        1.27978922813245       -0.56533230902714
C           -1.87803373280741       -1.25530966894962       -0.61200640808770
H            1.38557495790048        2.15454065056352       -0.37145007968681
H            2.61635905438926        1.30107452005881        0.56033104515039
H            2.70536387887705        1.32273271628157       -1.20674754038421
H            0.58269825689169        0.00280132642284       -1.31075687562353
H            2.65336408420229       -1.26731298567440        0.53830340376707
H            2.74479538940680       -1.25296802947868       -1.22872419856356
H            1.44911705752807       -2.13891532178067       -0.41126139280274
H           -2.29076592510471       -0.01668838896230        1.09393615850577
H           -1.21712359417853        1.32830405442991       -1.43795162335108
H           -2.89790899128318        1.32347339623851       -0.90403032981324
H           -1.66690132578192        2.14432654504377        0.06390302404958
H           -1.68995923448077       -2.14432100708687       -0.01460163261973
H           -1.22931395179898       -1.27930664380638       -1.48512702162634
H           -2.91070598019399       -1.27527547099067       -0.95327271929154
21
 energy: -23.236078840644 gnorm: 0.000058566002 xtb: 6.7.1 (edcfbbe)
C            2.02948500921557        1.27856622517140       -0.35481631241682
C            1.20229415501993        0.00469306812942       -0.41392951803142
C            2.06698617743934       -1.24491474238624       -0.37725187292845
S            0.02451774944969       -0.02754138544501        1.01245494845875
C           -1.63873223806401       -0.00374292861722        0.21597340983678
C           -1.86516984997461        1.27978433743106       -0.56550114366510
C           -1.87804443508627       -1.25530145549490       -0.61220074410496
H            1.38555434647315        2.15464531404353       -0.37061538361068
H            2.61652627517261        1.30067251871739        0.56057850811186
H            2.70525830545889        1.32340206000596       -1.20642107068269
H            0.58283618982297        0.00284621738588       -1.31134612545093
H            2.65366595177871       -1.26682878776340        0.53838744671001
H            2.74445713260939       -1.25385736168903       -1.22860662056040
H            1.44896830201361       -2.13900549760765       -0.41017576487527
H           -2.29058459010957       -0.01671120030794        1.09391898332112
H           -1.21854427179612        1.32742474962248       -1.43919355459827
H           -2.89844071439180        1.32438069985522       -0.90262087609988
H           -1.66522957875276        2.14436426210711        0.06308735993600
H           -1.68814822228546       -2.14434323491903       -0.01545548196743
H           -1.23067982358795       -1.27830801703887       -1.48637095963667
H           -2.91120435392297       -1.27632055408860       -0.95191388381048
21
 energy: -23.236078950821 gnorm: 0.000034446529 xtb: 6.7.1 (edcfbbe)
C            2.02956513572081        1.27861000308163       -0.35470964399702
C            1.20239173129249        0.00471267635638       -0.41416502806838
C            2.06699517343700       -1.24497528535251       -0.37713707110587
S            0.02458578692069       -0.02750450233372        1.01210799978397
C           -1.63872174754827       -0.00373758597556        0.21581381350249
C           -1.86526770082812        1.27978767248229       -0.56561302598933
C           -1.87806250714619       -1.25529549472191       -0.61233177788486
H            1.38547825622382        2.15458914984474       -0.37039046227380
H            2.61636666495158        1.30054439653958        0.56085368371662
H            2.70546487072951        1.32372779165685       -1.20619591770890
H            0.58309227152952        0.00288334837300       -1.31169589055622
H            2.65357013981319       -1.26665495565208        0.53858635960255
H            2.74446542560460       -1.25432591864360       -1.22848324115378
H            1.44875795299567       -2.13893900786834       -0.40974903386645
H           -2.29037422074787       -0.01673814609419        1.09389736191385
H           -1.21936047208381        1.32697244310235       -1.43986693502256
H           -2.89883874893849        1.32478905025789       -0.90177653926852
H           -1.66430325934352        2.14430024547142        0.06278381175190
H           -1.68702472830005       -2.14427610976053       -0.01581561345622
H           -1.23146310751856       -1.27772926326073       -1.48708861107774
H           -2.91154540028167       -1.27683622039139       -0.95104289490665
21
 energy: -23.236078988486 gnorm: 0.000023536025 xtb: 6.7.1 (edcfbbe)
C            2.02959449651291        1.27864238248323       -0.35464990170029
C            1.20244889402936        0.00472474142575       -0.41417592151818
C            2.06697293004883       -1.24502383194391       -0.37706966966541
S            0.02461835025135       -0.02743346624155        1.01206608492141
C           -1.63868129649579       -0.00373752922524        0.21577820506368
C           -1.86532081558696        1.27978112954604       -0.56565525228297
C           -1.87805383178880       -1.25528306756902       -0.61240179616307
H            1.38550625845202        2.15461951060768       -0.37042498880150
H            2.61626425041537        1.30058702823310        0.56099281688832
H            2.70563053683287        1.32378853781827       -1.20601478491960
H            0.58321844218991        0.00290817713045       -1.31175678772673
H            2.65350364544230       -1.26667620804451        0.53867773390104
H            2.74449543955795       -1.25451527093957       -1.22836172849929
H            1.44868251212233       -2.13895111785247       -0.40963435865676
H           -2.29028521222729       -0.01676484495915        1.09389594638499
H           -1.21992579393293        1.32669297686201       -1.44030076480162
H           -2.89905809414018        1.32504101662007       -0.90123196349891
H           -1.66378153876710        2.14433132980023        0.06248374234219
H           -1.68630338121589       -2.14429632039571       -0.01618558902548
H           -1.23202416387128       -1.27732870797456       -1.48758720844932
H           -2.91173011134663       -1.27720217826957       -0.95046246985742
