
                                 *****************
                                 * O   R   C   A *
                                 *****************

                                            #,                                       
                                            ###                                      
                                            ####                                     
                                            #####                                    
                                            ######                                   
                                           ########,                                 
                                     ,,################,,,,,                         
                               ,,#################################,,                 
                          ,,##########################################,,             
                       ,#########################################, ''#####,          
                    ,#############################################,,   '####,        
                  ,##################################################,,,,####,       
                ,###########''''           ''''###############################       
              ,#####''   ,,,,##########,,,,          '''####'''          '####       
            ,##' ,,,,###########################,,,                        '##       
           ' ,,###''''                  '''############,,,                           
         ,,##''                                '''############,,,,        ,,,,,,###''
      ,#''                                            '''#######################'''  
     '                                                          ''''####''''         
             ,#######,   #######,   ,#######,      ##                                
            ,#'     '#,  ##    ##  ,#'     '#,    #''#        ,####,   ,####,        
            ##       ##  ##   ,#'  ##            #'  '#       #'       #'  '#        
            ##       ##  #######   ##           ,######,      #####,   #    #        
            '#,     ,#'  ##    ##  '#,     ,#' ,#      #,     #,   #   #,  ,#        
             '#######'   ##     ##  '#######'  #'      '#     '####' # '####'        



                #########################################################
                #                        -***-                          #
                #          Department of theory and spectroscopy        #
                #                                                       #
                #                      Frank Neese                      #
                #                                                       #
                #     Directorship, Architecture, Infrastructure        #
                #                    SHARK, DRIVERS                     #
                #        Core code/Algorithms in most modules           #
                #                                                       #
                #        Max Planck Institute fuer Kohlenforschung      #
                #                Kaiser Wilhelm Platz 1                 #
                #                 D-45470 Muelheim/Ruhr                 #
                #                      Germany                          #
                #                                                       #
                #                  All rights reserved                  #
                #                        -***-                          #
                #########################################################


                         Program Version 6.0.0  -   RELEASE  -


 With contributions from (in alphabetic order):
   Daniel Aravena         : Magnetic Suceptibility
   Michael Atanasov       : Ab Initio Ligand Field Theory (pilot matlab implementation)
   Alexander A. Auer      : GIAO ZORA, VPT2 properties, NMR spectrum
   Ute Becker             : All parallelization in ORCA, NUMFREQ, NUMCALC
   Giovanni Bistoni       : ED, misc. LED, open-shell LED, HFLD
   Martin Brehm           : Molecular dynamics
   Dmytro Bykov           : pre 5.0 version of the SCF Hessian
   Marcos Casanova-Páez   : Triplet and SCS-CIS(D). UHF-(DLPNO)-IP/EA/STEOM-CCSD. UHF-CVS-IP/STEOM-CCSD
   Vijay G. Chilkuri      : MRCI spin determinant printing, contributions to CSF-ICE
   Pauline Colinet        : FMM embedding
   Dipayan Datta          : RHF DLPNO-CCSD density
   Achintya Kumar Dutta   : EOM-CC, STEOM-CC
   Nicolas Foglia         : Exact transition moments, OPA infrastructure, MCD improvements
   Dmitry Ganyushin       : Spin-Orbit,Spin-Spin,Magnetic field MRCI
   Miquel Garcia          : C-PCM and meta-GGA Hessian, CCSD/C-PCM, Gaussian charge scheme
   Tiago L. C. Gouveia    : GS-ROHF, GS-ROCIS
   Yang Guo               : DLPNO-NEVPT2, F12-NEVPT2, CIM, IAO-localization
   Andreas Hansen         : Spin unrestricted coupled pair/coupled cluster methods
   Ingolf Harden          : AUTO-CI MPn and infrastructure 
   Benjamin Helmich-Paris : MC-RPA, TRAH-(SCF,CASSCF), AVAS, COSX integrals, SCF dyn. polar.
   Lee Huntington         : MR-EOM, pCC
   Robert Izsak           : Overlap fitted RIJCOSX, COSX-SCS-MP3, EOM
   Riya Kayal             : Wick's Theorem for AUTO-CI, AUTO-CI UHF-CCSDT
   Emily Kempfer          : AUTO-CI, RHF CISDT and CCSDT
   Christian Kollmar      : KDIIS, OOCD, Brueckner-CCSD(T), CCSD density, CASPT2, CASPT2-K, improved NEVPT2
   Axel Koslowski         : Symmetry handling
   Simone Kossmann        : Meta GGA functionals, TD-DFT gradient, OOMP2, (MP2 Hessian; deprecated post 5.0)
   Lucas Lang             : DCDCAS
   Marvin Lechner         : AUTO-CI (C++ implementation), FIC-MRCC
   Spencer Leger          : CASSCF response
   Dagmar Lenk            : GEPOL surface, SMD, ORCA-2-JSON
   Dimitrios Liakos       : Extrapolation schemes; Compound Job, initial MDCI parallelization
   Dimitrios Manganas     : Further ROCIS development; embedding schemes. LFT, Crystal Embedding
   Dimitrios Pantazis     : SARC Basis sets
   Anastasios Papadopoulos: AUTO-CI, single reference methods and gradients
   Taras Petrenko         : pre 6.0 DFT Hessian and TD-DFT gradient, (ASA, deprecated), ECA, 1-Electron XAS/XES, NRVS
   Peter Pinski           : DLPNO-MP2, DLPNO-MP2 Gradient
   Christoph Reimann      : Effective Core Potentials
   Marius Retegan         : Local ZFS, SOC
   Christoph Riplinger    : Optimizer, TS searches, QM/MM, DLPNO-CCSD(T), (RO)-DLPNO pert. Triples
   Michael Roemelt        : Original ROCIS implementation
   Masaaki Saitow         : Open-shell DLPNO-CCSD energy and density
   Barbara Sandhoefer     : DKH picture change effects
   Kantharuban Sivalingam : CASSCF convergence/infrastructure, NEVPT2 and variants, FIC-MRCI
   Bernardo de Souza      : ESD, SOC TD-DFT
   Georgi Stoychev        : AutoAux, RI-MP2 NMR, DLPNO-MP2 response, X2C
   Van Anh Tran           : RI-MP2 g-tensors
   Willem Van den Heuvel  : Paramagnetic NMR
   Zikuan Wang            : NOTCH, Electric field optimization 
   Frank Wennmohs         : Technical directorship and infrastructure
   Hang Xu                : AUTO-CI-Response properties 


 We gratefully acknowledge several colleagues who have allowed us to
 interface, adapt or use parts of their codes:
   Stefan Grimme, W. Hujo, H. Kruse, P. Pracht,  : VdW corrections, initial TS optimization,
                  C. Bannwarth, S. Ehlert,         DFT functionals, gCP, sTDA/sTD-DF
                  L. Wittmann, M. Mueller
   Ed Valeev, F. Pavosevic, A. Kumar             : LibInt (2-el integral package), F12 methods
   Garnet Chan, S. Sharma, J. Yang, R. Olivares  : DMRG
   Ulf Ekstrom                                   : XCFun DFT Library
   Mihaly Kallay                                 : mrcc  (arbitrary order and MRCC methods)
   Frank Weinhold                                : gennbo (NPA and NBO analysis)
   Simon Mueller                                 : openCOSMO-RS
   Christopher J. Cramer and Donald G. Truhlar   : smd solvation model
   Lars Goerigk                                  : TD-DFT with DH, B97 family of functionals
   V. Asgeirsson, H. Jonsson                     : NEB implementation
   FAccTs GmbH                                   : IRC, NEB, NEB-TS, DLPNO-Multilevel, CI-OPT
                                                   MM, QMMM, 2- and 3-layer-ONIOM, Crystal-QMMM,
                                                   LR-CPCM, SF, NACMEs, symmetry and pop. for TD-DFT,
                                                   nearIR, NL-DFT gradient (VV10), updates on ESD,
                                                   ML-optimized integration grids, MBIS, APM,
                                                   GOAT, DOCKER, SOLVATOR, interface openCOSMO-RS
   S Lehtola, MJT Oliveira, MAL Marques          : LibXC Library
   Liviu Ungur et al                             : ANISO software


 Your calculation uses the libint2 library for the computation of 2-el integrals
 For citations please refer to: http://libint.valeyev.net

 Your ORCA version has been built with support for libXC version: 6.2.2
 For citations please refer to: https://libxc.gitlab.io

 This ORCA versions uses:
   CBLAS   interface :  Fast vector & matrix operations
   LAPACKE interface :  Fast linear algebra routines
   SCALAPACK package :  Parallel linear algebra routines
   Shared memory     :  Shared parallel matrices
   BLAS/LAPACK       :  OpenBLAS 0.3.27  USE64BITINT DYNAMIC_ARCH NO_AFFINITY SkylakeX SINGLE_THREADED
        Core in use  :  SkylakeX
   Copyright (c) 2011-2014, The OpenBLAS Project


Your calculation utilizes the geometrical counterpoise correction gCP
Please cite in your paper:
H.Kruse, S. Grimme J.Chem.Phys., 136, (2012), 154101 
   

Your calculation utilizes the atom-pairwise dispersion correction
based on EEQ partial charges (D4)


Your calculation utilizes the SMD solvation module
Please cite in your paper:
A.V. Marenich, C.J. Cramer, D.G. Truhlar J. Phys. Chem. B, 113, (2009), 6378 

================================================================================

----- Orbital basis set information -----
Your calculation utilizes the basis: def2-mTZVPP
   Stefan Grimme, Andreas Hansen, Sebastian Ehlert, and Jan-Michael Mewes 
   J. Chem. Phys. 154, 064103 (2021). DOI: 10.1063/5.0040021

----- AuxJ basis set information -----
Your calculation utilizes the auxiliary basis: def2/J
   F. Weigend, Phys. Chem. Chem. Phys. 8, 1057 (2006).

================================================================================
                                        WARNINGS
                       Please study these warnings very carefully!
================================================================================

Using LibXC functional ID 497 : Re-regularized SCAN exchange by Furness et al
[ 1]  J. W. Furness, A. D. Kaplan, J. Ning, J. P. Perdew, and J. Sun.,  J. Phys. Chem. Lett. 11, 8208-8215 (2020)
[ 2]  J. W. Furness, A. D. Kaplan, J. Ning, J. P. Perdew, and J. Sun.,  J. Phys. Chem. Lett. 11, 9248-9248 (2020)
Using LibXC functional ID 498 : Re-regularized SCAN correlation by Furness et al
[ 1]  J. W. Furness, A. D. Kaplan, J. Ning, J. P. Perdew, and J. Sun.,  J. Phys. Chem. Lett. 11, 8208-8215 (2020)
[ 2]  J. W. Furness, A. D. Kaplan, J. Ning, J. P. Perdew, and J. Sun.,  J. Phys. Chem. Lett. 11, 9248-9248 (2020)
Using LibXC functional ID 497 : Re-regularized SCAN exchange by Furness et al
[ 1]  J. W. Furness, A. D. Kaplan, J. Ning, J. P. Perdew, and J. Sun.,  J. Phys. Chem. Lett. 11, 8208-8215 (2020)
[ 2]  J. W. Furness, A. D. Kaplan, J. Ning, J. P. Perdew, and J. Sun.,  J. Phys. Chem. Lett. 11, 9248-9248 (2020)
Using LibXC functional ID 498 : Re-regularized SCAN correlation by Furness et al
[ 1]  J. W. Furness, A. D. Kaplan, J. Ning, J. P. Perdew, and J. Sun.,  J. Phys. Chem. Lett. 11, 8208-8215 (2020)
[ 2]  J. W. Furness, A. D. Kaplan, J. Ning, J. P. Perdew, and J. Sun.,  J. Phys. Chem. Lett. 11, 9248-9248 (2020)

================================================================================
                                       INPUT FILE
================================================================================
NAME = sp_solv.inp
|  1> ! r2scan-3c def2/J RI DEFGRID2 scfconv6 printgap
|  2> %output
|  3>     printlevel normal
|  4> end
|  5> %cpcm
|  6>     smd true
|  7>     smdsolvent "water"
|  8> end
|  9> * xyz 0 1
| 10> C -3.2703631143 -1.1618681049 0.3271893522
| 11> C -1.7924094102 -0.9276619414 0.0385450154
| 12> C -1.4474298362 0.558705048 0.1197341193
| 13> C -0.0031127068 0.8726347502 -0.1693311737
| 14> O 0.3857116625 1.9424286087 -0.5988708637
| 15> O 0.8145535271 -0.1294570556 0.1098375169
| 16> C 2.2202050768 0.0761747777 -0.1102959153
| 17> C 2.9509768467 -1.1941751787 0.2784354545
| 18> H -3.5046038503 -2.2204288258 0.257085002
| 19> H -3.5234586261 -0.8184020356 1.3270570863
| 20> H -3.8889962269 -0.6244864229 -0.3874180825
| 21> H -1.5500305779 -1.2991007757 -0.9585769117
| 22> H -1.1839757386 -1.4784033584 0.7559985752
| 23> H -1.6533413777 0.9304732703 1.1273201974
| 24> H -2.0556905851 1.1437664698 -0.5722694225
| 25> H 2.3712903042 0.3267618876 -1.1654434123
| 26> H 2.5429062486 0.9325910865 0.4909671512
| 27> H 4.014823543 -1.0608268651 0.1127691316
| 28> H 2.7764381173 -1.4183192613 1.3264519391
| 29> H 2.5956431521 -2.0261176578 -0.3220860565
| 30> *
| 31> 
| 32>                          ****END OF INPUT****
================================================================================

                       ****************************
                       * Single Point Calculation *
                       ****************************

---------------------------------
CARTESIAN COORDINATES (ANGSTROEM)
---------------------------------
  C     -3.270363   -1.161868    0.327189
  C     -1.792409   -0.927662    0.038545
  C     -1.447430    0.558705    0.119734
  C     -0.003113    0.872635   -0.169331
  O      0.385712    1.942429   -0.598871
  O      0.814554   -0.129457    0.109838
  C      2.220205    0.076175   -0.110296
  C      2.950977   -1.194175    0.278435
  H     -3.504604   -2.220429    0.257085
  H     -3.523459   -0.818402    1.327057
  H     -3.888996   -0.624486   -0.387418
  H     -1.550031   -1.299101   -0.958577
  H     -1.183976   -1.478403    0.755999
  H     -1.653341    0.930473    1.127320
  H     -2.055691    1.143766   -0.572269
  H      2.371290    0.326762   -1.165443
  H      2.542906    0.932591    0.490967
  H      4.014824   -1.060827    0.112769
  H      2.776438   -1.418319    1.326452
  H      2.595643   -2.026118   -0.322086

----------------------------
CARTESIAN COORDINATES (A.U.)
----------------------------
  NO LB      ZA    FRAG     MASS         X           Y           Z
   0 C     6.0000    0    12.011   -6.180091   -2.195613    0.618298
   1 C     6.0000    0    12.011   -3.387163   -1.753027    0.072840
   2 C     6.0000    0    12.011   -2.735246    1.055800    0.226265
   3 C     6.0000    0    12.011   -0.005882    1.649041   -0.319990
   4 O     8.0000    0    15.999    0.728889    3.670658   -1.131702
   5 O     8.0000    0    15.999    1.539283   -0.244638    0.207563
   6 C     6.0000    0    12.011    4.195580    0.143949   -0.208429
   7 C     6.0000    0    12.011    5.576538   -2.256664    0.526167
   8 H     1.0000    0     1.008   -6.622741   -4.196002    0.485820
   9 H     1.0000    0     1.008   -6.658372   -1.546556    2.507774
  10 H     1.0000    0     1.008   -7.349138   -1.180108   -0.732114
  11 H     1.0000    0     1.008   -2.929133   -2.454945   -1.811448
  12 H     1.0000    0     1.008   -2.237390   -2.793777    1.428630
  13 H     1.0000    0     1.008   -3.124362    1.758340    2.130326
  14 H     1.0000    0     1.008   -3.884692    2.161405   -1.081432
  15 H     1.0000    0     1.008    4.481089    0.617490   -2.202369
  16 H     1.0000    0     1.008    4.805396    1.762342    0.927793
  17 H     1.0000    0     1.008    7.586917   -2.004672    0.213103
  18 H     1.0000    0     1.008    5.246708   -2.680235    2.506631
  19 H     1.0000    0     1.008    4.905055   -3.828807   -0.608654

--------------------------------
INTERNAL COORDINATES (ANGSTROEM)
--------------------------------
 C      0   0   0     0.000000000000     0.00000000     0.00000000
 C      1   0   0     1.523980062747     0.00000000     0.00000000
 C      2   1   0     1.528034490529   111.00042286     0.00000000
 C      3   2   1     1.506042021930   114.14695618   180.64181234
 O      4   3   2     1.216613182212   123.88684611   153.96827803
 O      4   3   2     1.323140663393   113.22111103   333.01372612
 C      6   4   3     1.437567201216   117.62040988   180.99207678
 C      7   6   4     1.516221774436   108.18965260   179.88158939
 H      1   2   3     1.086431839625   110.28013844   179.46046953
 H      1   2   3     1.087088664529   110.57529092   299.43956705
 H      1   2   3     1.087267117999   110.57020491    59.52327238
 H      2   1   3     1.091314090204   109.64176003   239.22050104
 H      2   1   3     1.090067544515   109.81596364   120.97004771
 H      3   2   1     1.093545096837   109.70277254    61.03045380
 H      3   2   1     1.091396769188   111.21905036   302.50954131
 H      7   6   4     1.094968897281   108.37371304   301.35269405
 H      7   6   4     1.095035257604   108.41776905    58.37255631
 H      8   7   6     1.084894878093   109.29828974   179.62324055
 H      8   7   6     1.085837414081   110.05550696   299.65482257
 H      8   7   6     1.085825219924   110.02456425    59.59269350

---------------------------
INTERNAL COORDINATES (A.U.)
---------------------------
 C      0   0   0     0.000000000000     0.00000000     0.00000000
 C      1   0   0     2.879904952148     0.00000000     0.00000000
 C      2   1   0     2.887566710286   111.00042286     0.00000000
 C      3   2   1     2.846006967625   114.14695618   180.64181234
 O      4   3   2     2.299065725298   123.88684611   153.96827803
 O      4   3   2     2.500373490467   113.22111103   333.01372612
 C      6   4   3     2.716608309406   117.62040988   180.99207678
 C      7   6   4     2.865243911973   108.18965260   179.88158939
 H      1   2   3     2.053058640064   110.28013844   179.46046953
 H      1   2   3     2.054299859250   110.57529092   299.43956705
 H      1   2   3     2.054637087437   110.57020491    59.52327238
 H      2   1   3     2.062284756574   109.64176003   239.22050104
 H      2   1   3     2.059929126610   109.81596364   120.97004771
 H      3   2   1     2.066500748114   109.70277254    61.03045380
 H      3   2   1     2.062440997212   111.21905036   302.50954131
 H      7   6   4     2.069191341022   108.37371304   301.35269405
 H      7   6   4     2.069316743860   108.41776905    58.37255631
 H      8   7   6     2.050154203689   109.29828974   179.62324055
 H      8   7   6     2.051935338579   110.05550696   299.65482257
 H      8   7   6     2.051912294961   110.02456425    59.59269350

---------------------
BASIS SET INFORMATION
---------------------
There are 3 groups of distinct atoms

 Group   1 Type C   : 11s6p1d contracted to 5s3p1d pattern {62111/411/1}
 Group   2 Type O   : 11s6p2d contracted to 5s3p2d pattern {62111/411/11}
 Group   3 Type H   : 4s1p contracted to 2s1p pattern {31/1}

Atom   0C    basis set group =>   1
Atom   1C    basis set group =>   1
Atom   2C    basis set group =>   1
Atom   3C    basis set group =>   1
Atom   4O    basis set group =>   2
Atom   5O    basis set group =>   2
Atom   6C    basis set group =>   1
Atom   7C    basis set group =>   1
Atom   8H    basis set group =>   3
Atom   9H    basis set group =>   3
Atom  10H    basis set group =>   3
Atom  11H    basis set group =>   3
Atom  12H    basis set group =>   3
Atom  13H    basis set group =>   3
Atom  14H    basis set group =>   3
Atom  15H    basis set group =>   3
Atom  16H    basis set group =>   3
Atom  17H    basis set group =>   3
Atom  18H    basis set group =>   3
Atom  19H    basis set group =>   3
---------------------------------
AUXILIARY/J BASIS SET INFORMATION
---------------------------------
There are 3 groups of distinct atoms

 Group   1 Type C   : 12s5p4d2f1g contracted to 6s4p3d1f1g pattern {711111/2111/211/2/1}
 Group   2 Type O   : 12s5p4d2f1g contracted to 6s4p3d1f1g pattern {711111/2111/211/2/1}
 Group   3 Type H   : 5s2p1d contracted to 3s1p1d pattern {311/2/1}

Atom   0C    basis set group =>   1
Atom   1C    basis set group =>   1
Atom   2C    basis set group =>   1
Atom   3C    basis set group =>   1
Atom   4O    basis set group =>   2
Atom   5O    basis set group =>   2
Atom   6C    basis set group =>   1
Atom   7C    basis set group =>   1
Atom   8H    basis set group =>   3
Atom   9H    basis set group =>   3
Atom  10H    basis set group =>   3
Atom  11H    basis set group =>   3
Atom  12H    basis set group =>   3
Atom  13H    basis set group =>   3
Atom  14H    basis set group =>   3
Atom  15H    basis set group =>   3
Atom  16H    basis set group =>   3
Atom  17H    basis set group =>   3
Atom  18H    basis set group =>   3
Atom  19H    basis set group =>   3

Checking for AutoStart:
The File: sp_solv.gbw exists
Trying to determine its content:
     ... Fine, the file contains calculation information
     ... Fine, the calculation information was read
     ... Fine, the file contains a basis set
     ... Fine, the basis set was read
     ... Fine, the file contains a geometry
     ... Fine, the geometry was read
     ... Fine, the file contains a set of orbitals
     ... Fine, the orbitals can be read
     => possible old guess file was deleted
     => GBW file was renamed to GES file
     => GES file is set as startup file
     => Guess is set to MORead
     ... now leaving AutoStart

------------------------------------------------------------------------------
                             ORCA STARTUP CALCULATIONS
                           -- RI-GTO INTEGRALS CHOSEN --
------------------------------------------------------------------------------
------------------------------------------------------------------------------
                   ___                                                        
                  /   \      - P O W E R E D   B Y -                         
                 /     \                                                     
                 |  |  |   _    _      __       _____    __    __             
                 |  |  |  | |  | |    /  \     |  _  \  |  |  /  |          
                  \  \/   | |  | |   /    \    | | | |  |  | /  /          
                 / \  \   | |__| |  /  /\  \   | |_| |  |  |/  /          
                |  |  |   |  __  | /  /__\  \  |    /   |      \           
                |  |  |   | |  | | |   __   |  |    \   |  |\   \          
                \     /   | |  | | |  |  |  |  | |\  \  |  | \   \       
                 \___/    |_|  |_| |__|  |__|  |_| \__\ |__|  \__/        
                                                                              
                      - O R C A' S   B I G   F R I E N D -                    
                                      &                                       
                       - I N T E G R A L  F E E D E R -                       
                                                                              
 v1 FN, 2020, v2 2021, v3 2022-2024                                           
------------------------------------------------------------------------------


----------------------
SHARK INTEGRAL PACKAGE
----------------------

Number of atoms                             ...     20
Number of basis functions                   ...    222
Number of shells                            ...    110
Maximum angular momentum                    ...      2
Integral batch strategy                     ... SHARK/LIBINT Hybrid
RI-J (if used) integral strategy            ... SPLIT-RIJ (Revised 2003 algorithm where possible)
Printlevel                                  ...      1
Contraction scheme used                     ... SEGMENTED contraction
Prescreening option                         ... SCHWARTZ
   Thresh                                   ... 1.000e-10
   Tcut                                     ... 1.000e-11
   Tpresel                                  ... 1.000e-11 
Coulomb Range Separation                    ... NOT USED
Exchange Range Separation                   ... NOT USED
Multipole approximations                    ... NOT USED
Finite Nucleus Model                        ... NOT USED
CABS basis                                  ... NOT available
Auxiliary Coulomb fitting basis             ... AVAILABLE
   # of basis functions in Aux-J            ...    524
   # of shells in Aux-J                     ...    180
   Maximum angular momentum in Aux-J        ...      4
Auxiliary J/K fitting basis                 ... NOT available
Auxiliary Correlation fitting basis         ... NOT available
Auxiliary 'external' fitting basis          ... NOT available

Checking pre-screening integrals            ... done (  0.0 sec) Dimension = 110
Check shell pair data                       ... done (  0.0 sec)
Shell pair information
Shell pair cut-off parameter TPreSel        ...   1.0e-11
Total number of shell pairs                 ...      6105
Shell pairs after pre-screening             ...      5225
Total number of primitive shell pairs       ...     21533
Primitive shell pairs kept                  ...     12978
          la=0 lb=0:   1754 shell pairs
          la=1 lb=0:   1979 shell pairs
          la=1 lb=1:    576 shell pairs
          la=2 lb=0:    554 shell pairs
          la=2 lb=1:    312 shell pairs
          la=2 lb=2:     50 shell pairs

Calculating one electron integrals          ... done (  0.0 sec)
Calculating RI/J V-Matrix + Cholesky decomp.... done (  0.1 sec)
Calculating Nuclear repulsion               ... done (  0.0 sec) ENN=    388.136358969128 Eh

Diagonalization of the overlap matrix:
Smallest eigenvalue                        ... 1.102e-04
Time for diagonalization                   ...    0.008 sec
Threshold for overlap eigenvalues          ... 1.000e-07
Number of eigenvalues below threshold      ... 0
Time for construction of square roots      ...    0.024 sec
Total time needed                          ...    0.041 sec

-------------------
DFT GRID GENERATION
-------------------

General Integration Accuracy     IntAcc      ... 4.388
Radial Grid Type                 RadialGrid  ... OptM3 with GC (2021)
Angular Grid (max. ang.)         AngularGrid ... 4 (Lebedev-302)
Angular grid pruning method      GridPruning ... 4 (adaptive)
Weight generation scheme         WeightScheme... mBecke (2022)
Basis function cutoff            BFCut       ... 1.0000e-10
Integration weight cutoff        WCut        ... 1.0000e-14
Partially contracted basis set               ... off
Rotationally invariant grid construction     ... off
Angular grids for H and He will be reduced by one unit
Diffuse basis detected: some atoms will have their outermost
                        angular grid increased by 1.

Total number of grid points                  ...    87405
Total number of batches                      ...     1377
Average number of points per batch           ...       63
Average number of grid points per atom       ...     4370
Initializing property integral containers    ... done (  0.0 sec)

SHARK setup successfully completed in   1.3 seconds

Maximum memory used throughout the entire STARTUP-calculation: 39.3 MB
-------------------------------------------------------------------------------
                                 ORCA GUESS
                   Start orbitals & Density for SCF / CASSCF
-------------------------------------------------------------------------------

------------
SCF SETTINGS
------------
Hamiltonian:
 Density Functional     Method          .... DFT(GTOs)
  Functional kind                       .... Exchange
  Functional name                       .... Re-regularized SCAN exchange by Furness et al
  Functional family                     .... MGGA
  Functional refs                              
    [ 0] J. W. Furness, A. D. Kaplan, J. Ning, J. P. Perdew, and J. Sun.,  J. Phys. Chem. Lett. 11, 8208-8215 (2020), doi: 10.1021/acs.jpclett.0c02405
    [ 1] J. W. Furness, A. D. Kaplan, J. Ning, J. P. Perdew, and J. Sun.,  J. Phys. Chem. Lett. 11, 9248-9248 (2020), doi: 10.1021/acs.jpclett.0c03077
  Functional external parameters        .... 6
    Parameter  0 _c1        =  6.670000e-01 : c1 parameter        
    Parameter  1 _c2        =  8.000000e-01 : c2 parameter        
    Parameter  2 _d         =  1.240000e+00 : d parameter         
    Parameter  3 _k1        =  6.500000e-02 : k1 parameter        
    Parameter  4 _eta       =  1.000000e-03 : eta parameter       
    Parameter  5 _dp2       =  3.610000e-01 : dp2 parameter       
  Functional kind                       .... Correlation
  Functional name                       .... Re-regularized SCAN correlation by Furness et al
  Functional family                     .... MGGA
  Functional refs                              
    [ 0] J. W. Furness, A. D. Kaplan, J. Ning, J. P. Perdew, and J. Sun.,  J. Phys. Chem. Lett. 11, 8208-8215 (2020), doi: 10.1021/acs.jpclett.0c02405
    [ 1] J. W. Furness, A. D. Kaplan, J. Ning, J. P. Perdew, and J. Sun.,  J. Phys. Chem. Lett. 11, 9248-9248 (2020), doi: 10.1021/acs.jpclett.0c03077
  Functional external parameters        .... 1
    Parameter  0 _eta       =  1.000000e-03 : Regularization parameter
 Gradients option       PostSCFGGA      .... off
 RI-approximation to the Coulomb term is turned on
   Number of AuxJ basis functions       .... 524


General Settings:
 Integral files         IntName         .... sp_solv
 Hartree-Fock type      HFTyp           .... RHF
 Total Charge           Charge          ....    0
 Multiplicity           Mult            ....    1
 Number of Electrons    NEL             ....   64
 Basis Dimension        Dim             ....  222
 Nuclear Repulsion      ENuc            ....    388.1363589691 Eh

Convergence Acceleration:
 AO-DIIS                CNVDIIS         .... on
   Start iteration      DIISMaxIt       ....    12
   Startup error        DIISStart       ....  0.200000
   # of expansion vecs  DIISMaxEq       ....     5
   Bias factor          DIISBfac        ....   1.050
   Max. coefficient     DIISMaxC        ....  10.000
 MO-DIIS                CNVKDIIS        .... off
 Trust-Rad. Augm. Hess. CNVTRAH         .... auto
   Auto Start mean grad. ratio tolernc. ....  1.125000
   Auto Start start iteration           ....     1
   Auto Start num. interpolation iter.  ....    10
   Max. Number of Micro iterations      ....    24
   Max. Number of Macro iterations      .... Maxiter - #DIIS iter
   Number of Davidson start vectors     ....     2
   Converg. threshold    (grad. norm)   ....   3.330e-04
   Grad. Scal. Fac. for Micro threshold ....   0.100
   Minimum threshold for Micro iter.    ....   1.000e-02
   NR start threshold (gradient norm)   ....   1.000e-04
   Initial trust radius                 ....   0.400
   Minimum AH scaling param. (alpha)    ....   1.000
   Maximum AH scaling param. (alpha)    .... 1000.000
   Quad. conv. algorithm                .... NR
   White noise on init. David. guess    .... on
   Maximum white noise                  ....   0.010
   Pseudo random numbers                .... off
   Inactive MOs                         .... canonical
   Orbital update algorithm             .... Taylor
   Preconditioner                       .... Diag
   Full preconditioner red. dimension   ....   250
   COSX micro iterations for RIJONX calc.... off
 SOSCF                  CNVSOSCF        .... on
   Start iteration      SOSCFMaxIt      ....   150
   Startup grad/error   SOSCFStart      ....  0.003300
   Hessian update       SOSCFHessUp     .... L-BFGS
 Level Shifting         CNVShift        .... on
   Level shift para.    LevelShift      ....    0.2500
   Turn off err/grad.   ShiftErr        ....    0.0010
 Zerner damping         CNVZerner       .... off
 Static damping         CNVDamp         .... on
   Fraction old density DampFac         ....    0.7000
   Max. Damping (<1)    DampMax         ....    0.9800
   Min. Damping (>=0)   DampMin         ....    0.0000
   Turn off err/grad.   DampErr         ....    0.1000

SCF Procedure:
 Maximum # iterations   MaxIter         ....   125
 SCF integral mode      SCFMode         .... Direct
   Integral package                     .... SHARK and LIBINT hybrid scheme
 Reset frequency        DirectResetFreq ....    20
 Integral Threshold     Thresh          ....  1.000e-10 Eh
 Primitive CutOff       TCut            ....  1.000e-11 Eh

Convergence Tolerance:
 Convergence Check Mode ConvCheckMode   .... Total+1el-Energy
 Convergence forced     ConvForced      .... 0
 Energy Change          TolE            ....  1.000e-06 Eh
 1-El. energy change                    ....  1.000e-03 Eh
 Orbital Gradient       TolG            ....  3.330e-04
 Orbital Rotation angle TolX            ....  3.330e-04
 DIIS Error             TolErr          ....  1.000e-06

---------------------
INITIAL GUESS: MOREAD
---------------------
Guess MOs are being read from file: sp_solv.ges
Input Geometry matches current geometry (good)
Atom 0: N(Shells)= 9 and 6 - projection required
Input basis set needs projection
NBasis(read)= 136
NBasis(calc)= 222
Basis set overlap was calculated
Using GuessMode=FMatrix for the initial guess
C*T matrix was formed
Effective Fockian was calculated
Effective Fockian was diagonalized
Initial density was built
                      ------------------
                      INITIAL GUESS DONE (   0.0 sec)
                      ------------------
             **** ENERGY FILE WAS UPDATED (sp_solv.en.tmp) ****
Finished Guess after   0.3 sec
Maximum memory used throughout the entire GUESS-calculation: 14.9 MB

-------------------------------------------------------------------------------------------
                                      ORCA LEAN-SCF
                              memory conserving SCF solver
-------------------------------------------------------------------------------------------

--------------------
CPCM SOLVATION MODEL
--------------------
CPCM parameters:
  Epsilon                                         ...      78.3550
  Refrac                                          ...       1.3328
  Rsolv                                           ...       1.3000
  Surface type                                    ... GAUSSIAN VDW
  Discretization scheme                           ... Constant charge density
    Threshold for H atoms                         ...       5.0000 (charges/Ang^2)
    Threshold for non-H atoms                     ...       5.0000 (charges/Ang^2)
  Epsilon function type                           ...         CPCM
Solvent:                                          ... WATER
SMD-CDS solvent descriptors:
  Soln                                            ...       1.3328
  Soln25                                          ...       1.3323
  Sola                                            ...       0.0000
  Solb                                            ...       0.0000
  Solg                                            ...       0.0000
  Solc                                            ...       0.0000
  Solh                                            ...       0.0000
Radii:
  Scheme                                          ... Element-dependent radii
  Radius for C  used is    3.4960 Bohr (=   1.8500 Ang.)
  Radius for O  used is    2.8724 Bohr (=   1.5200 Ang.)
  Radius for H  used is    2.2677 Bohr (=   1.2000 Ang.)
Calculating surface                               ...        done! (  0.0s)
Cavity surface points                             ...         1503
Cavity Volume                                     ...     882.4380
Cavity Surface-area                               ...     590.9957
Calculating surface distance matrix               ...        done! (  0.0s)
Performing Cholesky decomposition & store         ...        done! (  0.1s)
Overall time for CPCM initialization              ...                 0.1s

----------------------------------------D-I-I-S--------------------------------------------
Iteration    Energy (Eh)           Delta-E    RMSDP     MaxDP     DIISErr   Damp  Time(sec)
-------------------------------------------------------------------------------------------
               ***  Starting incremental Fock matrix formation  ***
    1    -386.0572643818726988     0.00e+00  3.98e-03  1.86e-01  6.27e-01  0.700   3.6
    2    -386.1161483506121499    -5.89e-02  3.17e-03  1.15e-01  4.40e-01  0.700   3.5
    3    -386.1578280061004875    -4.17e-02  2.31e-03  7.37e-02  3.09e-01  0.700   3.3
    4    -386.1871325049041275    -2.93e-02  1.65e-03  4.89e-02  2.17e-01  0.700   3.4
                               ***Turning on AO-DIIS***
    5    -386.2077138618975027    -2.06e-02  1.19e-03  3.15e-02  1.51e-01  0.700   3.2
    6    -386.2221454177196733    -1.44e-02  8.46e-04  2.20e-02  1.06e-01  0.700   3.3
    7    -386.2322782437507271    -1.01e-02  5.97e-04  1.55e-02  7.41e-02  0.700   3.3
    8    -386.2393805680372338    -7.10e-03  1.40e-03  3.63e-02  5.19e-02  0.000   3.1
                              *** Initializing SOSCF ***
---------------------------------------S-O-S-C-F--------------------------------------
Iteration    Energy (Eh)           Delta-E    RMSDP     MaxDP     MaxGrad    Time(sec)
--------------------------------------------------------------------------------------
    9    -386.2559884302466457    -1.66e-02  1.34e-05  4.07e-04  2.05e-04     3.2
               *** Restarting incremental Fock matrix formation ***
   10    -386.2559885320075068    -1.02e-07  7.88e-06  2.09e-04  5.78e-05     3.6
                  *** Gradient check signals convergence ***

               *****************************************************
               *                     SUCCESS                       *
               *           SCF CONVERGED AFTER  10 CYCLES          *
               *****************************************************


SMD CDS free energy correction energy :                 5.08528     Kcal/mol
Total Energy after SMD CDS correction =              -386.247884627 Eh
             **** ENERGY FILE WAS UPDATED (sp_solv.en.tmp) ****

----------------
TOTAL SCF ENERGY
----------------

Total Energy       :       -386.24788462660763 Eh          -10510.33928 eV

Components:
Nuclear Repulsion  :        388.13635896912768 Eh           10561.72728 eV
Electronic Energy  :       -774.37533510435685 Eh          -21071.82414 eV
One Electron Energy:      -1293.50638884580280 Eh          -35198.09828 eV
Two Electron Energy:        519.13105374144595 Eh           14126.27414 eV
CPCM Dielectric    :         -0.01701239677836 Eh              -0.46293 eV
SMD CDS (Gcds)     :          0.00810390539988 Eh               0.22052 eV

Virial components:
Potential Energy   :       -770.88716749521564 Eh          -20976.90627 eV
Kinetic Energy     :        384.63928286860806 Eh           10466.56700 eV
Virial Ratio       :          2.00418210471381

DFT components:
N(Alpha)           :       32.000016262051 electrons
N(Beta)            :       32.000016262051 electrons
N(Total)           :       64.000032524103 electrons
E(X)               :      -52.085449958574 Eh       
E(C)               :       -2.037245456826 Eh       
E(XC)              :      -54.122695415400 Eh       

CPCM Solvation Model Properties:
Surface-charge          :         -0.04839422458670
Corrected charge        :          0.00000000000000
Outlying charge corr.   :          0.00017480752621 Eh               0.00476 eV
Free-energy (cav+disp)  :          0.00810390539988 Eh               0.22052 eV

---------------
SCF CONVERGENCE
---------------

  Last Energy change         ...    1.0176e-07  Tolerance :   1.0000e-06
  Last MAX-Density change    ...    2.0885e-04  Tolerance :   1.0000e-05
  Last RMS-Density change    ...    7.8828e-06  Tolerance :   1.0000e-06
  Last DIIS Error            ...    2.0548e-04  Tolerance :   1.0000e-06
  Last Orbital Gradient      ...    5.7755e-05  Tolerance :   3.3300e-04
  Last Orbital Rotation      ...    1.2918e-04  Tolerance :   3.3300e-04


----------------
ORBITAL ENERGIES
----------------

  NO   OCC          E(Eh)            E(eV) 
   0   2.0000     -19.003170      -517.1025 
   1   2.0000     -18.941391      -515.4215 
   2   2.0000     -10.161912      -276.5197 
   3   2.0000     -10.084424      -274.4111 
   4   2.0000     -10.035980      -273.0929 
   5   2.0000     -10.024713      -272.7863 
   6   2.0000     -10.018878      -272.6275 
   7   2.0000     -10.010486      -272.3992 
   8   2.0000      -1.080080       -29.3905 
   9   2.0000      -0.986442       -26.8424 
  10   2.0000      -0.769658       -20.9435 
  11   2.0000      -0.733486       -19.9592 
  12   2.0000      -0.673668       -18.3314 
  13   2.0000      -0.606297       -16.4982 
  14   2.0000      -0.562836       -15.3155 
  15   2.0000      -0.533636       -14.5210 
  16   2.0000      -0.468188       -12.7400 
  17   2.0000      -0.458937       -12.4883 
  18   2.0000      -0.448561       -12.2060 
  19   2.0000      -0.430616       -11.7177 
  20   2.0000      -0.393810       -10.7161 
  21   2.0000      -0.380263       -10.3475 
  22   2.0000      -0.367111        -9.9896 
  23   2.0000      -0.353787        -9.6270 
  24   2.0000      -0.348877        -9.4934 
  25   2.0000      -0.331625        -9.0240 
  26   2.0000      -0.323278        -8.7968 
  27   2.0000      -0.319529        -8.6948 
  28   2.0000      -0.305209        -8.3052 
  29   2.0000      -0.294927        -8.0254 
  30   2.0000      -0.277736        -7.5576 
  31   2.0000      -0.246827        -6.7165 
  32   0.0000      -0.021068        -0.5733 
  33   0.0000       0.077346         2.1047 
  34   0.0000       0.104294         2.8380 
  35   0.0000       0.113564         3.0902 
  36   0.0000       0.126053         3.4301 
  37   0.0000       0.138483         3.7683 
  38   0.0000       0.144684         3.9371 
  39   0.0000       0.149604         4.0709 
  40   0.0000       0.159723         4.3463 
  41   0.0000       0.161153         4.3852 
  42   0.0000       0.173649         4.7252 
*Only the first 10 virtual orbitals were printed.

                    ********************************
                    * MULLIKEN POPULATION ANALYSIS *
                    ********************************

-----------------------
MULLIKEN ATOMIC CHARGES
-----------------------
   0 C :   -0.514658
   1 C :   -0.238395
   2 C :   -0.351596
   3 C :    0.405286
   4 O :   -0.510612
   5 O :   -0.156995
   6 C :   -0.149498
   7 C :   -0.493607
   8 H :    0.159571
   9 H :    0.156491
  10 H :    0.156272
  11 H :    0.157408
  12 H :    0.156408
  13 H :    0.200283
  14 H :    0.180914
  15 H :    0.171727
  16 H :    0.171331
  17 H :    0.169327
  18 H :    0.165347
  19 H :    0.164994
Sum of atomic charges:   -0.0000000

--------------------------------
MULLIKEN REDUCED ORBITAL CHARGES
--------------------------------
  0 C s       :     3.349089  s :     3.349089
      pz      :     1.083629  p :     3.138593
      px      :     0.943852
      py      :     1.111112
      dz2     :     0.005709  d :     0.026976
      dxz     :     0.006254
      dyz     :     0.002773
      dx2y2   :     0.007192
      dxy     :     0.005048

  1 C s       :     3.211731  s :     3.211731
      pz      :     1.095780  p :     2.989904
      px      :     0.962106
      py      :     0.932017
      dz2     :     0.006656  d :     0.036761
      dxz     :     0.006639
      dyz     :     0.006373
      dx2y2   :     0.009451
      dxy     :     0.007643

  2 C s       :     3.274454  s :     3.274454
      pz      :     1.117256  p :     3.042173
      px      :     0.938541
      py      :     0.986376
      dz2     :     0.006372  d :     0.034968
      dxz     :     0.003931
      dyz     :     0.007506
      dx2y2   :     0.009959
      dxy     :     0.007200

  3 C s       :     3.142897  s :     3.142897
      pz      :     0.735142  p :     2.326884
      px      :     0.827252
      py      :     0.764490
      dz2     :     0.012169  d :     0.124933
      dxz     :     0.014112
      dyz     :     0.022654
      dx2y2   :     0.034727
      dxy     :     0.041271

  4 O s       :     3.832070  s :     3.832070
      pz      :     1.480682  p :     4.656675
      px      :     1.775661
      py      :     1.400332
      dz2     :     0.004263  d :     0.021866
      dxz     :     0.001521
      dyz     :     0.006511
      dx2y2   :     0.005476
      dxy     :     0.004096

  5 O s       :     3.701743  s :     3.701743
      pz      :     1.721066  p :     4.417917
      px      :     1.157733
      py      :     1.539117
      dz2     :     0.004017  d :     0.037336
      dxz     :     0.007826
      dyz     :     0.007562
      dx2y2   :     0.004918
      dxy     :     0.013012

  6 C s       :     3.284531  s :     3.284531
      pz      :     1.096137  p :     2.811523
      px      :     0.685725
      py      :     1.029661
      dz2     :     0.010257  d :     0.053443
      dxz     :     0.009021
      dyz     :     0.007435
      dx2y2   :     0.015773
      dxy     :     0.010957

  7 C s       :     3.340483  s :     3.340483
      pz      :     1.088876  p :     3.127499
      px      :     1.068863
      py      :     0.969760
      dz2     :     0.006621  d :     0.025624
      dxz     :     0.001875
      dyz     :     0.005966
      dx2y2   :     0.006241
      dxy     :     0.004920

  8 H s       :     0.822050  s :     0.822050
      pz      :     0.003760  p :     0.018379
      px      :     0.003976
      py      :     0.010643

  9 H s       :     0.825215  s :     0.825215
      pz      :     0.009878  p :     0.018294
      px      :     0.004001
      py      :     0.004415

 10 H s       :     0.825438  s :     0.825438
      pz      :     0.006773  p :     0.018289
      px      :     0.006050
      py      :     0.005466

 11 H s       :     0.824659  s :     0.824659
      pz      :     0.009781  p :     0.017933
      px      :     0.003805
      py      :     0.004346

 12 H s       :     0.825528  s :     0.825528
      pz      :     0.006714  p :     0.018063
      px      :     0.005964
      py      :     0.005385

 13 H s       :     0.781510  s :     0.781510
      pz      :     0.010049  p :     0.018207
      px      :     0.003779
      py      :     0.004378

 14 H s       :     0.801151  s :     0.801151
      pz      :     0.006587  p :     0.017935
      px      :     0.005767
      py      :     0.005582

 15 H s       :     0.810732  s :     0.810732
      pz      :     0.011290  p :     0.017541
      px      :     0.002350
      py      :     0.003901

 16 H s       :     0.811138  s :     0.811138
      pz      :     0.005754  p :     0.017530
      px      :     0.003023
      py      :     0.008753

 17 H s       :     0.812186  s :     0.812186
      pz      :     0.003847  p :     0.018487
      px      :     0.011091
      py      :     0.003549

 18 H s       :     0.816341  s :     0.816341
      pz      :     0.010686  p :     0.018313
      px      :     0.003741
      py      :     0.003886

 19 H s       :     0.816690  s :     0.816690
      pz      :     0.005850  p :     0.018316
      px      :     0.004321
      py      :     0.008144


------------------------
MULLIKEN OVERLAP CHARGES
------------------------
B(  0-C ,  1-C ) :   0.4508 B(  0-C ,  2-C ) :  -0.1944 B(  0-C ,  8-H ) :   0.8053 
B(  0-C ,  9-H ) :   0.8615 B(  0-C , 10-H ) :   0.8455 B(  0-C , 11-H ) :  -0.0530 
B(  0-C , 12-H ) :  -0.0544 B(  1-C ,  2-C ) :   0.3428 B(  1-C ,  3-C ) :  -0.0764 
B(  1-C ,  5-O ) :   0.0882 B(  1-C ,  8-H ) :  -0.0780 B(  1-C ,  9-H ) :  -0.0995 
B(  1-C , 10-H ) :  -0.0821 B(  1-C , 11-H ) :   0.8467 B(  1-C , 12-H ) :   0.8252 
B(  1-C , 13-H ) :  -0.0544 B(  1-C , 14-H ) :  -0.0825 B(  2-C ,  3-C ) :   0.5298 
B(  2-C ,  4-O ) :  -0.1592 B(  2-C ,  5-O ) :  -0.1523 B(  2-C , 11-H ) :  -0.0796 
B(  2-C , 13-H ) :   0.7512 B(  2-C , 14-H ) :   0.9112 B(  3-C ,  4-O ) :   0.9936 
B(  3-C ,  5-O ) :   0.4539 B(  3-C ,  6-C ) :  -0.1828 B(  3-C , 14-H ) :  -0.1263 
B(  4-O ,  5-O ) :  -0.2279 B(  5-O ,  6-C ) :   0.2710 B(  5-O ,  7-C ) :  -0.1046 
B(  5-O , 15-H ) :  -0.0690 B(  5-O , 16-H ) :  -0.0663 B(  6-C ,  7-C ) :   0.4518 
B(  6-C , 15-H ) :   0.8104 B(  6-C , 16-H ) :   0.8162 B(  6-C , 17-H ) :  -0.0662 
B(  6-C , 18-H ) :  -0.0668 B(  6-C , 19-H ) :  -0.0669 B(  7-C , 17-H ) :   0.8120 
B(  7-C , 18-H ) :   0.8310 B(  7-C , 19-H ) :   0.8297 B(  9-H , 10-H ) :  -0.0533 
B( 15-H , 16-H ) :  -0.0676 B( 18-H , 19-H ) :  -0.0503 


                     *******************************
                     * LOEWDIN POPULATION ANALYSIS *
                     *******************************

----------------------
LOEWDIN ATOMIC CHARGES
----------------------
   0 C :   -0.427520
   1 C :   -0.295296
   2 C :   -0.227280
   3 C :    0.370113
   4 O :   -0.496128
   5 O :   -0.605457
   6 C :    0.038062
   7 C :   -0.389720
   8 H :    0.154980
   9 H :    0.154396
  10 H :    0.154343
  11 H :    0.160411
  12 H :    0.164978
  13 H :    0.195030
  14 H :    0.185922
  15 H :    0.184777
  16 H :    0.184509
  17 H :    0.168479
  18 H :    0.162634
  19 H :    0.162766

-------------------------------
LOEWDIN REDUCED ORBITAL CHARGES
-------------------------------
  0 C s       :     2.972640  s :     2.972640
      pz      :     1.156749  p :     3.391955
      px      :     1.079026
      py      :     1.156181
      dz2     :     0.014122  d :     0.062925
      dxz     :     0.013788
      dyz     :     0.007001
      dx2y2   :     0.017267
      dxy     :     0.010747

  1 C s       :     2.933533  s :     2.933533
      pz      :     1.147409  p :     3.281911
      px      :     1.078834
      py      :     1.055668
      dz2     :     0.015518  d :     0.079852
      dxz     :     0.013708
      dyz     :     0.013905
      dx2y2   :     0.021383
      dxy     :     0.015337

  2 C s       :     2.922462  s :     2.922462
      pz      :     1.139715  p :     3.231289
      px      :     1.009854
      py      :     1.081721
      dz2     :     0.014128  d :     0.073529
      dxz     :     0.008883
      dyz     :     0.014718
      dx2y2   :     0.020717
      dxy     :     0.015084

  3 C s       :     2.736640  s :     2.736640
      pz      :     0.731130  p :     2.621921
      px      :     0.969073
      py      :     0.921718
      dz2     :     0.025803  d :     0.271326
      dxz     :     0.026400
      dyz     :     0.049034
      dx2y2   :     0.077573
      dxy     :     0.092516

  4 O s       :     3.546434  s :     3.546434
      pz      :     1.480319  p :     4.733823
      px      :     1.744715
      py      :     1.508789
      dz2     :     0.028079  d :     0.215871
      dxz     :     0.020290
      dyz     :     0.045885
      dx2y2   :     0.055150
      dxy     :     0.066465

  5 O s       :     3.459106  s :     3.459106
      pz      :     1.694330  p :     4.654286
      px      :     1.357602
      py      :     1.602354
      dz2     :     0.063860  d :     0.492065
      dxz     :     0.094062
      dyz     :     0.046234
      dx2y2   :     0.135803
      dxy     :     0.152106

  6 C s       :     2.868413  s :     2.868413
      pz      :     1.096768  p :     2.973832
      px      :     0.805591
      py      :     1.071473
      dz2     :     0.024038  d :     0.119692
      dxz     :     0.019603
      dyz     :     0.015727
      dx2y2   :     0.034164
      dxy     :     0.026161

  7 C s       :     2.971084  s :     2.971084
      pz      :     1.153287  p :     3.358662
      px      :     1.120713
      py      :     1.084662
      dz2     :     0.016076  d :     0.059975
      dxz     :     0.003959
      dyz     :     0.013891
      dx2y2   :     0.015468
      dxy     :     0.010582

  8 H s       :     0.801116  s :     0.801116
      pz      :     0.008271  p :     0.043903
      px      :     0.009033
      py      :     0.026599

  9 H s       :     0.801810  s :     0.801810
      pz      :     0.024620  p :     0.043794
      px      :     0.009057
      py      :     0.010117

 10 H s       :     0.801863  s :     0.801863
      pz      :     0.016522  p :     0.043794
      px      :     0.014342
      py      :     0.012930

 11 H s       :     0.796255  s :     0.796255
      pz      :     0.024401  p :     0.043334
      px      :     0.008985
      py      :     0.009948

 12 H s       :     0.791321  s :     0.791321
      pz      :     0.016527  p :     0.043701
      px      :     0.014560
      py      :     0.012613

 13 H s       :     0.759956  s :     0.759956
      pz      :     0.025567  p :     0.045014
      px      :     0.008777
      py      :     0.010670

 14 H s       :     0.770210  s :     0.770210
      pz      :     0.016456  p :     0.043868
      px      :     0.013417
      py      :     0.013995

 15 H s       :     0.773879  s :     0.773879
      pz      :     0.027161  p :     0.041345
      px      :     0.005324
      py      :     0.008860

 16 H s       :     0.774132  s :     0.774132
      pz      :     0.013928  p :     0.041359
      px      :     0.006665
      py      :     0.020766

 17 H s       :     0.787111  s :     0.787111
      pz      :     0.008666  p :     0.044411
      px      :     0.027592
      py      :     0.008153

 18 H s       :     0.793529  s :     0.793529
      pz      :     0.026812  p :     0.043838
      px      :     0.008393
      py      :     0.008633

 19 H s       :     0.793396  s :     0.793396
      pz      :     0.014146  p :     0.043837
      px      :     0.010043
      py      :     0.019648


---------------------------------
LOEWDIN BOND ORDERS (THRESH 0.050000)
---------------------------------
B(  0-C ,  1-C ) :   1.1419 B(  0-C ,  2-C ) :   0.0762 B(  0-C ,  8-H ) :   0.9280 
B(  0-C ,  9-H ) :   0.9280 B(  0-C , 10-H ) :   0.9270 B(  1-C ,  2-C ) :   1.0790 
B(  1-C ,  3-C ) :   0.0711 B(  1-C ,  5-O ) :   0.0669 B(  1-C , 11-H ) :   0.8908 
B(  1-C , 12-H ) :   0.8833 B(  2-C ,  3-C ) :   0.9351 B(  2-C ,  4-O ) :   0.1898 
B(  2-C ,  5-O ) :   0.1687 B(  2-C , 13-H ) :   0.8527 B(  2-C , 14-H ) :   0.8636 
B(  3-C ,  4-O ) :   2.1311 B(  3-C ,  5-O ) :   1.4699 B(  3-C ,  6-C ) :   0.0904 
B(  4-O ,  5-O ) :   0.4597 B(  4-O ,  6-C ) :   0.0735 B(  5-O ,  6-C ) :   1.2874 
B(  5-O ,  7-C ) :   0.1692 B(  5-O , 15-H ) :   0.0940 B(  5-O , 16-H ) :   0.0935 
B(  6-C ,  7-C ) :   1.0913 B(  6-C , 15-H ) :   0.8214 B(  6-C , 16-H ) :   0.8218 
B(  7-C , 17-H ) :   0.9153 B(  7-C , 18-H ) :   0.9211 B(  7-C , 19-H ) :   0.9208 


------------------------------------------
LOEWDIN REDUCED ORBITAL POPULATIONS PER MO
-------------------------------------------
THRESHOLD FOR PRINTING IS 0.1%%
                      0         1         2         3         4         5   
                 -19.00317 -18.94139 -10.16191 -10.08442 -10.03598 -10.02471
                   2.00000   2.00000   2.00000   2.00000   2.00000   2.00000
                  --------  --------  --------  --------  --------  --------
 1 C  s               0.0       0.0       0.0       0.0       0.0      99.7
 2 C  s               0.0       0.0       0.0       0.0      99.7       0.0
 3 C  s               0.0       0.0      98.9       0.0       0.0       0.0
 4 O  s               0.0      99.9       0.0       0.0       0.0       0.0
 4 O  py              0.0       0.0       0.2       0.0       0.0       0.0
 4 O  dx2y2           0.0       0.0       0.1       0.0       0.0       0.0
 5 O  s              99.9       0.0       0.0       0.0       0.0       0.0
 5 O  px              0.0       0.0       0.1       0.1       0.0       0.0
 5 O  dx2y2           0.0       0.0       0.0       0.2       0.0       0.0
 5 O  dxy             0.0       0.0       0.2       0.0       0.0       0.0
 6 C  s               0.0       0.0       0.0      99.4       0.0       0.0

                      6         7         8         9        10        11   
                 -10.01888 -10.01049  -1.08008  -0.98644  -0.76966  -0.73349
                   2.00000   2.00000   2.00000   2.00000   2.00000   2.00000
                  --------  --------  --------  --------  --------  --------
 0 C  s               0.0      99.7       0.0       0.0       6.7       6.8
 0 C  px              0.0       0.0       0.0       0.0       1.9       0.9
 0 C  py              0.0       0.0       0.0       0.0       0.2       0.1
 1 C  s               0.0       0.0       0.1       0.0      17.1       8.5
 1 C  px              0.0       0.1       0.2       0.0       0.0       0.9
 1 C  py              0.0       0.0       0.1       0.0       1.7       0.0
 2 C  s               0.0       0.0       1.0       0.2      19.6       2.5
 2 C  px              0.0       0.0       1.9       0.1       0.1       1.0
 2 C  py              0.0       0.0       0.0       0.3       1.6       0.8
 3 C  s               0.0       0.0      16.6       3.4       3.3       0.8
 3 C  pz              0.0       0.0       0.0       2.6       0.6       0.2
 3 C  px              0.0       0.0       4.8       0.1       6.1       0.7
 3 C  py              0.0       0.0       0.2      20.7       2.5       1.5
 3 C  dz2             0.0       0.0       0.4       0.0       0.0       0.0
 3 C  dxz             0.0       0.0       0.0       0.1       0.0       0.0
 3 C  dyz             0.0       0.0       0.3       0.2       0.0       0.0
 3 C  dx2y2           0.0       0.0       0.2       0.4       0.1       0.0
 3 C  dxy             0.0       0.0       0.2       1.2       0.0       0.1
 4 O  s               0.0       0.0      13.5      41.8       1.2       0.2
 4 O  pz              0.0       0.0       0.4       0.4       0.1       0.0
 4 O  px              0.0       0.0       0.1       0.5       0.3       0.0
 4 O  py              0.0       0.0       2.7       2.3       0.2       0.1
 4 O  dz2             0.0       0.0       0.2       0.0       0.0       0.0
 4 O  dyz             0.0       0.0       0.5       0.0       0.1       0.0
 4 O  dx2y2           0.0       0.0       0.7       0.1       0.0       0.2
 4 O  dxy             0.0       0.0       0.0       0.2       0.4       0.0
 5 O  s               0.0       0.0      40.2      17.7       0.0       1.0
 5 O  pz              0.0       0.0       0.3       0.0       0.0       0.0
 5 O  px              0.0       0.0       0.0       0.5       7.7       8.4
 5 O  py              0.0       0.0       2.6       0.5       0.3       1.1
 5 O  dz2             0.0       0.0       0.4       0.0       0.0       0.5
 5 O  dyz             0.0       0.0       0.2       0.2       0.0       0.0
 5 O  dx2y2           0.0       0.0       0.0       0.9       0.0       1.4
 5 O  dxy             0.0       0.0       0.3       0.2       0.2       0.1
 6 C  s               0.0       0.0       4.1       1.9       5.9      16.1
 6 C  pz              0.0       0.0       0.1       0.1       0.1       0.1
 6 C  px              0.0       0.0       5.2       1.5       0.1       1.5
 6 C  py              0.1       0.0       0.0       0.3       0.4       1.8
 6 C  dx2y2           0.0       0.0       0.3       0.1       0.0       0.0
 7 C  s              99.7       0.0       0.3       0.2       3.4      18.6
 7 C  pz              0.0       0.0       0.0       0.0       0.0       0.1
 7 C  px              0.0       0.0       0.3       0.2       0.3       0.4
 7 C  py              0.0       0.0       0.3       0.1       0.5       1.3
 8 H  s               0.0       0.0       0.0       0.0       0.8       1.0
 9 H  s               0.0       0.0       0.0       0.0       0.9       1.0
10 H  s               0.0       0.0       0.0       0.0       0.9       1.0
11 H  s               0.0       0.0       0.0       0.0       2.2       1.2
11 H  pz              0.0       0.0       0.0       0.0       0.2       0.1
12 H  s               0.0       0.0       0.0       0.0       2.3       1.1
13 H  s               0.0       0.0       0.0       0.0       2.7       0.4
13 H  pz              0.0       0.0       0.0       0.0       0.2       0.0
14 H  s               0.0       0.0       0.1       0.0       2.6       0.5
15 H  s               0.0       0.0       0.3       0.1       0.8       2.5
15 H  pz              0.0       0.0       0.0       0.0       0.1       0.2
16 H  s               0.0       0.0       0.3       0.1       0.8       2.5
16 H  py              0.0       0.0       0.0       0.0       0.1       0.2
17 H  s               0.0       0.0       0.0       0.0       0.4       3.0
17 H  px              0.0       0.0       0.0       0.0       0.0       0.3
18 H  s               0.0       0.0       0.0       0.0       0.5       2.9
18 H  pz              0.0       0.0       0.0       0.0       0.0       0.2
19 H  s               0.0       0.0       0.0       0.0       0.5       2.9
19 H  py              0.0       0.0       0.0       0.0       0.0       0.2

                     12        13        14        15        16        17   
                  -0.67367  -0.60630  -0.56284  -0.53364  -0.46819  -0.45894
                   2.00000   2.00000   2.00000   2.00000   2.00000   2.00000
                  --------  --------  --------  --------  --------  --------
 0 C  s              20.4       3.5      10.1       0.1       0.1       0.1
 0 C  pz              0.0       0.0       0.4       0.0       0.7       0.0
 0 C  px              0.1       0.5       8.3       0.2       0.3       0.0
 0 C  py              0.1       0.2       0.0       0.1       0.4       4.0
 0 C  dx2y2           0.0       0.0       0.1       0.0       0.0       0.0
 1 C  s               3.2       0.4      15.3       0.6       0.0       0.2
 1 C  pz              0.1       0.0       0.4       0.1       3.8       0.0
 1 C  px              5.6       0.6       6.0       0.2       0.1       1.4
 1 C  py              3.9       1.2       1.3       0.6       0.4       8.1
 1 C  dx2y2           0.2       0.1       0.0       0.0       0.0       0.1
 2 C  s              11.0       4.3       1.8       1.1       0.2       1.7
 2 C  pz              0.0       0.0       0.1       0.1      10.1       0.1
 2 C  px              1.7       1.3       0.4       1.3       1.3      15.4
 2 C  py              2.0       0.1       9.6       1.1       0.1       0.5
 2 C  dx2y2           0.1       0.1       0.2       0.0       0.0       0.1
 3 C  s               2.7       1.6       1.2       2.4       0.7       2.1
 3 C  pz              0.4       0.2       0.4       0.0      11.7       2.0
 3 C  px              6.7       1.3       2.1       1.7       2.9       8.0
 3 C  py              0.5       2.0       0.1       1.6       0.8       2.4
 3 C  dx2y2           0.1       0.1       0.1       0.0       0.0       0.0
 4 O  s               1.0       0.1       1.3       1.8       1.2       1.9
 4 O  pz              0.1       0.0       0.3       0.2       2.5       3.4
 4 O  px              0.6       0.0       0.7       0.6       3.6       8.9
 4 O  py              0.3       0.3       0.6       3.0       4.0       1.4
 4 O  dz2             0.0       0.0       0.0       0.1       0.4       0.0
 4 O  dyz             0.1       0.0       0.1       0.1       0.4       0.2
 4 O  dx2y2           0.0       0.3       0.0       0.2       0.0       0.1
 4 O  dxy             0.5       0.0       0.1       0.1       0.3       0.6
 5 O  s               0.8       0.0       0.3       5.9       0.0       0.2
 5 O  pz              0.0       0.0       0.0       1.7      15.9       8.3
 5 O  px              1.2      17.4       0.2       5.8       0.1       0.6
 5 O  py              0.1       1.2       0.7      14.0       5.0       2.6
 5 O  dz2             0.2       0.0       0.0       0.2       0.1       0.3
 5 O  dxz             0.0       0.2       0.0       0.1       0.0       0.2
 5 O  dyz             0.0       0.0       0.0       0.0       0.2       0.1
 5 O  dx2y2           0.5       0.4       0.0       0.4       0.1       0.3
 5 O  dxy             0.7       1.0       0.2       0.5       0.4       0.3
 6 C  s               0.6       5.2       1.1       6.8       0.0       0.3
 6 C  pz              0.0       0.2       0.0       2.3      11.0       6.1
 6 C  px              2.0       3.6       0.1       8.4       0.4       0.1
 6 C  py              0.7       3.3       0.6       9.9       3.4       0.2
 6 C  dz2             0.0       0.0       0.0       0.2       0.0       0.0
 6 C  dx2y2           0.1       0.1       0.0       0.2       0.0       0.0
 6 C  dxy             0.1       0.2       0.0       0.1       0.0       0.0
 7 C  s               6.7      16.9       0.5       0.6       0.0       0.3
 7 C  pz              0.0       0.2       0.0       0.7       3.2       0.9
 7 C  px              0.0       1.6       0.0       0.6       0.5       1.3
 7 C  py              0.0       2.4       0.5       3.8       0.2       1.6
 8 H  s               4.3       1.2       3.9       0.0       0.3       1.2
 8 H  py              0.4       0.1       0.3       0.0       0.0       0.0
 9 H  s               4.0       0.9       4.6       0.1       0.1       0.0
 9 H  pz              0.3       0.1       0.3       0.0       0.0       0.0
10 H  s               4.0       0.9       4.6       0.1       0.2       0.1
10 H  pz              0.1       0.0       0.2       0.0       0.0       0.0
10 H  px              0.1       0.0       0.1       0.0       0.0       0.0
11 H  s               0.6       0.1       6.8       0.5       1.0       0.9
11 H  pz              0.0       0.0       0.5       0.0       0.0       0.1
12 H  s               0.6       0.0       6.9       0.3       0.2       1.8
12 H  pz              0.0       0.0       0.3       0.0       0.0       0.1
12 H  px              0.0       0.0       0.1       0.0       0.0       0.0
12 H  py              0.0       0.0       0.1       0.0       0.0       0.0
13 H  s               2.5       1.4       1.5       0.8       3.7       1.7
13 H  pz              0.2       0.1       0.1       0.1       0.1       0.1
14 H  s               2.3       1.7       1.5       1.2       0.2       2.8
14 H  pz              0.1       0.1       0.1       0.0       0.0       0.1
14 H  px              0.1       0.0       0.1       0.0       0.0       0.0
14 H  py              0.0       0.0       0.0       0.0       0.0       0.1
15 H  s               0.1       1.7       0.5       7.3       2.2       1.2
15 H  pz              0.0       0.1       0.0       0.5       0.1       0.0
16 H  s               0.1       1.7       0.6       7.1       3.3       0.8
16 H  pz              0.0       0.1       0.0       0.3       0.0       0.0
16 H  py              0.0       0.1       0.0       0.2       0.1       0.1
17 H  s               1.5       5.8       0.2       0.0       0.1       0.8
17 H  px              0.1       0.4       0.0       0.0       0.0       0.0
18 H  s               1.3       5.0       0.2       1.0       0.8       0.0
18 H  pz              0.1       0.4       0.0       0.1       0.0       0.0
19 H  s               1.3       5.0       0.3       1.0       0.5       0.9
19 H  pz              0.0       0.1       0.0       0.0       0.0       0.0
19 H  py              0.1       0.2       0.0       0.0       0.0       0.0

                     18        19        20        21        22        23   
                  -0.44856  -0.43062  -0.39381  -0.38026  -0.36711  -0.35379
                   2.00000   2.00000   2.00000   2.00000   2.00000   2.00000
                  --------  --------  --------  --------  --------  --------
 0 C  s               0.2       0.0       0.0       0.0       0.0       0.0
 0 C  pz              0.7       8.2      11.6       0.7       0.1       3.7
 0 C  px              0.9       0.9       0.0       0.4       3.2       2.3
 0 C  py              0.3       0.3       2.1      23.0       0.4       3.8
 1 C  s               0.3       0.0       0.0       0.1       0.0       0.0
 1 C  pz              1.0      17.7       7.8       0.2       0.3       0.0
 1 C  px              1.3       0.6       0.6       0.5       1.7       2.4
 1 C  py              0.0       0.8       2.2       8.2       1.5       1.3
 2 C  s               0.0       0.0       0.0       0.5       0.1       0.0
 2 C  pz              0.6      15.6       0.6       0.1       0.1       3.2
 2 C  px              3.4       0.5       0.0       0.1       4.5       4.1
 2 C  py              0.3       0.0       2.8       6.6       3.8       2.7
 2 C  dz2             0.0       0.0       0.0       0.1       0.0       0.1
 2 C  dxy             0.0       0.0       0.0       0.1       0.0       0.0
 3 C  s               1.1       0.2       0.0       0.2       0.2       0.0
 3 C  pz              0.5       0.6      10.6       1.0       0.3       0.4
 3 C  px              3.8       0.1       0.1       0.3       0.5       3.0
 3 C  py              4.2       1.2       1.2       1.4       0.9       0.2
 3 C  dxz             0.0       0.1       0.0       0.0       0.0       0.0
 3 C  dx2y2           0.2       0.0       0.0       0.3       0.2       0.1
 3 C  dxy             0.0       0.0       0.0       0.1       0.1       0.0
 4 O  s              10.6       1.1       0.1       0.5       0.3       0.0
 4 O  pz              5.0       1.8       8.9       4.4       0.1       0.4
 4 O  px              0.5       0.1       0.4       0.6       2.3       0.9
 4 O  py             27.5       3.1       4.2       2.3       1.2       1.9
 4 O  dz2             0.0       0.0       0.2       0.2       0.0       0.0
 4 O  dxz             0.0       0.1       0.1       0.0       0.0       0.0
 4 O  dyz             0.1       0.0       0.3       0.0       0.0       0.0
 4 O  dx2y2           0.2       0.0       0.1       0.0       0.0       0.1
 5 O  s               1.0       0.1       0.0       0.2       2.8       0.0
 5 O  pz              0.2       2.0       2.1       3.3       0.6       0.8
 5 O  px              7.9       0.5       0.1       1.7       0.9       6.2
 5 O  py              9.6       0.1       1.1       2.8       3.8       1.0
 5 O  dz2             0.0       0.0       0.0       0.1       0.3       0.0
 5 O  dxz             0.2       1.1       1.1       0.0       0.0       0.1
 5 O  dyz             0.0       0.0       0.5       0.1       0.0       0.1
 5 O  dx2y2           0.9       0.0       0.2       0.0       0.3       0.0
 5 O  dxy             0.0       0.2       0.1       0.4       0.2       0.6
 6 C  s               0.7       0.0       0.0       0.1       0.1       0.2
 6 C  pz              1.7       7.7       5.4       0.0       0.0       0.3
 6 C  px              3.8       0.7       0.2       2.6       2.8       4.6
 6 C  py              0.2       1.7       0.2       4.6       0.5       6.4
 6 C  dxz             0.0       0.0       0.1       0.0       0.0       0.1
 6 C  dx2y2           0.1       0.0       0.0       0.1       0.1       0.2
 7 C  s               0.3       0.0       0.0       0.1       0.0       0.1
 7 C  pz              1.5       4.1      10.3       4.0       2.5       2.0
 7 C  px              0.1       0.3       0.0       2.3      21.9      17.9
 7 C  py              2.1       1.2       2.3       3.1      11.4       5.6
 7 C  dz2             0.0       0.0       0.0       0.0       0.2       0.0
 7 C  dx2y2           0.0       0.0       0.0       0.0       0.2       0.2
 7 C  dxy             0.0       0.0       0.0       0.0       0.0       0.1
 8 H  s               0.4       0.0       0.9       8.7       0.0       1.4
 8 H  py              0.0       0.0       0.0       0.1       0.0       0.0
 9 H  s               0.5       1.5       5.1       0.3       0.1       3.8
 9 H  pz              0.0       0.0       0.1       0.0       0.0       0.1
 9 H  py              0.0       0.0       0.0       0.1       0.0       0.0
10 H  s               0.0       2.4       0.7       4.4       1.2       0.2
11 H  s               0.4       3.1       3.4       0.1       0.1       0.0
12 H  s               0.2       4.4       0.7       1.3       0.1       0.1
12 H  px              0.0       0.1       0.0       0.0       0.0       0.0
13 H  s               0.0       4.1       0.8       0.7       0.1       3.7
14 H  s               1.0       3.3       0.1       1.9       2.7       0.5
15 H  s               1.8       1.6       1.6       0.0       0.1       0.0
16 H  s               0.1       2.9       1.3       0.3       0.1       0.2
17 H  s               0.1       0.0       0.1       0.7      13.4       9.2
17 H  px              0.0       0.0       0.0       0.0       0.3       0.1
17 H  py              0.0       0.0       0.0       0.0       0.0       0.1
18 H  s               1.2       0.8       2.9       2.3       4.6       1.2
18 H  pz              0.1       0.0       0.0       0.0       0.2       0.0
18 H  px              0.0       0.0       0.0       0.0       0.1       0.1
19 H  s               0.2       1.5       3.4       0.0       5.4       0.7
19 H  pz              0.0       0.0       0.0       0.0       0.2       0.0
19 H  px              0.0       0.0       0.0       0.0       0.0       0.2

                     24        25        26        27        28        29   
                  -0.34888  -0.33163  -0.32328  -0.31953  -0.30521  -0.29493
                   2.00000   2.00000   2.00000   2.00000   2.00000   2.00000
                  --------  --------  --------  --------  --------  --------
 0 C  s               0.0       0.3       0.1       0.2       0.2       0.0
 0 C  pz             12.8       0.4       8.0       0.1       0.6       9.4
 0 C  px              4.6      16.2       2.4       4.6       3.1       1.1
 0 C  py              0.1       9.1       0.1       0.5      12.2       0.1
 0 C  dz2             0.0       0.0       0.1       0.0       0.2       0.1
 0 C  dxz             0.1       0.0       0.0       0.0       0.0       0.4
 0 C  dyz             0.1       0.0       0.0       0.0       0.0       0.1
 0 C  dx2y2           0.0       0.4       0.0       0.0       0.1       0.0
 0 C  dxy             0.0       0.0       0.0       0.0       0.4       0.0
 1 C  s               0.0       0.2       0.0       0.3       0.3       0.0
 1 C  pz              0.4       0.5       2.7       0.0       1.0      20.5
 1 C  px              1.4      15.8       3.3       4.6       3.3       1.9
 1 C  py              0.2       2.1       0.0       1.4      15.5       0.2
 1 C  dz2             0.0       0.0       0.1       0.0       0.3       0.1
 1 C  dxz             0.1       0.0       0.0       0.0       0.0       0.4
 1 C  dyz             0.1       0.0       0.0       0.0       0.0       0.4
 1 C  dx2y2           0.0       0.4       0.1       0.0       0.1       0.0
 1 C  dxy             0.0       0.0       0.0       0.2       0.4       0.1
 2 C  s               0.0       0.9       0.0       0.2       0.7       0.0
 2 C  pz             14.9       0.0       2.2       0.0       1.0       7.0
 2 C  px              2.2       0.9       0.4       3.9       0.1       0.2
 2 C  py              1.2       3.5       0.0       2.0      13.2       0.0
 2 C  dz2             0.0       0.0       0.0       0.0       0.1       0.1
 2 C  dyz             0.2       0.0       0.0       0.0       0.0       0.4
 2 C  dx2y2           0.0       0.2       0.0       0.0       0.0       0.0
 2 C  dxy             0.0       0.1       0.0       0.1       0.1       0.0
 3 C  s               0.0       0.2       0.0       0.6       0.0       0.0
 3 C  pz              0.3       0.5       3.4       0.3       0.2       0.2
 3 C  px              0.1       2.5       0.7       0.6       0.2       0.0
 3 C  py              0.2       0.5       0.4       2.1       0.7       0.2
 3 C  dz2             0.0       0.0       0.2       0.0       0.0       0.0
 3 C  dxz             0.3       0.0       0.0       0.0       0.0       0.1
 3 C  dyz             0.0       0.0       0.4       0.1       0.0       0.0
 3 C  dx2y2           0.0       0.0       0.0       0.4       0.1       0.1
 3 C  dxy             0.0       0.3       0.0       0.0       0.3       0.0
 4 O  s               0.0       0.1       0.0       0.4       0.1       0.0
 4 O  pz              0.2       0.3      20.3       0.7       3.0       0.6
 4 O  px              0.0       5.3       1.7       0.1       0.0       0.0
 4 O  py              0.6       4.2       1.8       3.6       0.5       1.0
 4 O  dx2y2           0.0       0.0       0.0       0.4       0.0       0.0
 5 O  s               0.0       0.1       0.0       1.9       0.4       0.2
 5 O  pz              5.3       1.2       2.2       2.5       1.5       0.1
 5 O  px              1.1       0.2       0.0       6.0       0.2       0.3
 5 O  py              1.4       0.1       0.0      14.3       4.1       3.2
 5 O  dz2             0.0       0.1       0.0       0.1       0.0       0.0
 5 O  dxz             0.0       0.1       0.2       0.1       0.1       0.2
 5 O  dx2y2           0.0       0.0       0.0       0.8       0.0       0.0
 5 O  dxy             0.0       0.0       0.0       1.8       0.0       0.0
 6 C  s               0.1       0.0       0.0       0.6       0.1       0.0
 6 C  pz              0.4       3.1       4.3       1.6       1.8       0.4
 6 C  px              0.7       0.2       0.0       1.1       0.0       0.1
 6 C  py              0.1       1.8       2.8      10.6       1.3       1.4
 6 C  dz2             0.0       0.1       0.0       0.2       0.1       0.0
 6 C  dyz             0.0       0.0       0.2       0.0       0.0       0.0
 6 C  dx2y2           0.1       0.0       0.0       0.1       0.0       0.0
 6 C  dxy             0.0       0.1       0.0       0.4       0.1       0.1
 7 C  s               0.0       0.1       0.0       0.5       0.1       0.0
 7 C  pz              6.7       8.0       9.3       1.1       1.2       0.2
 7 C  px              6.9       0.0       0.0       0.3       0.4       0.0
 7 C  py              1.3       1.2       4.1       8.9       1.1       0.8
 7 C  dz2             0.0       0.1       0.1       0.1       0.0       0.0
 7 C  dyz             0.1       0.0       0.2       0.0       0.0       0.0
 7 C  dx2y2           0.1       0.0       0.0       0.0       0.0       0.0
 7 C  dxy             0.0       0.0       0.0       0.1       0.0       0.0
 8 H  s               0.1       7.6       0.0       0.1       7.3       0.0
 8 H  py              0.0       0.1       0.0       0.0       0.1       0.0
 9 H  s               3.4       0.1       4.7       0.0       3.2       5.5
 9 H  px              0.1       0.1       0.0       0.0       0.0       0.0
10 H  s               6.9       0.0       0.8       1.8       3.1       6.6
10 H  pz              0.0       0.0       0.0       0.0       0.1       0.0
10 H  px              0.0       0.1       0.1       0.0       0.0       0.0
10 H  py              0.1       0.1       0.0       0.0       0.0       0.0
11 H  s               0.2       0.3       2.2       0.2       5.4      10.7
11 H  pz              0.0       0.0       0.0       0.0       0.1       0.0
11 H  px              0.0       0.1       0.0       0.0       0.0       0.1
12 H  s               0.0       0.2       0.0       2.8       3.6      12.7
12 H  pz              0.0       0.0       0.0       0.0       0.1       0.0
13 H  s               5.3       0.1       0.6       0.2       2.3       5.0
14 H  s               7.6       0.1       1.2       2.5       0.6       4.2
14 H  py              0.1       0.0       0.0       0.0       0.1       0.0
[...]
 2 C  dxy             3.8       0.0       0.1       0.1       0.0       0.0
 3 C  s               1.3       0.3       4.1       4.2       0.2       0.0
 3 C  pz              0.1       0.1       0.2       1.2       0.0       0.0
 3 C  px              0.4       0.4       3.3       0.5       0.0       0.0
 3 C  py              0.5       1.2       3.1       7.6       0.0       0.0
 3 C  dz2             0.9       0.3       1.5       0.4       0.0       0.0
 3 C  dxz             1.1       0.2       0.7       0.3       0.0       0.0
 3 C  dyz             0.5       0.1       0.9       1.7       0.0       0.0
 3 C  dx2y2           8.8       0.0       1.0       2.0       0.0       0.0
 3 C  dxy             1.9       1.8       7.3       2.4       0.0       0.0
 4 O  s               0.2       1.1       1.2      18.1       0.0       0.0
 4 O  pz              0.1       0.1       0.1       2.6       0.0       0.0
 4 O  px              2.0       0.1       0.4       2.2       0.0       0.0
 4 O  py              1.6       0.6       0.8      16.5       0.0       0.0
 4 O  dz2             0.2       0.0       0.6       2.9       0.0       0.0
 4 O  dxz             1.1       0.0       0.4       1.1       0.0       0.0
 4 O  dyz             0.9       0.4       0.3       9.2       0.0       0.0
 4 O  dx2y2           2.8       1.2       0.1      11.9       0.0       0.0
 4 O  dxy             8.8       0.1       1.1       7.6       0.0       0.0
 5 O  s               3.0      27.3       4.6       0.8       0.0       0.0
 5 O  pz              0.6       1.0       0.4       0.0       0.0       0.0
 5 O  px              0.0       8.9      23.1       1.6       0.0       0.0
 5 O  py              3.0       3.8       8.8       0.1       0.0       0.0
 5 O  dz2             0.0      11.4       1.7       0.5       0.0       0.0
 5 O  dxz             0.0       0.4       2.3       0.2       0.0       0.0
 5 O  dyz             1.2       1.0       1.5       0.0       0.0       0.0
 5 O  dx2y2           2.9      10.8       4.3       1.7       0.0       0.0
 5 O  dxy             1.9       1.2      18.4       0.4       0.0       0.0
 6 C  s               0.6       1.3       0.8       0.2       5.9      11.1
 6 C  pz              0.1       0.2       0.1       0.0       0.0       0.0
 6 C  px              0.0       7.2       2.3       0.5       0.0       0.0
 6 C  py              0.2       0.3       0.1       0.0       0.0       0.0
 6 C  dz2             0.2       3.7       0.6       0.1       0.0       0.0
 6 C  dxz             0.0       0.7       0.2       0.1       0.0       0.0
 6 C  dyz             0.1       0.1       0.0       0.0       0.0       0.0
 6 C  dx2y2           0.0       7.6       2.0       0.6       0.0       0.0
 6 C  dxy             0.3       0.3       0.1       0.1       0.0       0.0
 7 C  s               0.0       0.0       0.0       0.0      12.9      59.9
 7 C  dx2y2           0.1       0.5       0.0       0.0       0.0       0.0
 7 C  dxy             0.1       0.0       0.0       0.0       0.0       0.0
 8 H  py              0.1       0.0       0.0       0.0       0.0       0.0
 9 H  pz              0.3       0.0       0.0       0.0       0.0       0.0
 9 H  py              0.2       0.0       0.0       0.0       0.0       0.0
10 H  pz              0.2       0.0       0.0       0.0       0.0       0.0
10 H  py              0.2       0.0       0.0       0.0       0.0       0.0
11 H  s               0.4       0.0       0.0       0.0       0.0       0.0
11 H  pz              1.3       0.1       0.0       0.0       0.0       0.0
12 H  s               1.3       0.0       0.0       0.0       0.0       0.0
12 H  pz              2.1       0.0       0.0       0.0       0.0       0.0
12 H  px              0.8       0.0       0.0       0.0       0.0       0.0
12 H  py              0.8       0.0       0.0       0.0       0.0       0.0
13 H  s               0.3       0.0       0.0       0.0       0.0       0.0
13 H  pz              1.3       0.0       0.0       0.0       0.0       0.0
14 H  s               2.8       0.0       0.0       0.0       0.0       0.0
14 H  pz              3.6       0.0       0.0       0.1       0.0       0.0
14 H  px              1.5       0.0       0.0       0.0       0.0       0.0
14 H  py              1.6       0.0       0.0       0.0       0.0       0.0
15 H  s               0.1       0.4       0.1       0.0       0.0       0.0
15 H  pz              0.1       0.9       0.1       0.0       0.0       0.0
15 H  px              0.2       0.2       0.1       0.0       0.0       0.0
16 H  s               0.0       0.4       0.1       0.0       0.0       0.0
16 H  pz              0.0       0.5       0.1       0.0       0.0       0.0
16 H  px              0.3       0.1       0.0       0.0       0.0       0.0
16 H  py              0.0       0.5       0.0       0.0       0.0       0.0
17 H  px              0.0       0.2       0.0       0.0       0.0       0.0

                    216       217       218       219       220       221   
                  21.99213  22.01097  22.03086  22.25682  43.65083  43.72284
                   0.00000   0.00000   0.00000   0.00000   0.00000   0.00000
                  --------  --------  --------  --------  --------  --------
 0 C  s              27.9       1.1       5.0       0.0       0.0       0.0
 1 C  s              47.0      39.9       1.8       0.1       0.0       0.0
 2 C  s              11.6      26.0      27.7       1.8       0.0       0.0
 3 C  s               0.3       0.1       6.3      92.1       0.0       0.0
 4 O  s               0.0       0.0       0.1       0.2      96.7       3.2
 4 O  py              0.0       0.0       0.0       0.1       0.0       0.0
 5 O  s               0.0       0.0       0.1       0.1       3.2      96.7
 6 C  s               4.2      17.3      56.7       4.4       0.0       0.0
 7 C  s               8.7      15.5       1.9       0.7       0.0       0.0



                      *****************************
                      * MAYER POPULATION ANALYSIS *
                      *****************************

  NA   - Mulliken gross atomic population
  ZA   - Total nuclear charge
  QA   - Mulliken gross atomic charge
  VA   - Mayer's total valence
  BVA  - Mayer's bonded valence
  FA   - Mayer's free valence

  ATOM       NA         ZA         QA         VA         BVA        FA
  0 C      6.5147     6.0000    -0.5147     3.7836     3.7836    -0.0000
  1 C      6.2384     6.0000    -0.2384     3.6702     3.6702    -0.0000
  2 C      6.3516     6.0000    -0.3516     3.7673     3.7673     0.0000
  3 C      5.5947     6.0000     0.4053     3.8236     3.8236    -0.0000
  4 O      8.5106     8.0000    -0.5106     1.8771     1.8771    -0.0000
  5 O      8.1570     8.0000    -0.1570     1.9580     1.9580     0.0000
  6 C      6.1495     6.0000    -0.1495     3.6446     3.6446    -0.0000
  7 C      6.4936     6.0000    -0.4936     3.8435     3.8435    -0.0000
  8 H      0.8404     1.0000     0.1596     0.9581     0.9581     0.0000
  9 H      0.8435     1.0000     0.1565     0.9602     0.9602     0.0000
 10 H      0.8437     1.0000     0.1563     0.9599     0.9599    -0.0000
 11 H      0.8426     1.0000     0.1574     0.9567     0.9567    -0.0000
 12 H      0.8436     1.0000     0.1564     0.9566     0.9566    -0.0000
 13 H      0.7997     1.0000     0.2003     0.9443     0.9443     0.0000
 14 H      0.8191     1.0000     0.1809     0.9555     0.9555     0.0000
 15 H      0.8283     1.0000     0.1717     0.9451     0.9451    -0.0000
 16 H      0.8287     1.0000     0.1713     0.9456     0.9456    -0.0000
 17 H      0.8307     1.0000     0.1693     0.9580     0.9580    -0.0000
 18 H      0.8347     1.0000     0.1653     0.9568     0.9568    -0.0000
 19 H      0.8350     1.0000     0.1650     0.9570     0.9570    -0.0000

  Mayer bond orders larger than 0.100000
B(  0-C ,  1-C ) :   0.8836 B(  0-C ,  8-H ) :   0.9709 B(  0-C ,  9-H ) :   0.9827 
B(  0-C , 10-H ) :   0.9781 B(  1-C ,  2-C ) :   0.9141 B(  1-C , 11-H ) :   0.9671 
B(  1-C , 12-H ) :   0.9608 B(  2-C ,  3-C ) :   1.0086 B(  2-C , 13-H ) :   0.9177 
B(  2-C , 14-H ) :   0.9792 B(  3-C ,  4-O ) :   1.7584 B(  3-C ,  5-O ) :   1.1141 
B(  5-O ,  6-C ) :   0.7916 B(  6-C ,  7-C ) :   0.9449 B(  6-C , 15-H ) :   0.9448 
B(  6-C , 16-H ) :   0.9466 B(  7-C , 17-H ) :   0.9617 B(  7-C , 18-H ) :   0.9702 
B(  7-C , 19-H ) :   0.9700 

-------
TIMINGS
-------

Total SCF time: 0 days 0 hours 0 min 34 sec 

Total time                  ....      34.138 sec
Sum of individual times     ....      33.555 sec  ( 98.3%)

SCF preparation             ....       0.379 sec  (  1.1%)
Fock matrix formation       ....      31.956 sec  ( 93.6%)
  Startup                   ....       0.075 sec  (  0.2% of F)
  Split-RI-J                ....       5.293 sec  ( 16.6% of F)
  XC integration            ....      20.060 sec  ( 62.8% of F)
    Basis function eval.    ....       3.603 sec  ( 18.0% of XC)
    Density eval.           ....       5.977 sec  ( 29.8% of XC)
    XC-Functional eval.     ....       2.649 sec  ( 13.2% of XC)
    XC-Potential eval.      ....       6.535 sec  ( 32.6% of XC)
  CPCM terms                ....       5.909 sec  ( 18.5% of F)
Diagonalization             ....       0.000 sec  (  0.0%)
Density matrix formation    ....       0.318 sec  (  0.9%)
Total Energy calculation    ....       0.079 sec  (  0.2%)
Population analysis         ....       0.154 sec  (  0.5%)
Orbital Transformation      ....       0.067 sec  (  0.2%)
Orbital Orthonormalization  ....       0.000 sec  (  0.0%)
DIIS solution               ....       0.539 sec  (  1.6%)
  MO trafo                  ....       0.000 sec  (  0.0 % of DIIS)
  Orb grad                  ....       0.000 sec  (  0.0 % of DIIS)
  Energy W gradient         ....       0.000 sec  (  0.0 % of DIIS)
  DIIS error                ....       0.025 sec  (  4.6 % of DIIS)
  DIIS work                 ....       0.452 sec  ( 83.8 % of DIIS)
  Form Q                    ....       0.000 sec  (  0.0 % of DIIS)
  Form QpQm                 ....       0.000 sec  (  0.0 % of DIIS)
  Exp/Cayley                ....       0.000 sec  (  0.0 % of DIIS)
  Orb update                ....       0.000 sec  (  0.0 % of DIIS)
  Wake-sleep                ....       0.027 sec  (  4.9 % of DIIS)
SOSCF solution              ....       0.064 sec  (  0.2%)
  MO trafo                  ....       0.051 sec  ( 79.2 % of SOSCF)
  Orb grad                  ....       0.001 sec  (  0.9 % of SOSCF)
  Rot update                ....       0.000 sec  (  0.1 % of SOSCF)
  Step                      ....       0.013 sec  ( 19.7 % of SOSCF)
Finished LeanSCF after  34.3 sec

Maximum memory used throughout the entire LEANSCF-calculation: 30.3 MB


-------------------------------------------------------------------------------
                          DFT DISPERSION CORRECTION                            
                                                                               
                                DFTD4 V3.4.0                                   
-------------------------------------------------------------------------------
The R2SCAN3C composite method is recognized
Using three-body term ABC
Active option DFTDOPT                   ...         5   

-------------------------   ----------------
Dispersion correction           -0.004899473
-------------------------   ----------------

------------------   -----------------
gCP correction             0.011655104
------------------   -----------------

-------------------------   --------------------
FINAL SINGLE POINT ENERGY      -386.241128995437
-------------------------   --------------------


------------------------------------------------------------------------------
                              ORCA PROPERTY CALCULATIONS
------------------------------------------------------------------------------

GBWName                                 ... sp_solv.gbw
Number of atoms                         ...     20
Number of basis functions               ...    222
Max core memory                         ...   1024 MB

Electric properties:
Dipole moment                           ... YES
Quadrupole moment                       ...  NO
Static polarizability (Dipole/Dipole)   ...  NO
Static polarizability (Dipole/Quad.)    ...  NO
Static polarizability (Quad./Quad.)     ...  NO
Static polarizability (Velocity)        ...  NO

Atomic electric properties:
Dipole moment                           ...  NO
Quadrupole moment                       ...  NO
Static polarizability                   ...  NO

Choice of electric origin               ... Center of mass
Position of electric origin             ...    -0.000013    -0.000024     0.000006

General magnetic properties:
Magnetizability                         ...  NO

EPR properties:
g-Tensor (aka g-matrix)                 ...  NO
Zero-Field splitting spin-orbit         ...  NO
Zero-field splitting spin-spin          ...  NO
Hyperfine couplings                     ...  NO (   0 nuclei)
Quadrupole couplings                    ...  NO (   0 nuclei)
Contact density                         ...  NO (   0 nuclei)

NMR properties:
Chemical shifts                         ...  NO (   0 nuclei)
Spin-rotation constants                 ...  NO (   0 nuclei)
Spin-spin couplings                     ...  NO (   0 nuclei,    0 pairs)

Choice of magnetic origin               ... GIAO
Position of magnetic origin             ...     0.000000     0.000000     0.000000

Properties with geometric perturbations:
SCF Hessian                             ...  NO
IR spectrum                             ...  NO
VCD spectrum                            ...  NO
X-ray spectroscopy properties:
SCF XES/XAS/RIXS spectra                ...  NO


-------------
DIPOLE MOMENT
-------------

Method             : SCF
Type of density    : Electron Density
Multiplicity       :   1
Irrep              :   0
Energy             :  -386.2478846266076289 Eh
Relativity type    : 
Basis              : AO
                                X                 Y                 Z
Electronic contribution:      2.932579414       5.922844476      -1.421139176
Nuclear contribution   :     -2.852050087      -7.114903903       1.861440747
                        -----------------------------------------
Total Dipole Moment    :      0.080529326      -1.192059427       0.440301572
                        -----------------------------------------
Magnitude (a.u.)       :      1.273324830
Magnitude (Debye)      :      3.236534507



--------------------
Rotational spectrum 
--------------------
 
Rotational constants in cm-1:             0.110860             0.035426             0.027711 
Rotational constants in MHz :          3323.506427          1062.047118           830.753975 

Dipole components along the rotational axes: 
x,y,z [a.u.] :    -0.043007    -1.263559     0.151408 
x,y,z [Debye]:    -0.109316    -3.211712     0.384849 

 

Dipole moment calculation done in   0.0 sec 

Maximum memory used throughout the entire PROP-calculation: 13.6 MB

--------------------------------
SUGGESTED CITATIONS FOR THIS RUN
--------------------------------

Below you find a list of papers that are relevant to this ORCA run
We neither can nor want to force you to cite these papers, but we appreciate if you do
You receive ORCA, which is the product of decades of hard work by many enthusiastic individuals, for free
The only thing we kindly ask in return is that you cite our papers,
We deeply appreciate it, if you show your appreciation for ORCA by not just citing the generic ORCA reference.

Please note that relegating all ORCA citations to the supporting information does *not* help us.
SI sections are not indexed - citations you put there will not count into any citation statistics
But we need these citations in order to attract the funding resources that allow us to do what we are doing

Therefore, if you are a happy ORCA user, please consider citing a few of the papers listed below in the main body of your paper

In addition to the list printed below, the program has created the file sp_solv.bibtex that contains the list in bibtex format
You can import this file easily into all common literature databanks and citation aid programs


List of essential papers. We consider these as the minimum necessary citations

  1. Neese,F.
     Software update: the ORCA program system, version 5.0
     WIRES Comput. Molec. Sci., 2022 12(1)e1606
     doi.org/10.1002/wcms.1606
  2. Grimme,S.; Hansen,A.; Ehlert,S.; Mewes,J.
     r2SCAN-3c: A 'Swiss army knife' composite electronic-structure method
     J. Chem. Phys., 2021 154 064103
     doi.org/10.1063/5.0040021

List of papers to cite with high priority. The work reported in these papers was absolutely
necessary for this run to complete.
Our perspective: the developers of density functionals and basis sets usually get cited in chemistry papers
Good! But without the algorithms to do something with them, the functionals or basis sets would not do anything.
Hence, in our opinion, the algorithm design and method developments papers are equally worthy of getting cited

  1. Neese,F.
     An improvement of the resolution of the identity approximation for the formation of the Coulomb matrix
     J. Comp. Chem., 2003 24(14)1740-1747
     doi.org/10.1002/jcc.10318
  2. Garcia-Rates,M.; Neese,F.
     Effect of the Solute Cavity on the Solvation Energy and its Derivatives within the Framework of the Gaussian Charge Scheme
     J. Comput. Chem., 2020 41 922-939
     doi.org/10.1002/jcc.26139
  3. Neese,F.
     The SHARK Integral Generation and Digestion System
     J. Comp. Chem., 2022  1-16
     doi.org/10.1002/jcc.26942
  4. Lehtola,S.; Steigemann,C.; Oliveira,M.; Marques,M.
     Recent developments in Libxc - A comprehensive library of functionals for density functional theory
     Software X, 2018 7 
     doi.org/10.1016/j.softx.2017.11.002
  5. Caldeweyher,E.; Bannwarth,C.; Grimme,S.
     Extension of the D3 dispersion coefficient model
     J. Chem. Phys., 2017 147 034112-XXXX
     doi.org/10.1063/1.4993215
  6. Caldeweyher,E.; Ehlert,S.; Hansen,A.; Neugebauer,H.; Spicher,S.; Bannwarth,C.; Grimme,S.
     A generally applicable atomic-charge dependent London dispersion correction
     J. Chem. Phys., 2019 150 154122-XXXX
     doi.org/10.1063/1.5090222
  7. Caldeweyher,E.; Mewes,J.; Ehlert,S.; Grimme,S.
     Extension and evaluation of the D4 London-dispersion model for periodic systems
     Phys. Chem. Chem. Phys., 2020 22(16)8499-8512
     doi.org/10.1039/D0CP00502A

List of suggested additional citations. These are papers that are important in the 'surrounding' of 
of this run, or papers that preceded the highly important papers. If you like your results we are grateful for a citation.

  1. Neese,F.
     The ORCA program system
     WIRES Comput. Molec. Sci., 2012 2(1)73-78
     doi.org/10.1002/wcms.81
  2. Neese,F.
     Software update: the ORCA program system, version 4.0
     WIRES Comput. Molec. Sci., 2018 8(1)1-6
     doi.org/10.1002/wcms.1327
  3. Neese,F.; Wennmohs,F.; Becker,U.; Riplinger,C.
     The ORCA quantum chemistry program package
     J. Chem. Phys., 2020 152 Art. No. L224108
     doi.org/10.1063/5.0004608

List of optional additional citations

  1. Neese,F.
     Approximate second-order SCF convergence for spin unrestricted wavefunctions
     Chem. Phys. Lett., 2000 325(1-3)93-98
     doi.org/10.1016/s0009-2614(00)00662-x

Timings for individual modules:

Sum of individual times          ...       36.107 sec (=   0.602 min)
Startup calculation              ...        1.335 sec (=   0.022 min)   3.7 %
SCF iterations                   ...       34.640 sec (=   0.577 min)  95.9 %
Property calculations            ...        0.132 sec (=   0.002 min)   0.4 %
                             ****ORCA TERMINATED NORMALLY****
TOTAL RUN TIME: 0 days 0 hours 0 minutes 36 seconds 999 msec
