      -----------------------------------------------------------      
     |                   =====================                   |     
     |                           x T B                           |     
     |                   =====================                   |     
     |                         S. Grimme                         |     
     |          Mulliken Center for Theoretical Chemistry        |     
     |                    University of Bonn                     |     
      -----------------------------------------------------------      

   * xtb version 6.7.1 (edcfbbe) compiled by 'albert@albert-system' on 2024-07-22

   xtb is free software: you can redistribute it and/or modify it under
   the terms of the GNU Lesser General Public License as published by
   the Free Software Foundation, either version 3 of the License, or
   (at your option) any later version.
   
   xtb is distributed in the hope that it will be useful,
   but WITHOUT ANY WARRANTY; without even the implied warranty of
   MERCHANTABILITY or FITNESS FOR A PARTICULAR PURPOSE.  See the
   GNU Lesser General Public License for more details.
   
   Cite this work as:
   * C. Bannwarth, E. Caldeweyher, S. Ehlert, A. Hansen, P. Pracht,
     J. Seibert, S. Spicher, S. Grimme, WIREs Comput. Mol. Sci., 2020, 11,
     e01493. DOI: 10.1002/wcms.1493
   
   for GFN2-xTB:
   * C. Bannwarth, S. Ehlert and S. Grimme., J. Chem. Theory Comput., 2019,
     15, 1652-1671. DOI: 10.1021/acs.jctc.8b01176
   for GFN1-xTB:
   * S. Grimme, C. Bannwarth, P. Shushkov, J. Chem. Theory Comput., 2017,
     13, 1989-2009. DOI: 10.1021/acs.jctc.7b00118
   for GFN0-xTB:
   * P. Pracht, E. Caldeweyher, S. Ehlert, S. Grimme, ChemRxiv, 2019, preprint.
     DOI: 10.26434/chemrxiv.8326202.v1
   for GFN-FF:
   * S. Spicher and S. Grimme, Angew. Chem. Int. Ed., 2020, 59, 15665-15673.
     DOI: 10.1002/anie.202004239
   
   for ALPB and GBSA implicit solvation:
   * S. Ehlert, M. Stahn, S. Spicher, S. Grimme, J. Chem. Theory Comput.,
     2021, 17, 4250-4261. DOI: 10.1021/acs.jctc.1c00471
   
   for ddCOSMO and CPCM-X implicit solvation:
   * M. Stahn, S. Ehlert, S. Grimme, J. Phys. Chem. A,
     2023, XX, XXXX-XXXX. DOI: 10.1021/acs.jpca.3c04382
   
   for DFT-D4:
   * E. Caldeweyher, C. Bannwarth and S. Grimme, J. Chem. Phys., 2017,
     147, 034112. DOI: 10.1063/1.4993215
   * E. Caldeweyher, S. Ehlert, A. Hansen, H. Neugebauer, S. Spicher,
     C. Bannwarth and S. Grimme, J. Chem. Phys., 2019, 150, 154122.
     DOI: 10.1063/1.5090222
   * E. Caldeweyher, J.-M. Mewes, S. Ehlert and S. Grimme, Phys. Chem. Chem. Phys.
     2020, 22, 8499-8512. DOI: 10.1039/D0CP00502A
   
   for sTDA-xTB:
   * S. Grimme and C. Bannwarth, J. Chem. Phys., 2016, 145, 054103.
     DOI: 10.1063/1.4959605
   
   in the mass-spec context:
   * V. Asgeirsson, C. Bauer and S. Grimme, Chem. Sci., 2017, 8, 4879.
     DOI: 10.1039/c7sc00601b
   * J. Koopman and S. Grimme, ACS Omega 2019, 4, 12, 15120-15133.
     DOI: 10.1021/acsomega.9b02011
   
   for metadynamics refer to:
   * S. Grimme, J. Chem. Theory Comput., 2019, 155, 2847-2862
     DOI: 10.1021/acs.jctc.9b00143
   
   for SPH calculations refer to:
   * S. Spicher and S. Grimme, J. Chem. Theory Comput., 2021, 17, 1701-1714
     DOI: 10.1021/acs.jctc.0c01306
   
   for ONIOM refer to:
   * C. Plett, A. Katbashev, S. Ehlert, S. Grimme, M. Bursch,
     Phys. Chem. Chem. Phys., 2023, 25, 17860-17868. DOI: 10.1039/D3CP02178E
   
   for DIPRO refer to:
   * J. Kohn, N. Gildemeister, S. Grimme, D. Fazzi, A. Hansen,
     J. Chem. Phys., 2023, just accepted.
   
   for PTB refer to:
   * S. Grimme, M. Mueller, A. Hansen, J. Chem. Phys., 2023, 158, 124111.
     DOI: 10.1063/5.0137838
   
   with help from (in alphabetical order)
   P. Atkinson, C. Bannwarth, F. Bohle, G. Brandenburg, E. Caldeweyher
   M. Checinski, S. Dohm, S. Ehlert, S. Ehrlich, I. Gerasimov, C. Hölzer
   A. Katbashev, J. Kohn, J. Koopman, C. Lavigne, S. Lehtola, F. März, M. Müller,
   F. Musil, H. Neugebauer, J. Pisarek, C. Plett, P. Pracht, F. Pultar,
   J. Seibert, P. Shushkov, S. Spicher, M. Stahn, M. Steiner, T. Strunk,
   J. Stückrath, T. Rose, and J. Unsleber
   
 * started run on 2025/04/11 at 15:54:36.173     
   ID    Z sym.   atoms
    1    6 C      1-5
    2   17 Cl     6
    3    1 H      7-17

           -------------------------------------------------
          |                Calculation Setup                |
           -------------------------------------------------

          program call               : /srv/scratch/z5358697/.xtb/bin/xtb gas.coord --gfn2 --sp --chrg 0 --norestart --parallel 1
          hostname                   : k124
          coordinate file            : gas.coord
          omp threads                :                     1


           -------------------------------------------------
          |                 G F N 2 - x T B                 |
           -------------------------------------------------

        Reference                      10.1021/acs.jctc.8b01176
      * Hamiltonian:
        H0-scaling (s, p, d)           1.850000    2.230000    2.230000
        zeta-weighting                 0.500000
      * Dispersion:
        s8                             2.700000
        a1                             0.520000
        a2                             5.000000
        s9                             5.000000
      * Repulsion:
        kExp                           1.500000    1.000000
        rExp                           1.000000
      * Coulomb:
        alpha                          2.000000
        third order                    shell-resolved
        anisotropic                    true
        a3                             3.000000
        a5                             4.000000
        cn-shift                       1.200000
        cn-exp                         4.000000
        max-rad                        5.000000


          ...................................................
          :                      SETUP                      :
          :.................................................:
          :  # basis functions                  41          :
          :  # atomic orbitals                  40          :
          :  # shells                           24          :
          :  # electrons                        38          :
          :  max. iterations                   250          :
          :  Hamiltonian                  GFN2-xTB          :
          :  restarted?                      false          :
          :  GBSA solvation                  false          :
          :  PC potential                    false          :
          :  electronic temp.          300.0000000     K    :
          :  accuracy                    1.0000000          :
          :  -> integral cutoff          0.2500000E+02      :
          :  -> integral neglect         0.1000000E-07      :
          :  -> SCF convergence          0.1000000E-05 Eh   :
          :  -> wf. convergence          0.1000000E-03 e    :
          :  Broyden damping             0.4000000          :
          :  net charge                          0          :
          :  unpaired electrons                  0          :
          ...................................................

 iter      E             dE          RMSdq      gap      omega  full diag
   1    -21.0518243 -0.210518E+02  0.304E+00    7.38       0.0  T
   2    -21.1102851 -0.584608E-01  0.165E+00    6.74       1.0  T
   3    -21.1116917 -0.140658E-02  0.874E-01    6.88       1.0  T
   4    -21.1119706 -0.278841E-03  0.148E-01    6.79       1.0  T
   5    -21.1120677 -0.971251E-04  0.731E-02    6.81       1.0  T
   6    -21.1120764 -0.875410E-05  0.316E-02    6.80       1.0  T
   7    -21.1120801 -0.367290E-05  0.237E-02    6.79       1.0  T
   8    -21.1120847 -0.456081E-05  0.110E-02    6.78       2.2  T
   9    -21.1120857 -0.978094E-06  0.425E-03    6.78       5.7  T
  10    -21.1120857 -0.880353E-07  0.866E-04    6.78      28.0  T
  11    -21.1120857 -0.199478E-08  0.576E-04    6.78      42.1  T

   *** convergence criteria satisfied after 11 iterations ***

         #    Occupation            Energy/Eh            Energy/eV
      -------------------------------------------------------------
         1        2.0000           -1.0452881             -28.4437
       ...           ...                  ...                  ...
        13        2.0000           -0.4694408             -12.7741
        14        2.0000           -0.4574706             -12.4484
        15        2.0000           -0.4371231             -11.8947
        16        2.0000           -0.4331735             -11.7873
        17        2.0000           -0.4306556             -11.7187
        18        2.0000           -0.4089630             -11.1285
        19        2.0000           -0.4060654             -11.0496 (HOMO)
        20                         -0.1570643              -4.2739 (LUMO)
        21                          0.0222131               0.6044
        22                          0.0282604               0.7690
        23                          0.0333699               0.9080
        24                          0.0334097               0.9091
       ...                                ...                  ...
        40                          0.3022806               8.2255
      -------------------------------------------------------------
                  HL-Gap            0.2490011 Eh            6.7757 eV
             Fermi-level           -0.2815648 Eh           -7.6618 eV

 SCC (total)                   0 d,  0 h,  0 min,  0.024 sec
 SCC setup                      ...        0 min,  0.000 sec (  0.689%)
 Dispersion                     ...        0 min,  0.000 sec (  0.332%)
 classical contributions        ...        0 min,  0.000 sec (  0.069%)
 integral evaluation            ...        0 min,  0.015 sec ( 60.476%)
 iterations                     ...        0 min,  0.005 sec ( 21.283%)
 molecular gradient             ...        0 min,  0.004 sec ( 16.448%)
 printout                       ...        0 min,  0.000 sec (  0.647%)

         :::::::::::::::::::::::::::::::::::::::::::::::::::::
         ::                     SUMMARY                     ::
         :::::::::::::::::::::::::::::::::::::::::::::::::::::
         :: total energy             -20.868360683075 Eh    ::
         :: gradient norm              0.007059334643 Eh/a0 ::
         :: HOMO-LUMO gap              6.775664266540 eV    ::
         ::.................................................::
         :: SCC energy               -21.112049802371 Eh    ::
         :: -> isotropic ES            0.008278292544 Eh    ::
         :: -> anisotropic ES          0.003151725147 Eh    ::
         :: -> anisotropic XC          0.011204779555 Eh    ::
         :: -> dispersion             -0.010584796417 Eh    ::
         :: repulsion energy           0.243689119296 Eh    ::
         :: add. restraining           0.000000000000 Eh    ::
         :: total charge               0.000000000000 e     ::
         :::::::::::::::::::::::::::::::::::::::::::::::::::::

           -------------------------------------------------
          |                Property Printout                |
           -------------------------------------------------

    * Orbital Energies and Occupations

         #    Occupation            Energy/Eh            Energy/eV
      -------------------------------------------------------------
         1        2.0000           -1.0452881             -28.4437
       ...           ...                  ...                  ...
         7        2.0000           -0.5324104             -14.4876
         8        2.0000           -0.5240939             -14.2613
         9        2.0000           -0.5128135             -13.9544
        10        2.0000           -0.4993730             -13.5886
        11        2.0000           -0.4885790             -13.2949
        12        2.0000           -0.4776370             -12.9972
        13        2.0000           -0.4694408             -12.7741
        14        2.0000           -0.4574706             -12.4484
        15        2.0000           -0.4371231             -11.8947
        16        2.0000           -0.4331735             -11.7873
        17        2.0000           -0.4306556             -11.7187
        18        2.0000           -0.4089630             -11.1285
        19        2.0000           -0.4060654             -11.0496 (HOMO)
        20                         -0.1570643              -4.2739 (LUMO)
        21                          0.0222131               0.6044
        22                          0.0282604               0.7690
        23                          0.0333699               0.9080
        24                          0.0334097               0.9091
        25                          0.0651258               1.7722
        26                          0.0933561               2.5403
        27                          0.1043794               2.8403
        28                          0.1114931               3.0339
        29                          0.1351496               3.6776
        30                          0.1389023               3.7797
       ...                                ...                  ...
        40                          0.3022806               8.2255
      -------------------------------------------------------------
                  HL-Gap            0.2490011 Eh            6.7757 eV
             Fermi-level           -0.2815648 Eh           -7.6618 eV

     #   Z          covCN         q      C6AA      α(0)
     1   6 C        3.751    -0.103    22.529     6.769
     2   6 C        3.799    -0.055    21.559     6.611
     3   6 C        3.800    -0.062    21.696     6.632
     4   6 C        3.824    -0.061    21.660     6.623
     5   6 C        3.712     0.028    20.224     6.426
     6  17 Cl       0.910    -0.224   106.231    15.768
     7   1 H        0.925     0.032     2.559     2.501
     8   1 H        0.925     0.037     2.495     2.470
     9   1 H        0.925     0.034     2.530     2.488
    10   1 H        0.924     0.033     2.546     2.495
    11   1 H        0.924     0.030     2.588     2.516
    12   1 H        0.924     0.036     2.505     2.475
    13   1 H        0.924     0.051     2.313     2.379
    14   1 H        0.924     0.049     2.337     2.390
    15   1 H        0.924     0.050     2.316     2.380
    16   1 H        0.925     0.057     2.232     2.336
    17   1 H        0.925     0.070     2.090     2.261

 Mol. C6AA /au·bohr⁶  :       2551.057093
 Mol. C8AA /au·bohr⁸  :      62692.890306
 Mol. α(0) /au        :         75.519757


Wiberg/Mayer (AO) data.
largest (>0.10) Wiberg bond orders for each atom

 ---------------------------------------------------------------------------
     #   Z sym  total        # sym  WBO       # sym  WBO       # sym  WBO
 ---------------------------------------------------------------------------
     1   6 C    3.997 --     2 C    1.020     9 H    0.987     8 H    0.987
                             7 H    0.986
     2   6 C    3.998 --     1 C    1.020     3 C    1.009    10 H    0.978
                            11 H    0.978
     3   6 C    3.995 --     2 C    1.009     4 C    1.004    12 H    0.979
                            13 H    0.974
     4   6 C    3.993 --     5 C    1.019     3 C    1.004    15 H    0.977
                            14 H    0.966
     5   6 C    3.934 --     4 C    1.019    16 H    0.980    17 H    0.976
                             6 Cl   0.938
     6  17 Cl   0.983 --     5 C    0.938
     7   1 H    0.999 --     1 C    0.986
     8   1 H    0.999 --     1 C    0.987
     9   1 H    0.999 --     1 C    0.987
    10   1 H    0.999 --     2 C    0.978
    11   1 H    0.999 --     2 C    0.978
    12   1 H    0.999 --     3 C    0.979
    13   1 H    0.997 --     3 C    0.974
    14   1 H    0.998 --     4 C    0.966
    15   1 H    0.997 --     4 C    0.977
    16   1 H    0.997 --     5 C    0.980
    17   1 H    0.995 --     5 C    0.976
 ---------------------------------------------------------------------------

Topologies differ in total number of bonds
Writing topology from bond orders to xtbtopo.mol

molecular dipole:
                 x           y           z       tot (Debye)
 q only:        0.746       0.476      -0.286
   full:        0.670       0.480      -0.331       2.257
molecular quadrupole (traceless):
                xx          xy          yy          xz          yz          zz
 q only:       -3.556      -2.035       1.261       1.065      -0.167       2.295
  q+dip:       -3.709      -2.546       1.738       1.278      -0.271       1.971
   full:       -3.381      -2.057       1.371       0.939      -0.466       2.009


           -------------------------------------------------
          | TOTAL ENERGY              -20.868360683075 Eh   |
          | GRADIENT NORM               0.007059334643 Eh/α |
          | HOMO-LUMO GAP               6.775664266540 eV   |
           -------------------------------------------------

------------------------------------------------------------------------
 * finished run on 2025/04/11 at 15:54:36.252     
------------------------------------------------------------------------
 total:
 * wall-time:     0 d,  0 h,  0 min,  0.078 sec
 *  cpu-time:     0 d,  0 h,  0 min,  0.020 sec
 * ratio c/w:     0.259 speedup
 SCF:
 * wall-time:     0 d,  0 h,  0 min,  0.025 sec
 *  cpu-time:     0 d,  0 h,  0 min,  0.012 sec
 * ratio c/w:     0.489 speedup

