
                                 *****************
                                 * O   R   C   A *
                                 *****************

                                            #,                                       
                                            ###                                      
                                            ####                                     
                                            #####                                    
                                            ######                                   
                                           ########,                                 
                                     ,,################,,,,,                         
                               ,,#################################,,                 
                          ,,##########################################,,             
                       ,#########################################, ''#####,          
                    ,#############################################,,   '####,        
                  ,##################################################,,,,####,       
                ,###########''''           ''''###############################       
              ,#####''   ,,,,##########,,,,          '''####'''          '####       
            ,##' ,,,,###########################,,,                        '##       
           ' ,,###''''                  '''############,,,                           
         ,,##''                                '''############,,,,        ,,,,,,###''
      ,#''                                            '''#######################'''  
     '                                                          ''''####''''         
             ,#######,   #######,   ,#######,      ##                                
            ,#'     '#,  ##    ##  ,#'     '#,    #''#        ,####,   ,####,        
            ##       ##  ##   ,#'  ##            #'  '#       #'       #'  '#        
            ##       ##  #######   ##           ,######,      #####,   #    #        
            '#,     ,#'  ##    ##  '#,     ,#' ,#      #,     #,   #   #,  ,#        
             '#######'   ##     ##  '#######'  #'      '#     '####' # '####'        



                #########################################################
                #                        -***-                          #
                #          Department of theory and spectroscopy        #
                #                                                       #
                #                      Frank Neese                      #
                #                                                       #
                #     Directorship, Architecture, Infrastructure        #
                #                    SHARK, DRIVERS                     #
                #        Core code/Algorithms in most modules           #
                #                                                       #
                #        Max Planck Institute fuer Kohlenforschung      #
                #                Kaiser Wilhelm Platz 1                 #
                #                 D-45470 Muelheim/Ruhr                 #
                #                      Germany                          #
                #                                                       #
                #                  All rights reserved                  #
                #                        -***-                          #
                #########################################################


                         Program Version 6.0.0  -   RELEASE  -


 With contributions from (in alphabetic order):
   Daniel Aravena         : Magnetic Suceptibility
   Michael Atanasov       : Ab Initio Ligand Field Theory (pilot matlab implementation)
   Alexander A. Auer      : GIAO ZORA, VPT2 properties, NMR spectrum
   Ute Becker             : All parallelization in ORCA, NUMFREQ, NUMCALC
   Giovanni Bistoni       : ED, misc. LED, open-shell LED, HFLD
   Martin Brehm           : Molecular dynamics
   Dmytro Bykov           : pre 5.0 version of the SCF Hessian
   Marcos Casanova-Páez   : Triplet and SCS-CIS(D). UHF-(DLPNO)-IP/EA/STEOM-CCSD. UHF-CVS-IP/STEOM-CCSD
   Vijay G. Chilkuri      : MRCI spin determinant printing, contributions to CSF-ICE
   Pauline Colinet        : FMM embedding
   Dipayan Datta          : RHF DLPNO-CCSD density
   Achintya Kumar Dutta   : EOM-CC, STEOM-CC
   Nicolas Foglia         : Exact transition moments, OPA infrastructure, MCD improvements
   Dmitry Ganyushin       : Spin-Orbit,Spin-Spin,Magnetic field MRCI
   Miquel Garcia          : C-PCM and meta-GGA Hessian, CCSD/C-PCM, Gaussian charge scheme
   Tiago L. C. Gouveia    : GS-ROHF, GS-ROCIS
   Yang Guo               : DLPNO-NEVPT2, F12-NEVPT2, CIM, IAO-localization
   Andreas Hansen         : Spin unrestricted coupled pair/coupled cluster methods
   Ingolf Harden          : AUTO-CI MPn and infrastructure 
   Benjamin Helmich-Paris : MC-RPA, TRAH-(SCF,CASSCF), AVAS, COSX integrals, SCF dyn. polar.
   Lee Huntington         : MR-EOM, pCC
   Robert Izsak           : Overlap fitted RIJCOSX, COSX-SCS-MP3, EOM
   Riya Kayal             : Wick's Theorem for AUTO-CI, AUTO-CI UHF-CCSDT
   Emily Kempfer          : AUTO-CI, RHF CISDT and CCSDT
   Christian Kollmar      : KDIIS, OOCD, Brueckner-CCSD(T), CCSD density, CASPT2, CASPT2-K, improved NEVPT2
   Axel Koslowski         : Symmetry handling
   Simone Kossmann        : Meta GGA functionals, TD-DFT gradient, OOMP2, (MP2 Hessian; deprecated post 5.0)
   Lucas Lang             : DCDCAS
   Marvin Lechner         : AUTO-CI (C++ implementation), FIC-MRCC
   Spencer Leger          : CASSCF response
   Dagmar Lenk            : GEPOL surface, SMD, ORCA-2-JSON
   Dimitrios Liakos       : Extrapolation schemes; Compound Job, initial MDCI parallelization
   Dimitrios Manganas     : Further ROCIS development; embedding schemes. LFT, Crystal Embedding
   Dimitrios Pantazis     : SARC Basis sets
   Anastasios Papadopoulos: AUTO-CI, single reference methods and gradients
   Taras Petrenko         : pre 6.0 DFT Hessian and TD-DFT gradient, (ASA, deprecated), ECA, 1-Electron XAS/XES, NRVS
   Peter Pinski           : DLPNO-MP2, DLPNO-MP2 Gradient
   Christoph Reimann      : Effective Core Potentials
   Marius Retegan         : Local ZFS, SOC
   Christoph Riplinger    : Optimizer, TS searches, QM/MM, DLPNO-CCSD(T), (RO)-DLPNO pert. Triples
   Michael Roemelt        : Original ROCIS implementation
   Masaaki Saitow         : Open-shell DLPNO-CCSD energy and density
   Barbara Sandhoefer     : DKH picture change effects
   Kantharuban Sivalingam : CASSCF convergence/infrastructure, NEVPT2 and variants, FIC-MRCI
   Bernardo de Souza      : ESD, SOC TD-DFT
   Georgi Stoychev        : AutoAux, RI-MP2 NMR, DLPNO-MP2 response, X2C
   Van Anh Tran           : RI-MP2 g-tensors
   Willem Van den Heuvel  : Paramagnetic NMR
   Zikuan Wang            : NOTCH, Electric field optimization 
   Frank Wennmohs         : Technical directorship and infrastructure
   Hang Xu                : AUTO-CI-Response properties 


 We gratefully acknowledge several colleagues who have allowed us to
 interface, adapt or use parts of their codes:
   Stefan Grimme, W. Hujo, H. Kruse, P. Pracht,  : VdW corrections, initial TS optimization,
                  C. Bannwarth, S. Ehlert,         DFT functionals, gCP, sTDA/sTD-DF
                  L. Wittmann, M. Mueller
   Ed Valeev, F. Pavosevic, A. Kumar             : LibInt (2-el integral package), F12 methods
   Garnet Chan, S. Sharma, J. Yang, R. Olivares  : DMRG
   Ulf Ekstrom                                   : XCFun DFT Library
   Mihaly Kallay                                 : mrcc  (arbitrary order and MRCC methods)
   Frank Weinhold                                : gennbo (NPA and NBO analysis)
   Simon Mueller                                 : openCOSMO-RS
   Christopher J. Cramer and Donald G. Truhlar   : smd solvation model
   Lars Goerigk                                  : TD-DFT with DH, B97 family of functionals
   V. Asgeirsson, H. Jonsson                     : NEB implementation
   FAccTs GmbH                                   : IRC, NEB, NEB-TS, DLPNO-Multilevel, CI-OPT
                                                   MM, QMMM, 2- and 3-layer-ONIOM, Crystal-QMMM,
                                                   LR-CPCM, SF, NACMEs, symmetry and pop. for TD-DFT,
                                                   nearIR, NL-DFT gradient (VV10), updates on ESD,
                                                   ML-optimized integration grids, MBIS, APM,
                                                   GOAT, DOCKER, SOLVATOR, interface openCOSMO-RS
   S Lehtola, MJT Oliveira, MAL Marques          : LibXC Library
   Liviu Ungur et al                             : ANISO software


 Your calculation uses the libint2 library for the computation of 2-el integrals
 For citations please refer to: http://libint.valeyev.net

 Your ORCA version has been built with support for libXC version: 6.2.2
 For citations please refer to: https://libxc.gitlab.io

 This ORCA versions uses:
   CBLAS   interface :  Fast vector & matrix operations
   LAPACKE interface :  Fast linear algebra routines
   SCALAPACK package :  Parallel linear algebra routines
   Shared memory     :  Shared parallel matrices
   BLAS/LAPACK       :  OpenBLAS 0.3.27  USE64BITINT DYNAMIC_ARCH NO_AFFINITY SkylakeX SINGLE_THREADED
        Core in use  :  SkylakeX
   Copyright (c) 2011-2014, The OpenBLAS Project


Your calculation utilizes the geometrical counterpoise correction gCP
Please cite in your paper:
H.Kruse, S. Grimme J.Chem.Phys., 136, (2012), 154101 
   

Your calculation utilizes the atom-pairwise dispersion correction
based on EEQ partial charges (D4)


================================================================================

----- Orbital basis set information -----
Your calculation utilizes the basis: def2-SV(P)
   F. Weigend and R. Ahlrichs, Phys. Chem. Chem. Phys. 7, 3297 (2005).

----- AuxJ basis set information -----
Your calculation utilizes the auxiliary basis: def2/J
   F. Weigend, Phys. Chem. Chem. Phys. 8, 1057 (2006).

================================================================================
                                        WARNINGS
                       Please study these warnings very carefully!
================================================================================


================================================================================
                                       INPUT FILE
================================================================================
NAME = sp.inp
|  1> ! pbe def2-sv(p) def2/J RI DEFGRID1 loosescf d4 GCP(DFT/SV(P)) printgap
|  2> %output
|  3>     printlevel normal
|  4> end
|  5> * xyz 0 1
|  6> C -3.3809621699 -0.9725920932 0.3876761087
|  7> C -1.8997897403 -0.900284652 0.0354919427
|  8> C -1.3769001159 0.5282982438 0.1613698826
|  9> C 0.0803295492 0.6956794375 -0.1822006115
| 10> O 0.6033978907 1.7757358547 -0.3786976825
| 11> O 0.73379096 -0.4547474312 -0.2458373897
| 12> C 2.1412774222 -0.4276221163 -0.5345204528
| 13> C 2.9581171499 -0.2406146673 0.7348968655
| 14> H -3.9628377974 -0.3365302472 -0.2749064289
| 15> H -3.7423719863 -1.9924972373 0.2900436371
| 16> H -3.5467471403 -0.6450509571 1.4109895831
| 17> H -1.7468107259 -1.2513001637 -0.9862353704
| 18> H -1.3308563075 -1.5534351647 0.6977504571
| 19> H -1.4986883745 0.8836237062 1.1883532619
| 20> H -1.9416377861 1.2103018891 -0.4777254319
| 21> H 2.3440088479 -1.3932377875 -0.9986574112
| 22> H 2.3377260955 0.3842810557 -1.2413842383
| 23> H 2.7150167799 -1.0175545183 1.4545950857
| 24> H 4.0147083775 -0.2927392619 0.4935654805
| 25> H 2.7442155539 0.7308938031 1.1750249681
| 26> *
| 27> 
| 28>                          ****END OF INPUT****
================================================================================

                       ****************************
                       * Single Point Calculation *
                       ****************************

---------------------------------
CARTESIAN COORDINATES (ANGSTROEM)
---------------------------------
  C     -3.380962   -0.972592    0.387676
  C     -1.899790   -0.900285    0.035492
  C     -1.376900    0.528298    0.161370
  C      0.080330    0.695679   -0.182201
  O      0.603398    1.775736   -0.378698
  O      0.733791   -0.454747   -0.245837
  C      2.141277   -0.427622   -0.534520
  C      2.958117   -0.240615    0.734897
  H     -3.962838   -0.336530   -0.274906
  H     -3.742372   -1.992497    0.290044
  H     -3.546747   -0.645051    1.410990
  H     -1.746811   -1.251300   -0.986235
  H     -1.330856   -1.553435    0.697750
  H     -1.498688    0.883624    1.188353
  H     -1.941638    1.210302   -0.477725
  H      2.344009   -1.393238   -0.998657
  H      2.337726    0.384281   -1.241384
  H      2.715017   -1.017555    1.454595
  H      4.014708   -0.292739    0.493565
  H      2.744216    0.730894    1.175025

----------------------------
CARTESIAN COORDINATES (A.U.)
----------------------------
  NO LB      ZA    FRAG     MASS         X           Y           Z
   0 C     6.0000    0    12.011   -6.389093   -1.837933    0.732602
   1 C     6.0000    0    12.011   -3.590082   -1.701291    0.067070
   2 C     6.0000    0    12.011   -2.601964    0.998339    0.304945
   3 C     6.0000    0    12.011    0.151801    1.314644   -0.344309
   4 O     8.0000    0    15.999    1.140257    3.355654   -0.715635
   5 O     8.0000    0    15.999    1.386664   -0.859348   -0.464565
   6 C     6.0000    0    12.011    4.046428   -0.808089   -1.010097
   7 C     6.0000    0    12.011    5.590031   -0.454696    1.388754
   8 H     1.0000    0     1.008   -7.488678   -0.635950   -0.519498
   9 H     1.0000    0     1.008   -7.072058   -3.765274    0.548103
  10 H     1.0000    0     1.008   -6.702381   -1.218970    2.666384
  11 H     1.0000    0     1.008   -3.300994   -2.364615   -1.863715
  12 H     1.0000    0     1.008   -2.514954   -2.935567    1.318557
  13 H     1.0000    0     1.008   -2.832111    1.669807    2.245662
  14 H     1.0000    0     1.008   -3.669164    2.287139   -0.902770
  15 H     1.0000    0     1.008    4.429535   -2.632838   -1.887189
  16 H     1.0000    0     1.008    4.417662    0.726186   -2.345876
  17 H     1.0000    0     1.008    5.130638   -1.922899    2.748786
  18 H     1.0000    0     1.008    7.586699   -0.553197    0.932704
  19 H     1.0000    0     1.008    5.185816    1.381189    2.220475

--------------------------------
INTERNAL COORDINATES (ANGSTROEM)
--------------------------------
 C      0   0   0     0.000000000000     0.00000000     0.00000000
 C      1   0   0     1.524183000509     0.00000000     0.00000000
 C      2   1   0     1.526469097372   110.99127540     0.00000000
 C      3   2   1     1.506511017307   114.61488658   180.57001975
 O      4   3   2     1.216031847085   123.47723643   165.90945214
 O      4   3   2     1.324591799450   113.05735978   345.79454842
 C      6   4   3     1.437042739415   118.45322121   181.46588524
 C      7   6   4     1.521058596745   111.13972641    86.24032181
 H      1   2   3     1.087276200856   110.57932846    59.78734426
 H      1   2   3     1.086441741587   110.30623959   179.74001457
 H      1   2   3     1.087169866735   110.57228103   299.71060526
 H      2   1   3     1.091119228423   109.71580900   239.11811016
 H      2   1   3     1.090356447724   109.77341549   121.03585224
 H      3   2   1     1.093518827237   110.08392025    60.42142746
 H      3   2   1     1.092016679983   111.04349099   302.35550215
 H      7   6   4     1.090383772617   104.53059955   206.48413144
 H      7   6   4     1.094273847442   108.63891840   324.36268303
 H      8   7   6     1.086599673350   110.16407193    55.96848893
 H      8   7   6     1.085054299558   109.35431911   176.13535412
 H      8   7   6     1.087793798258   109.99102172   295.71493011

---------------------------
INTERNAL COORDINATES (A.U.)
---------------------------
 C      0   0   0     0.000000000000     0.00000000     0.00000000
 C      1   0   0     2.880288448941     0.00000000     0.00000000
 C      2   1   0     2.884608545927   110.99127540     0.00000000
 C      3   2   1     2.846893240446   114.61488658   180.57001975
 O      4   3   2     2.297967161118   123.47723643   165.90945214
 O      4   3   2     2.503115740199   113.05735978   345.79454842
 C      6   4   3     2.715617220234   118.45322121   181.46588524
 C      7   6   4     2.874384181494   111.13972641    86.24032181
 H      1   2   3     2.054654251548   110.57932846    59.78734426
 H      1   2   3     2.053077352060   110.30623959   179.74001457
 H      1   2   3     2.054453309181   110.57228103   299.71060526
 H      2   1   3     2.061916521176   109.71580900   239.11811016
 H      2   1   3     2.060475074553   109.77341549   121.03585224
 H      3   2   1     2.066451105764   110.08392025    60.42142746
 H      3   2   1     2.063612458842   111.04349099   302.35550215
 H      7   6   4     2.060526711118   104.53059955   206.48413144
 H      7   6   4     2.067877887178   108.63891840   324.36268303
 H      8   7   6     2.053375799840   110.16407193    55.96848893
 H      8   7   6     2.050455466599   109.35431911   176.13535412
 H      8   7   6     2.055632368886   109.99102172   295.71493011

---------------------
BASIS SET INFORMATION
---------------------
There are 3 groups of distinct atoms

 Group   1 Type C   : 7s4p1d contracted to 3s2p1d pattern {511/31/1}
 Group   2 Type O   : 7s4p1d contracted to 3s2p1d pattern {511/31/1}
 Group   3 Type H   : 4s contracted to 2s pattern {31}

Atom   0C    basis set group =>   1
Atom   1C    basis set group =>   1
Atom   2C    basis set group =>   1
Atom   3C    basis set group =>   1
Atom   4O    basis set group =>   2
Atom   5O    basis set group =>   2
Atom   6C    basis set group =>   1
Atom   7C    basis set group =>   1
Atom   8H    basis set group =>   3
Atom   9H    basis set group =>   3
Atom  10H    basis set group =>   3
Atom  11H    basis set group =>   3
Atom  12H    basis set group =>   3
Atom  13H    basis set group =>   3
Atom  14H    basis set group =>   3
Atom  15H    basis set group =>   3
Atom  16H    basis set group =>   3
Atom  17H    basis set group =>   3
Atom  18H    basis set group =>   3
Atom  19H    basis set group =>   3
---------------------------------
AUXILIARY/J BASIS SET INFORMATION
---------------------------------
There are 3 groups of distinct atoms

 Group   1 Type C   : 12s5p4d2f1g contracted to 6s4p3d1f1g pattern {711111/2111/211/2/1}
 Group   2 Type O   : 12s5p4d2f1g contracted to 6s4p3d1f1g pattern {711111/2111/211/2/1}
 Group   3 Type H   : 5s2p1d contracted to 3s1p1d pattern {311/2/1}

Atom   0C    basis set group =>   1
Atom   1C    basis set group =>   1
Atom   2C    basis set group =>   1
Atom   3C    basis set group =>   1
Atom   4O    basis set group =>   2
Atom   5O    basis set group =>   2
Atom   6C    basis set group =>   1
Atom   7C    basis set group =>   1
Atom   8H    basis set group =>   3
Atom   9H    basis set group =>   3
Atom  10H    basis set group =>   3
Atom  11H    basis set group =>   3
Atom  12H    basis set group =>   3
Atom  13H    basis set group =>   3
Atom  14H    basis set group =>   3
Atom  15H    basis set group =>   3
Atom  16H    basis set group =>   3
Atom  17H    basis set group =>   3
Atom  18H    basis set group =>   3
Atom  19H    basis set group =>   3
------------------------------------------------------------------------------
                             ORCA STARTUP CALCULATIONS
                           -- RI-GTO INTEGRALS CHOSEN --
------------------------------------------------------------------------------
------------------------------------------------------------------------------
                   ___                                                        
                  /   \      - P O W E R E D   B Y -                         
                 /     \                                                     
                 |  |  |   _    _      __       _____    __    __             
                 |  |  |  | |  | |    /  \     |  _  \  |  |  /  |          
                  \  \/   | |  | |   /    \    | | | |  |  | /  /          
                 / \  \   | |__| |  /  /\  \   | |_| |  |  |/  /          
                |  |  |   |  __  | /  /__\  \  |    /   |      \           
                |  |  |   | |  | | |   __   |  |    \   |  |\   \          
                \     /   | |  | | |  |  |  |  | |\  \  |  | \   \       
                 \___/    |_|  |_| |__|  |__|  |_| \__\ |__|  \__/        
                                                                              
                      - O R C A' S   B I G   F R I E N D -                    
                                      &                                       
                       - I N T E G R A L  F E E D E R -                       
                                                                              
 v1 FN, 2020, v2 2021, v3 2022-2024                                           
------------------------------------------------------------------------------


----------------------
SHARK INTEGRAL PACKAGE
----------------------

Number of atoms                             ...     20
Number of basis functions                   ...    136
Number of shells                            ...     72
Maximum angular momentum                    ...      2
Integral batch strategy                     ... SHARK/LIBINT Hybrid
RI-J (if used) integral strategy            ... SPLIT-RIJ (Revised 2003 algorithm where possible)
Printlevel                                  ...      1
Contraction scheme used                     ... SEGMENTED contraction
Prescreening option                         ... SCHWARTZ
   Thresh                                   ... 1.000e-09
   Tcut                                     ... 1.000e-10
   Tpresel                                  ... 1.000e-10 
Coulomb Range Separation                    ... NOT USED
Exchange Range Separation                   ... NOT USED
Multipole approximations                    ... NOT USED
Finite Nucleus Model                        ... NOT USED
CABS basis                                  ... NOT available
Auxiliary Coulomb fitting basis             ... AVAILABLE
   # of basis functions in Aux-J            ...    524
   # of shells in Aux-J                     ...    180
   Maximum angular momentum in Aux-J        ...      4
Auxiliary J/K fitting basis                 ... NOT available
Auxiliary Correlation fitting basis         ... NOT available
Auxiliary 'external' fitting basis          ... NOT available

Checking pre-screening integrals            ... done (  0.0 sec) Dimension = 72
Check shell pair data                       ... done (  0.0 sec)
Shell pair information
Shell pair cut-off parameter TPreSel        ...   1.0e-10
Total number of shell pairs                 ...      2628
Shell pairs after pre-screening             ...      2400
Total number of primitive shell pairs       ...     10580
Primitive shell pairs kept                  ...      6674
          la=0 lb=0:   1057 shell pairs
          la=1 lb=0:    725 shell pairs
          la=1 lb=1:    133 shell pairs
          la=2 lb=0:    335 shell pairs
          la=2 lb=1:    119 shell pairs
          la=2 lb=2:     31 shell pairs

Calculating one electron integrals          ... done (  0.0 sec)
Calculating RI/J V-Matrix + Cholesky decomp.... done (  0.1 sec)
Calculating Nuclear repulsion               ... done (  0.0 sec) ENN=    391.013059315371 Eh

Diagonalization of the overlap matrix:
Smallest eigenvalue                        ... 1.279e-03
Time for diagonalization                   ...    0.002 sec
Threshold for overlap eigenvalues          ... 1.000e-07
Number of eigenvalues below threshold      ... 0
Time for construction of square roots      ...    0.014 sec
Total time needed                          ...    0.024 sec

-------------------
DFT GRID GENERATION
-------------------

General Integration Accuracy     IntAcc      ... 4.159
Radial Grid Type                 RadialGrid  ... OptM3 with GC (2021)
Angular Grid (max. ang.)         AngularGrid ... 3 (Lebedev-194)
Angular grid pruning method      GridPruning ... 4 (adaptive)
Weight generation scheme         WeightScheme... mBecke (2022)
Basis function cutoff            BFCut       ... 1.0000e-10
Integration weight cutoff        WCut        ... 1.0000e-14
Partially contracted basis set               ... off
Rotationally invariant grid construction     ... off
Angular grids for H and He will be reduced by one unit

Total number of grid points                  ...    43035
Total number of batches                      ...      683
Average number of points per batch           ...       63
Average number of grid points per atom       ...     2152
Initializing property integral containers    ... done (  0.0 sec)

SHARK setup successfully completed in   0.7 seconds

Maximum memory used throughout the entire STARTUP-calculation: 21.2 MB
-------------------------------------------------------------------------------
                                 ORCA GUESS
                   Start orbitals & Density for SCF / CASSCF
-------------------------------------------------------------------------------

------------
SCF SETTINGS
------------
Hamiltonian:
 Density Functional     Method          .... DFT(GTOs)
 Exchange Functional    Exchange        .... PBE
   PBE kappa parameter   XKappa         ....  0.804000
   PBE mue parameter    XMuePBE         ....  0.219520
 Correlation Functional Correlation     .... PBE
   PBE beta parameter  CBetaPBE         ....  0.066725
 LDA part of GGA corr.  LDAOpt          .... PW91-LDA
 Gradients option       PostSCFGGA      .... off
   NL short-range parameter             ....  6.400000
 RI-approximation to the Coulomb term is turned on
   Number of AuxJ basis functions       .... 524


General Settings:
 Integral files         IntName         .... sp
 Hartree-Fock type      HFTyp           .... RHF
 Total Charge           Charge          ....    0
 Multiplicity           Mult            ....    1
 Number of Electrons    NEL             ....   64
 Basis Dimension        Dim             ....  136
 Nuclear Repulsion      ENuc            ....    391.0130593154 Eh

Convergence Acceleration:
 AO-DIIS                CNVDIIS         .... on
   Start iteration      DIISMaxIt       ....    12
   Startup error        DIISStart       ....  0.200000
   # of expansion vecs  DIISMaxEq       ....     5
   Bias factor          DIISBfac        ....   1.050
   Max. coefficient     DIISMaxC        ....  10.000
 MO-DIIS                CNVKDIIS        .... off
 Trust-Rad. Augm. Hess. CNVTRAH         .... auto
   Auto Start mean grad. ratio tolernc. ....  1.125000
   Auto Start start iteration           ....    50
   Auto Start num. interpolation iter.  ....    10
   Max. Number of Micro iterations      ....    24
   Max. Number of Macro iterations      .... Maxiter - #DIIS iter
   Number of Davidson start vectors     ....     2
   Converg. threshold    (grad. norm)   ....   1.000e-04
   Grad. Scal. Fac. for Micro threshold ....   0.100
   Minimum threshold for Micro iter.    ....   1.000e-02
   NR start threshold (gradient norm)   ....   1.000e-04
   Initial trust radius                 ....   0.400
   Minimum AH scaling param. (alpha)    ....   1.000
   Maximum AH scaling param. (alpha)    .... 1000.000
   Quad. conv. algorithm                .... NR
   White noise on init. David. guess    .... on
   Maximum white noise                  ....   0.010
   Pseudo random numbers                .... off
   Inactive MOs                         .... canonical
   Orbital update algorithm             .... Taylor
   Preconditioner                       .... Diag
   Full preconditioner red. dimension   ....   250
 SOSCF                  CNVSOSCF        .... on
   Start iteration      SOSCFMaxIt      ....   150
   Startup grad/error   SOSCFStart      ....  0.003300
   Hessian update       SOSCFHessUp     .... L-BFGS
 Level Shifting         CNVShift        .... on
   Level shift para.    LevelShift      ....    0.2500
   Turn off err/grad.   ShiftErr        ....    0.0010
 Zerner damping         CNVZerner       .... off
 Static damping         CNVDamp         .... on
   Fraction old density DampFac         ....    0.7000
   Max. Damping (<1)    DampMax         ....    0.9800
   Min. Damping (>=0)   DampMin         ....    0.0000
   Turn off err/grad.   DampErr         ....    0.1000

SCF Procedure:
 Maximum # iterations   MaxIter         ....   125
 SCF integral mode      SCFMode         .... Direct
   Integral package                     .... SHARK and LIBINT hybrid scheme
 Reset frequency        DirectResetFreq ....    20
 Integral Threshold     Thresh          ....  1.000e-09 Eh
 Primitive CutOff       TCut            ....  1.000e-10 Eh

Convergence Tolerance:
 Convergence Check Mode ConvCheckMode   .... Total+1el-Energy
 Convergence forced     ConvForced      .... 0
 Energy Change          TolE            ....  1.000e-05 Eh
 1-El. energy change                    ....  1.000e-02 Eh
 Orbital Gradient       TolG            ....  1.000e-04
 Orbital Rotation angle TolX            ....  1.000e-04
 DIIS Error             TolErr          ....  5.000e-04

------------------------------
INITIAL GUESS: MODEL POTENTIAL
------------------------------
Loading Hartree-Fock densities                     ... done
Calculating cut-offs                               ... done
Initializing the effective Hamiltonian             ... done
Setting up the integral package (SHARK)            ... done
Starting the Coulomb interaction                   ... done (   0.2 sec)
Making the grid                                    ... done (   0.2 sec)
Mapping shells                                     ... done
Starting the XC term evaluation                    ... done (   0.2 sec)
  promolecular density results
     # of electrons  =     63.992436788
     EX              =    -50.543567207
     EC              =     -2.106463536
     EX+EC           =    -52.650030743
Transforming the Hamiltonian                       ... done (   0.0 sec)
Diagonalizing the Hamiltonian                      ... done (   0.0 sec)
Back transforming the eigenvectors                 ... done (   0.0 sec)
Now organizing SCF variables                       ... done
                      ------------------
                      INITIAL GUESS DONE (   0.6 sec)
                      ------------------
             **** ENERGY FILE WAS UPDATED (sp.en.tmp) ****
Finished Guess after   0.8 sec
Maximum memory used throughout the entire GUESS-calculation: 16.1 MB

-------------------------------------------------------------------------------------------
                                      ORCA LEAN-SCF
                              memory conserving SCF solver
-------------------------------------------------------------------------------------------

----------------------------------------D-I-I-S--------------------------------------------
Iteration    Energy (Eh)           Delta-E    RMSDP     MaxDP     DIISErr   Damp  Time(sec)
-------------------------------------------------------------------------------------------
               ***  Starting incremental Fock matrix formation  ***
    1    -385.2818767502085393     0.00e+00  5.22e-03  1.23e-01  2.51e-01  0.700   0.8
    2    -385.4083871380984192    -1.27e-01  3.25e-03  7.25e-02  7.68e-02  0.700   0.8
                               ***Turning on AO-DIIS***
    3    -385.4473084714456945    -3.89e-02  1.28e-03  1.41e-02  2.59e-02  0.700   0.8
    4    -385.4726450858692033    -2.53e-02  1.79e-03  2.32e-02  1.77e-02  0.000   0.8
    5    -385.5314243896486914    -5.88e-02  5.85e-04  9.80e-03  8.92e-03  0.000   0.8
    6    -385.5321928131925233    -7.68e-04  2.18e-04  2.81e-03  3.45e-03  0.000   0.7
                              *** Initializing SOSCF ***
---------------------------------------S-O-S-C-F--------------------------------------
Iteration    Energy (Eh)           Delta-E    RMSDP     MaxDP     MaxGrad    Time(sec)
--------------------------------------------------------------------------------------
    7    -385.5322525958798678    -5.98e-05  7.73e-05  1.11e-03  1.47e-03     0.8
               *** Restarting incremental Fock matrix formation ***
    8    -385.5322604272435001    -7.83e-06  5.49e-05  8.44e-04  1.09e-04     0.8
    9    -385.5322598454922627     5.82e-07  2.45e-05  5.45e-04  3.21e-04     0.7
                 **** Energy Check signals convergence ****

               *****************************************************
               *                     SUCCESS                       *
               *           SCF CONVERGED AFTER   9 CYCLES          *
               *****************************************************

             **** ENERGY FILE WAS UPDATED (sp.en.tmp) ****

----------------
TOTAL SCF ENERGY
----------------

Total Energy       :       -385.53225984549226 Eh          -10490.86614 eV

Components:
Nuclear Repulsion  :        391.01305931537070 Eh           10640.00627 eV
Electronic Energy  :       -776.54531916086296 Eh          -21130.87241 eV
One Electron Energy:      -1298.48225301579532 Eh          -35333.49842 eV
Two Electron Energy:        521.93693385493236 Eh           14202.62602 eV

Virial components:
Potential Energy   :       -767.93375160694586 Eh          -20896.53974 eV
Kinetic Energy     :        382.40149176145366 Eh           10405.67361 eV
Virial Ratio       :          2.00818712309311

DFT components:
N(Alpha)           :       32.000396718201 electrons
N(Beta)            :       32.000396718201 electrons
N(Total)           :       64.000793436401 electrons
E(X)               :      -51.602227740004 Eh       
E(C)               :       -2.123712108016 Eh       
E(XC)              :      -53.725939848020 Eh       

---------------
SCF CONVERGENCE
---------------

  Last Energy change         ...   -5.8175e-07  Tolerance :   1.0000e-05
  Last MAX-Density change    ...    5.4485e-04  Tolerance :   1.0000e-03
  Last RMS-Density change    ...    2.4537e-05  Tolerance :   1.0000e-04
  Last DIIS Error            ...    1.4723e-03  Tolerance :   5.0000e-04
  Last Orbital Gradient      ...    3.2087e-04  Tolerance :   1.0000e-04
  Last Orbital Rotation      ...    5.6220e-04  Tolerance :   1.0000e-04


----------------
ORBITAL ENERGIES
----------------

  NO   OCC          E(Eh)            E(eV) 
   0   2.0000     -18.797447      -511.5045 
   1   2.0000     -18.728966      -509.6411 
   2   2.0000     -10.001796      -272.1627 
   3   2.0000      -9.945389      -270.6278 
   4   2.0000      -9.895867      -269.2802 
   5   2.0000      -9.888608      -269.0827 
   6   2.0000      -9.885910      -269.0093 
   7   2.0000      -9.877477      -268.7798 
   8   2.0000      -1.003771       -27.3140 
   9   2.0000      -0.905052       -24.6277 
  10   2.0000      -0.728308       -19.8183 
  11   2.0000      -0.694242       -18.8913 
  12   2.0000      -0.637953       -17.3596 
  13   2.0000      -0.587970       -15.9995 
  14   2.0000      -0.534455       -14.5433 
  15   2.0000      -0.496457       -13.5093 
  16   2.0000      -0.453385       -12.3372 
  17   2.0000      -0.437618       -11.9082 
  18   2.0000      -0.416029       -11.3207 
  19   2.0000      -0.399722       -10.8770 
  20   2.0000      -0.388560       -10.5732 
  21   2.0000      -0.369404       -10.0520 
  22   2.0000      -0.359863        -9.7924 
  23   2.0000      -0.353316        -9.6142 
  24   2.0000      -0.331978        -9.0336 
  25   2.0000      -0.320635        -8.7249 
  26   2.0000      -0.318032        -8.6541 
  27   2.0000      -0.305702        -8.3186 
  28   2.0000      -0.294565        -8.0155 
  29   2.0000      -0.287059        -7.8113 
  30   2.0000      -0.253290        -6.8924 
  31   2.0000      -0.212880        -5.7928 
  32   0.0000      -0.017097        -0.4652 
  33   0.0000       0.035501         0.9660 
  34   0.0000       0.051900         1.4123 
  35   0.0000       0.075596         2.0571 
  36   0.0000       0.079351         2.1593 
  37   0.0000       0.085145         2.3169 
  38   0.0000       0.094301         2.5661 
  39   0.0000       0.096980         2.6390 
  40   0.0000       0.104948         2.8558 
  41   0.0000       0.124264         3.3814 
  42   0.0000       0.125469         3.4142 
*Only the first 10 virtual orbitals were printed.

                    ********************************
                    * MULLIKEN POPULATION ANALYSIS *
                    ********************************

-----------------------
MULLIKEN ATOMIC CHARGES
-----------------------
   0 C :   -0.256567
   1 C :   -0.188530
   2 C :   -0.194462
   3 C :    0.135970
   4 O :   -0.215277
   5 O :   -0.236339
   6 C :   -0.012342
   7 C :   -0.304612
   8 H :    0.097876
   9 H :    0.104411
  10 H :    0.096347
  11 H :    0.092193
  12 H :    0.094433
  13 H :    0.115417
  14 H :    0.110651
  15 H :    0.101020
  16 H :    0.108355
  17 H :    0.112064
  18 H :    0.112369
  19 H :    0.127024
Sum of atomic charges:   -0.0000000

--------------------------------
MULLIKEN REDUCED ORBITAL CHARGES
--------------------------------
  0 C s       :     3.077578  s :     3.077578
      pz      :     1.063105  p :     3.149555
      px      :     1.030143
      py      :     1.056307
      dz2     :     0.006982  d :     0.029434
      dxz     :     0.005924
      dyz     :     0.003830
      dx2y2   :     0.005653
      dxy     :     0.007043

  1 C s       :     3.068427  s :     3.068427
      pz      :     1.054710  p :     3.083268
      px      :     1.009042
      py      :     1.019515
      dz2     :     0.007393  d :     0.036834
      dxz     :     0.006186
      dyz     :     0.007447
      dx2y2   :     0.007214
      dxy     :     0.008594

  2 C s       :     3.021124  s :     3.021124
      pz      :     1.068473  p :     3.139917
      px      :     1.026866
      py      :     1.044578
      dz2     :     0.006693  d :     0.033421
      dxz     :     0.004054
      dyz     :     0.008205
      dx2y2   :     0.007738
      dxy     :     0.006731

  3 C s       :     3.047397  s :     3.047397
      pz      :     0.865544  p :     2.685447
      px      :     0.985843
      py      :     0.834061
      dz2     :     0.008583  d :     0.131186
      dxz     :     0.010093
      dyz     :     0.027709
      dx2y2   :     0.042928
      dxy     :     0.041872

  4 O s       :     3.747962  s :     3.747962
      pz      :     1.399772  p :     4.449956
      px      :     1.647278
      py      :     1.402906
      dz2     :     0.002038  d :     0.017358
      dxz     :     0.001050
      dyz     :     0.004571
      dx2y2   :     0.004672
      dxy     :     0.005026

  5 O s       :     3.734372  s :     3.734372
      pz      :     1.688838  p :     4.485791
      px      :     1.300472
      py      :     1.496481
      dz2     :     0.002001  d :     0.016176
      dxz     :     0.002044
      dyz     :     0.002689
      dx2y2   :     0.005217
      dxy     :     0.004226

  6 C s       :     3.073406  s :     3.073406
      pz      :     1.079969  p :     2.879946
      px      :     0.732418
      py      :     1.067559
      dz2     :     0.008120  d :     0.058990
      dxz     :     0.012724
      dyz     :     0.011205
      dx2y2   :     0.018764
      dxy     :     0.008177

  7 C s       :     3.101133  s :     3.101133
      pz      :     1.039496  p :     3.175577
      px      :     1.040270
      py      :     1.095811
      dz2     :     0.004320  d :     0.027902
      dxz     :     0.004423
      dyz     :     0.009500
      dx2y2   :     0.008102
      dxy     :     0.001557

  8 H s       :     0.902124  s :     0.902124

  9 H s       :     0.895589  s :     0.895589

 10 H s       :     0.903653  s :     0.903653

 11 H s       :     0.907807  s :     0.907807

 12 H s       :     0.905567  s :     0.905567

 13 H s       :     0.884583  s :     0.884583

 14 H s       :     0.889349  s :     0.889349

 15 H s       :     0.898980  s :     0.898980

 16 H s       :     0.891645  s :     0.891645

 17 H s       :     0.887936  s :     0.887936

 18 H s       :     0.887631  s :     0.887631

 19 H s       :     0.872976  s :     0.872976


------------------------
MULLIKEN OVERLAP CHARGES
------------------------
B(  0-C ,  1-C ) :   0.8500 B(  0-C ,  2-C ) :  -0.0953 B(  0-C ,  8-H ) :   0.7545 
B(  0-C ,  9-H ) :   0.7333 B(  0-C , 10-H ) :   0.7509 B(  1-C ,  2-C ) :   0.5810 
B(  1-C , 11-H ) :   0.7413 B(  1-C , 12-H ) :   0.6926 B(  2-C ,  3-C ) :   0.4522 
B(  2-C ,  4-O ) :  -0.2013 B(  2-C ,  5-O ) :  -0.3233 B(  2-C , 11-H ) :  -0.0638 
B(  2-C , 13-H ) :   0.6067 B(  2-C , 14-H ) :   0.6354 B(  3-C ,  4-O ) :   1.3689 
B(  3-C ,  5-O ) :   0.7798 B(  3-C ,  6-C ) :  -0.0564 B(  4-O ,  5-O ) :  -0.1691 
B(  4-O , 16-H ) :   0.0535 B(  5-O ,  6-C ) :   0.5238 B(  5-O ,  7-C ) :  -0.0752 
B(  5-O , 15-H ) :  -0.0565 B(  5-O , 16-H ) :  -0.0631 B(  6-C ,  7-C ) :   0.9444 
B(  6-C , 15-H ) :   0.7355 B(  6-C , 16-H ) :   0.7097 B(  7-C , 15-H ) :  -0.0575 
B(  7-C , 16-H ) :  -0.0593 B(  7-C , 17-H ) :   0.7397 B(  7-C , 18-H ) :   0.7133 
B(  7-C , 19-H ) :   0.7410 B(  8-H , 10-H ) :  -0.0535 B( 11-H , 12-H ) :  -0.0655 
B( 15-H , 16-H ) :  -0.0628 B( 17-H , 19-H ) :  -0.0526 


                     *******************************
                     * LOEWDIN POPULATION ANALYSIS *
                     *******************************

----------------------
LOEWDIN ATOMIC CHARGES
----------------------
   0 C :   -0.339938
   1 C :   -0.236536
   2 C :   -0.247573
   3 C :    0.036299
   4 O :   -0.178569
   5 O :   -0.059866
   6 C :   -0.112717
   7 C :   -0.356290
   8 H :    0.117263
   9 H :    0.120236
  10 H :    0.117007
  11 H :    0.118139
  12 H :    0.118789
  13 H :    0.143005
  14 H :    0.139523
  15 H :    0.116644
  16 H :    0.119858
  17 H :    0.123706
  18 H :    0.130333
  19 H :    0.130686

-------------------------------
LOEWDIN REDUCED ORBITAL CHARGES
-------------------------------
  0 C s       :     2.944502  s :     2.944502
      pz      :     1.122618  p :     3.324316
      px      :     1.079484
      py      :     1.122214
      dz2     :     0.017396  d :     0.071120
      dxz     :     0.013078
      dyz     :     0.009286
      dx2y2   :     0.015471
      dxy     :     0.015888

  1 C s       :     2.905492  s :     2.905492
      pz      :     1.109828  p :     3.241965
      px      :     1.068856
      py      :     1.063282
      dz2     :     0.018578  d :     0.089078
      dxz     :     0.013579
      dyz     :     0.016610
      dx2y2   :     0.020240
      dxy     :     0.020071

  2 C s       :     2.915434  s :     2.915434
      pz      :     1.108789  p :     3.247597
      px      :     1.055161
      py      :     1.083647
      dz2     :     0.017428  d :     0.084542
      dxz     :     0.010149
      dyz     :     0.017317
      dx2y2   :     0.022061
      dxy     :     0.017586

  3 C s       :     2.846889  s :     2.846889
      pz      :     0.845423  p :     2.819479
      px      :     1.007169
      py      :     0.966887
      dz2     :     0.019866  d :     0.297333
      dxz     :     0.018180
      dyz     :     0.055620
      dx2y2   :     0.105211
      dxy     :     0.098455

  4 O s       :     3.551990  s :     3.551990
      pz      :     1.404746  p :     4.595926
      px      :     1.675566
      py      :     1.515613
      dz2     :     0.004182  d :     0.030653
      dxz     :     0.001493
      dyz     :     0.006279
      dx2y2   :     0.008730
      dxy     :     0.009968

  5 O s       :     3.447362  s :     3.447362
      pz      :     1.671072  p :     4.579556
      px      :     1.347219
      py      :     1.561265
      dz2     :     0.004264  d :     0.032948
      dxz     :     0.003976
      dyz     :     0.003557
      dx2y2   :     0.011262
      dxy     :     0.009889

  6 C s       :     2.924377  s :     2.924377
      pz      :     1.104659  p :     3.056784
      px      :     0.819816
      py      :     1.132309
      dz2     :     0.017247  d :     0.131556
      dxz     :     0.031357
      dyz     :     0.025590
      dx2y2   :     0.041512
      dxy     :     0.015850

  7 C s       :     2.951857  s :     2.951857
      pz      :     1.093394  p :     3.335761
      px      :     1.104236
      py      :     1.138131
      dz2     :     0.011048  d :     0.068671
      dxz     :     0.012649
      dyz     :     0.021799
      dx2y2   :     0.019941
      dxy     :     0.003234

  8 H s       :     0.882737  s :     0.882737

  9 H s       :     0.879764  s :     0.879764

 10 H s       :     0.882993  s :     0.882993

 11 H s       :     0.881861  s :     0.881861

 12 H s       :     0.881211  s :     0.881211

 13 H s       :     0.856995  s :     0.856995

 14 H s       :     0.860477  s :     0.860477

 15 H s       :     0.883356  s :     0.883356

 16 H s       :     0.880142  s :     0.880142

 17 H s       :     0.876294  s :     0.876294

 18 H s       :     0.869667  s :     0.869667

 19 H s       :     0.869314  s :     0.869314


---------------------------------
LOEWDIN BOND ORDERS (THRESH 0.050000)
---------------------------------
B(  0-C ,  1-C ) :   1.1297 B(  0-C ,  2-C ) :   0.0587 B(  0-C ,  8-H ) :   0.9404 
B(  0-C ,  9-H ) :   0.9389 B(  0-C , 10-H ) :   0.9407 B(  1-C ,  2-C ) :   1.0867 
B(  1-C ,  3-C ) :   0.0570 B(  1-C , 11-H ) :   0.9084 B(  1-C , 12-H ) :   0.9066 
B(  2-C ,  3-C ) :   1.0652 B(  2-C ,  4-O ) :   0.0994 B(  2-C ,  5-O ) :   0.0647 
B(  2-C , 13-H ) :   0.8800 B(  2-C , 14-H ) :   0.8874 B(  3-C ,  4-O ) :   2.1966 
B(  3-C ,  5-O ) :   1.4017 B(  3-C ,  6-C ) :   0.0756 B(  4-O ,  5-O ) :   0.2091 
B(  5-O ,  6-C ) :   1.0735 B(  5-O ,  7-C ) :   0.0533 B(  6-C ,  7-C ) :   1.1498 
B(  6-C , 15-H ) :   0.9202 B(  6-C , 16-H ) :   0.9063 B(  7-C , 17-H ) :   0.9387 
B(  7-C , 18-H ) :   0.9302 B(  7-C , 19-H ) :   0.9350 

------------------------------------------
LOEWDIN REDUCED ORBITAL POPULATIONS PER MO
-------------------------------------------
THRESHOLD FOR PRINTING IS 0.1%%
                      0         1         2         3         4         5   
                 -18.79745 -18.72897 -10.00180  -9.94539  -9.89587  -9.88861
                   2.00000   2.00000   2.00000   2.00000   2.00000   2.00000
                  --------  --------  --------  --------  --------  --------
 0 C  px              0.0       0.0       0.0       0.0       0.0       0.1
 1 C  s               0.0       0.0       0.0       0.0       0.0      99.6
 2 C  s               0.0       0.0       0.0       0.0      99.6       0.0
 3 C  s               0.0       0.0      99.4       0.0       0.0       0.0
 3 C  px              0.0       0.0       0.0       0.0       0.1       0.0
 4 O  s               0.0      99.9       0.0       0.0       0.0       0.0
 4 O  py              0.0       0.0       0.2       0.0       0.0       0.0
 5 O  s              99.9       0.0       0.0       0.0       0.0       0.0
 5 O  py              0.0       0.0       0.1       0.0       0.0       0.0
 6 C  s               0.0       0.0       0.0      99.7       0.0       0.0

                      6         7         8         9        10        11   
                  -9.88591  -9.87748  -1.00377  -0.90505  -0.72831  -0.69424
                   2.00000   2.00000   2.00000   2.00000   2.00000   2.00000
                  --------  --------  --------  --------  --------  --------
 0 C  s               0.0      99.7       0.0       0.0       6.9       6.8
 0 C  px              0.0       0.0       0.0       0.0       1.8       0.8
 1 C  s               0.0       0.0       0.1       0.0      17.3       7.9
 1 C  px              0.0       0.1       0.1       0.0       0.0       0.8
 1 C  py              0.0       0.0       0.1       0.0       1.6       0.1
 2 C  s               0.0       0.0       0.9       0.3      18.9       2.0
 2 C  px              0.0       0.0       1.7       0.3       0.0       1.3
 2 C  py              0.0       0.0       0.0       0.3       1.7       0.5
 3 C  s               0.0       0.0      18.0       5.7       3.2       0.9
 3 C  pz              0.0       0.0       0.1       0.2       0.4       0.0
 3 C  px              0.0       0.0       4.1       0.3       6.1       0.4
 3 C  py              0.0       0.0       1.2      23.4       2.2       2.0
 3 C  dz2             0.0       0.0       0.6       0.1       0.0       0.0
 3 C  dyz             0.0       0.0       0.0       0.1       0.0       0.0
 3 C  dx2y2           0.0       0.0       0.4       0.2       0.0       0.1
 3 C  dxy             0.0       0.0       0.1       1.6       0.0       0.1
 4 O  s               0.0       0.0      10.1      42.9       1.1       0.2
 4 O  pz              0.0       0.0       0.0       0.1       0.0       0.0
 4 O  px              0.0       0.0       0.2       1.0       0.1       0.0
 4 O  py              0.0       0.0       2.3       3.4       0.1       0.1
 4 O  dxy             0.0       0.0       0.0       0.1       0.0       0.0
 5 O  s               0.0       0.0      42.6      14.0       0.0       1.3
 5 O  pz              0.0       0.0       0.0       0.0       0.1       0.1
 5 O  px              0.0       0.0       0.0       0.4       5.9       6.6
 5 O  py              0.0       0.0       3.1       0.3       0.6       1.5
 6 C  s               0.0       0.0       4.8       2.1       6.2      17.2
 6 C  pz              0.1       0.0       0.3       0.1       0.2       1.2
 6 C  px              0.0       0.0       5.4       1.4       0.1       1.8
 6 C  dx2y2           0.0       0.0       0.3       0.1       0.0       0.0
 7 C  s              99.7       0.0       0.3       0.2       3.2      18.3
 7 C  pz              0.0       0.0       0.2       0.1       0.5       1.3
 7 C  px              0.0       0.0       0.3       0.1       0.2       0.4
 8 H  s               0.0       0.1       0.0       0.0       1.3       1.4
 9 H  s               0.0       0.1       0.0       0.0       1.1       1.3
10 H  s               0.0       0.1       0.0       0.0       1.3       1.4
11 H  s               0.0       0.0       0.0       0.0       3.1       1.4
12 H  s               0.0       0.0       0.1       0.0       3.2       1.3
13 H  s               0.0       0.0       0.1       0.1       3.5       0.5
14 H  s               0.0       0.0       0.1       0.1       3.3       0.5
15 H  s               0.0       0.0       0.6       0.3       1.2       3.8
16 H  s               0.0       0.0       0.8       0.1       1.1       3.2
17 H  s               0.1       0.0       0.1       0.0       0.6       3.6
18 H  s               0.1       0.0       0.0       0.0       0.6       3.7
19 H  s               0.1       0.0       0.1       0.0       0.6       3.4

                     12        13        14        15        16        17   
                  -0.63795  -0.58797  -0.53446  -0.49646  -0.45339  -0.43762
                   2.00000   2.00000   2.00000   2.00000   2.00000   2.00000
                  --------  --------  --------  --------  --------  --------
 0 C  s              19.2       3.6       9.9       0.0       0.3       0.0
 0 C  pz              0.0       0.0       0.7       0.0       0.0       4.2
 0 C  px              0.0       0.3       8.7       0.0       0.7       0.4
 0 C  py              0.1       0.1       0.1       0.2       2.1       0.7
 0 C  dx2y2           0.0       0.0       0.2       0.0       0.0       0.0
 1 C  s               2.3       0.2      16.7       0.0       0.0       0.0
 1 C  pz              0.1       0.0       0.7       0.1       0.7      12.2
 1 C  px              6.2       1.0       4.8       0.0       0.8       0.9
 1 C  py              2.8       1.2       2.2       0.5       4.3       1.7
 1 C  dz2             0.0       0.0       0.1       0.0       0.0       0.0
 1 C  dx2y2           0.2       0.1       0.0       0.0       0.1       0.0
 2 C  s              11.5       5.2       2.2       0.7       1.2       0.1
 2 C  pz              0.0       0.0       0.2       0.5       2.0      18.5
 2 C  px              2.0       0.7       0.7       2.0      12.0       3.3
 2 C  py              1.0       0.3       9.9       0.7       0.0       0.5
 2 C  dx2y2           0.1       0.0       0.2       0.0       0.1       0.0
 3 C  s               2.9       1.2       1.1       2.3       1.2       0.1
 3 C  pz              0.6       0.0       0.4       0.6       0.0      14.7
 3 C  px              7.1       2.1       2.6       0.0       9.4       0.3
 3 C  py              0.5       3.2       0.1       2.4       0.3       0.0
 3 C  dx2y2           0.1       0.2       0.1       0.0       0.1       0.0
 4 O  s               1.1       0.1       0.9       1.0       0.0       0.0
 4 O  pz              0.0       0.0       0.1       0.1       0.0       4.2
 4 O  px              0.3       0.1       0.6       0.1       4.2       0.1
 4 O  py              0.1       0.3       0.1       1.2       0.5       0.0
 5 O  s               0.9       0.1       0.0       4.2       1.0       0.1
 5 O  pz              0.3       1.5       0.0       1.2       0.0      10.7
 5 O  px              1.8      12.9       0.1       6.4       3.0       0.1
 5 O  py              0.3       5.8       0.1       9.5      12.7       0.0
 5 O  dx2y2           0.0       0.1       0.0       0.0       0.0       0.0
 6 C  s               0.3       5.6       0.3       8.0       0.1       0.4
 6 C  pz              0.9       4.3       0.1      11.0       0.0       1.2
 6 C  px              2.8       4.1       0.0      10.2       0.4       0.5
 6 C  py              0.0       1.1       0.0       1.8      18.6       0.0
 6 C  dz2             0.1       0.1       0.0       0.0       0.0       0.0
 6 C  dxz             0.1       0.1       0.0       0.0       0.0       0.0
 6 C  dx2y2           0.0       0.0       0.0       0.6       0.0       0.0
 7 C  s               8.0      14.7       0.1       1.6       0.0       0.4
 7 C  pz              0.0       1.7       0.1       8.1       0.0       1.2
 7 C  px              0.0       1.1       0.0       0.1       0.3       2.2
 7 C  py              0.0       0.1       0.0       0.1       5.2       0.0
 7 C  dz2             0.0       0.0       0.0       0.1       0.0       0.0
 8 H  s               4.4       1.0       5.3       0.0       0.0       1.5
 9 H  s               4.9       1.3       4.0       0.1       1.3       0.1
10 H  s               4.4       1.0       5.3       0.0       0.0       0.9
11 H  s               0.5       0.0       8.2       0.2       0.8       2.3
12 H  s               0.5       0.0       8.1       0.0       0.6       4.3
13 H  s               2.8       1.8       2.0       1.1       2.9       4.0
14 H  s               2.6       2.1       1.9       0.9       1.5       6.1
15 H  s               0.1       3.1       0.2       4.6       6.1       0.1
16 H  s               0.1       1.4       0.1      12.8       2.4       0.0
17 H  s               1.9       4.5       0.1       3.2       0.8       0.2
18 H  s               2.2       5.3       0.1       0.1       0.2       1.1
19 H  s               1.8       5.0       0.1       1.3       1.4       0.2

                     18        19        20        21        22        23   
                  -0.41603  -0.39972  -0.38856  -0.36940  -0.35986  -0.35332
                   2.00000   2.00000   2.00000   2.00000   2.00000   2.00000
                  --------  --------  --------  --------  --------  --------
 0 C  pz              3.3       6.5       0.5      11.5       1.4       5.5
 0 C  px              0.1       0.2       2.8       0.4       0.8       2.1
 0 C  py              3.6       4.4       0.6       5.7      19.7       0.0
 0 C  dz2             0.0       0.0       0.0       0.2       0.1       0.0
 1 C  s               0.1       0.0       0.2       0.0       0.1       0.0
 1 C  pz              5.5       6.4       1.3       2.0       0.4       0.7
 1 C  px              0.1       1.0       1.5       2.8       0.2       0.4
 1 C  py              4.5       4.1       0.0       3.5       3.6       0.1
 2 C  s               0.1       0.0       0.1       0.0       0.4       0.1
 2 C  pz              3.1       0.6       0.2       6.5       1.0       5.5
 2 C  px              4.9       2.2       1.7       0.8       2.4       1.3
 2 C  py              1.6       0.6       0.1       6.7       6.2       1.1
 2 C  dz2             0.0       0.0       0.0       0.1       0.1       0.0
 2 C  dyz             0.0       0.0       0.0       0.0       0.1       0.1
 2 C  dxy             0.0       0.0       0.0       0.0       0.2       0.0
 3 C  s               2.0       0.1       1.9       0.2       0.5       0.0
 3 C  pz              1.5       3.7       1.2       4.0       2.6       0.3
 3 C  px              1.4       2.2       4.1       1.8       0.2       0.1
 3 C  py              1.8       0.8       1.5       0.2       2.4       0.6
 3 C  dxz             0.0       0.1       0.0       0.0       0.0       0.1
 3 C  dx2y2           0.4       0.0       0.0       0.0       0.0       0.0
 3 C  dxy             0.0       0.0       0.0       0.1       0.2       0.0
 4 O  s               6.0       1.0       9.3       0.0       1.7       0.3
 4 O  pz              1.8       1.3       0.1       3.1       4.1       0.0
 4 O  px              3.5       2.0       2.7       0.2       2.4       2.0
 4 O  py              5.9       0.9      25.9       0.0       3.9       0.5
 4 O  dx2y2           0.0       0.0       0.2       0.0       0.0       0.0
 5 O  s               1.1       0.0       1.1       0.5       0.1       1.2
 5 O  pz              2.3      14.9       1.1       0.0       0.0       3.6
 5 O  px              7.7       0.9       1.3       0.0       0.5       0.0
 5 O  py              1.8       0.5       5.5       0.0       2.5       1.1
 6 C  s               0.2       0.4       0.0       0.3       0.0       0.0
 6 C  pz              4.0       4.9       0.0       2.8       1.5       7.1
 6 C  px              1.3       3.9       0.1       0.1       0.6       1.7
 6 C  py              4.7       3.2       6.5       0.3       0.0       0.2
 6 C  dz2             0.0       0.1       0.0       0.1       0.1       0.0
 6 C  dx2y2           0.0       0.1       0.0       0.0       0.0       0.2
 6 C  dxy             0.0       0.0       0.2       0.0       0.1       0.0
 7 C  s               0.1       0.3       0.0       0.0       0.0       0.0
 7 C  pz              0.0       3.6       1.0       0.4       0.0      23.2
 7 C  px              7.1       4.5       0.1      16.2       5.1       5.7
 7 C  py              2.1       5.1      12.6       0.0       5.8       0.9
 7 C  dx2y2           0.0       0.0       0.0       0.1       0.0       0.4
 8 H  s               0.0       3.5       0.5       0.0       7.2       2.2
 9 H  s               1.5       1.1       1.1       2.4       7.2       0.4
10 H  s               1.8       1.3       0.1       7.9       0.1       2.0
11 H  s               3.5       0.8       0.3       1.4       0.0       0.3
12 H  s               0.0       3.9       0.0       0.1       0.5       0.2
13 H  s               1.4       0.4       0.1       6.2       0.2       2.3
14 H  s               0.0       0.3       0.0       0.3       6.7       3.1
15 H  s               3.2       1.3       1.9       0.3       0.0       1.5
16 H  s               0.1       1.2       2.3       0.0       0.0       1.4
17 H  s               0.2       0.0       4.3       0.9       2.5      11.4
18 H  s               3.3       1.8       0.0       8.9       2.6       6.5
19 H  s               0.7       3.1       3.5       0.4       1.5       1.8

                     24        25        26        27        28        29   
                  -0.33198  -0.32063  -0.31803  -0.30570  -0.29457  -0.28706
                   2.00000   2.00000   2.00000   2.00000   2.00000   2.00000
                  --------  --------  --------  --------  --------  --------
 0 C  s               0.0       0.1       0.2       0.2       0.0       0.0
 0 C  pz              0.1      13.4       0.0       0.5       7.6       0.6
 0 C  px             12.8       2.2      13.3       4.5       0.5       0.3
 0 C  py              0.3       0.8       4.2      10.3       0.2       2.6
 0 C  dz2             0.0       0.1       0.0       0.2       0.2       0.0
 0 C  dxz             0.1       0.1       0.0       0.0       0.3       0.1
 0 C  dyz             0.0       0.1       0.0       0.0       0.1       0.0
 0 C  dx2y2           0.1       0.1       0.2       0.0       0.0       0.0
 0 C  dxy             0.0       0.0       0.0       0.4       0.0       0.2
 1 C  s               0.0       0.0       0.1       0.2       0.0       0.0
 1 C  pz              0.3       4.1       0.1       0.7      17.5       2.0
 1 C  px             10.7       3.4      11.3       4.6       1.1       0.5
 1 C  py              0.5       0.3       0.7      15.8       0.1       4.5
 1 C  dz2             0.0       0.1       0.0       0.3       0.3       0.0
 1 C  dxz             0.1       0.1       0.1       0.0       0.2       0.1
 1 C  dyz             0.0       0.0       0.0       0.0       0.5       0.1
 1 C  dx2y2           0.1       0.1       0.2       0.0       0.0       0.0
 1 C  dxy             0.0       0.0       0.0       0.7       0.0       0.1
 2 C  s               0.5       0.1       0.3       0.8       0.0       0.0
 2 C  pz              0.6       6.6       0.5       0.5       7.1       0.9
 2 C  px              1.2       0.4       4.6       1.1       1.2       1.7
 2 C  py              4.1       0.1       1.4      14.6       0.2       1.6
 2 C  dz2             0.0       0.0       0.1       0.1       0.2       0.0
 2 C  dxz             0.0       0.2       0.0       0.0       0.0       0.0
 2 C  dyz             0.0       0.0       0.0       0.0       0.5       0.1
 2 C  dx2y2           0.1       0.0       0.3       0.0       0.0       0.0
 2 C  dxy             0.0       0.0       0.1       0.3       0.0       0.1
 3 C  s               0.1       0.0       0.3       0.3       0.0       0.3
 3 C  pz              0.6       8.2       1.9       0.1       0.5       0.0
 3 C  px              0.1       1.2       4.8       0.7       0.1       0.2
 3 C  py              0.0       0.0       1.0       0.3       0.3       3.6
 3 C  dxz             0.1       0.2       0.0       0.0       0.1       0.0
 3 C  dx2y2           0.3       0.1       0.0       0.1       0.0       0.6
 3 C  dxy             0.0       0.0       0.2       0.1       0.0       0.3
 4 O  s               0.1       0.0       0.7       0.2       0.1       0.7
 4 O  pz              1.8      13.4       0.6       0.0       1.0       0.4
 4 O  px              0.4       3.2       0.5       0.2       0.0       1.8
 4 O  py              0.0       0.0       9.8       0.4       0.5       5.5
 5 O  s               0.4       0.2       0.0       0.5       0.2       2.7
 5 O  pz              0.4       2.3       0.1       0.1       5.1       0.6
 5 O  px              5.5       1.4       1.0       2.7       0.1       7.1
 5 O  py              1.6       1.0       0.8       1.4       1.0      19.2
 6 C  s               0.1       0.0       0.0       0.0       0.0       0.1
 6 C  pz              2.5       5.6       0.9       0.1       2.4       0.6
 6 C  px              1.0       1.0       0.8       0.9       0.0       1.9
 6 C  py              3.8       0.2       5.4       1.3       0.9       8.1
 6 C  dxz             0.0       0.2       0.0       0.0       0.1       0.0
 6 C  dyz             0.2       0.0       0.3       0.1       0.1       0.5
 6 C  dx2y2           0.3       0.0       0.0       0.0       0.0       0.0
 6 C  dxy             0.0       0.0       0.0       0.0       0.0       0.3
 7 C  s               0.0       0.2       0.0       0.0       0.1       0.0
 7 C  pz              3.0       4.3       0.8       0.0       1.5       0.0
 7 C  px              3.7       3.2       1.0       0.6       0.4       0.7
 7 C  py             13.0       0.1       7.8       0.8       0.3       2.2
 7 C  dyz             0.2       0.0       0.3       0.0       0.1       0.2
 7 C  dx2y2           0.3       0.0       0.0       0.0       0.0       0.0
 8 H  s               1.8       2.7       0.3       4.6       3.5       2.8
 9 H  s               1.6       0.5       6.0       5.2       0.6       1.6
10 H  s               0.0       7.0       0.2       2.5       6.8       0.1
11 H  s               0.2       2.3       0.1       4.2      13.6       0.3
12 H  s               0.3       0.2       0.5       7.4       8.1       4.6
13 H  s               0.2       2.7       0.9       2.1       6.7       0.3
14 H  s               1.8       2.3       0.2       3.7       4.3       0.7
15 H  s               5.9       1.1       2.9       0.4       0.1       4.2
16 H  s               0.0       0.4       3.5       1.4       2.5       7.4
17 H  s               0.6       0.6       3.8       0.9       0.9       2.6
18 H  s               3.9       0.9       0.5       0.5       0.1       0.5
19 H  s              12.1       0.1       4.2       0.3       0.1       1.3

                     30        31        32        33        34        35   
                  -0.25329  -0.21288  -0.01710   0.03550   0.05190   0.07560
                   2.00000   2.00000   0.00000   0.00000   0.00000   0.00000
                  --------  --------  --------  --------  --------  --------
 0 C  s               0.0       0.2       0.0       8.4       2.7       0.0
 0 C  pz              0.1       0.0       0.2       0.1       0.0       2.6
 0 C  px              0.0       1.1       0.0       2.3       0.7       0.1
 0 C  py              0.0       0.2       0.0       0.1       0.1       0.9
 0 C  dz2             0.0       0.0       0.0       0.1       0.0       0.1
 0 C  dxz             0.0       0.0       0.0       0.1       0.0       0.1
 0 C  dx2y2           0.0       0.0       0.0       0.2       0.0       0.0
 1 C  s               0.0       0.2       0.2       6.9       0.4       1.8
 1 C  pz              0.7       0.0       0.0       0.1       0.1       4.4
 1 C  px              0.1       1.0       0.0       0.8       0.0       0.1
 1 C  py              0.0       1.0       0.1       1.3       0.1       0.1
 1 C  dz2             0.0       0.0       0.0       0.1       0.0       0.1
 1 C  dyz             0.0       0.0       0.0       0.0       0.0       0.4
 2 C  s               0.0       0.6       0.0       5.4       0.4       1.5
 2 C  pz              0.4       0.6       0.4       0.2       0.0       4.9
 2 C  px              0.1       5.1       0.1       0.2       0.2       0.7
 2 C  py              0.0       0.8       0.0       2.7       0.6       0.3
 2 C  dz2             0.0       0.0       0.6       0.1       0.0       0.1
 2 C  dxz             0.0       0.0       1.2       0.0       0.0       0.1
 2 C  dyz             0.0       0.0       0.1       0.1       0.0       0.2
 2 C  dx2y2           0.0       0.1       0.0       0.3       0.0       0.1
 3 C  s               0.0       0.5       0.0       1.1       0.4       0.1
 3 C  pz              0.8       0.0      44.8       0.5       0.3       0.9
 3 C  px              0.0       0.8       2.2       0.8       0.1       0.3
 3 C  py              0.0       0.6       0.2       0.1       0.4       0.2
 3 C  dz2             0.1       0.1       0.1       0.5       0.0       0.0
 3 C  dxz             0.0       0.1       0.7       0.1       0.0       0.0
 3 C  dyz             2.3       0.0       0.3       0.0       0.0       0.0
 3 C  dx2y2           0.0       2.4       0.0       0.0       0.0       0.0
 3 C  dxy             0.1       1.8       0.0       0.1       0.2       0.0
 4 O  s               0.0       0.0       0.0       0.2       0.3       0.0
 4 O  pz             37.3       0.9      23.7       0.2       0.2       0.7
 4 O  px              0.6      57.2       0.9       0.2       0.4       0.0
 4 O  py              0.6      13.5       0.2       0.1       0.1       0.0
 4 O  dyz             0.0       0.0       0.4       0.0       0.0       0.0
 5 O  s               0.0       0.3       0.0       1.3       0.0       0.8
 5 O  pz             39.0       0.1       9.6       0.3       0.8       0.8
 5 O  px              2.0       0.0       0.5       0.0       0.2       0.6
 5 O  py              0.1       7.5       0.1       0.1       0.1       0.0
 5 O  dxz             0.0       0.0       0.2       0.0       0.1       0.0
 5 O  dyz             0.0       0.0       0.3       0.0       0.0       0.0
 6 C  s               0.0       0.1       0.0       0.6       8.0       1.0
 6 C  pz              2.9       0.5       0.1       0.4       2.2       0.9
 6 C  px              0.2       0.5       0.1       1.5       0.2       5.0
 6 C  py              0.2       0.1       0.0       0.1       1.0       1.3
 6 C  dz2             0.0       0.0       0.0       0.0       0.1       0.2
 6 C  dxz             0.8       0.0       0.5       0.0       0.1       0.1
 6 C  dx2y2           0.1       0.0       0.1       0.1       0.0       0.5
 7 C  s               0.4       0.0       0.9       1.2      12.6       3.2
 7 C  pz              3.4       0.1       0.3       0.6       1.9       0.7
 7 C  px              2.0       0.0       0.1       0.3       2.2       0.3
 7 C  py              0.5       0.1       0.0       0.0       0.1       0.3
 7 C  dz2             0.0       0.0       0.0       0.1       0.2       0.2
 7 C  dxz             0.0       0.0       0.0       0.0       0.1       0.0
 7 C  dx2y2           0.0       0.0       0.0       0.0       0.0       0.2
 8 H  s               0.1       0.0       0.1       7.6       3.1       0.8
 9 H  s               0.0       0.5       0.0       5.1       1.2       2.5
10 H  s               0.2       0.0       0.3       6.9       2.6       5.8
11 H  s               0.5       0.1       0.2       7.4       0.3      16.2
12 H  s               0.2       0.0       0.0       8.0       0.1       0.6
13 H  s               0.3       0.1       5.8       8.7       0.7      15.7
14 H  s               0.2       0.1       2.8       9.3       1.5       0.0
15 H  s               1.2       0.1       0.2       1.6      15.9       9.8
16 H  s               1.4       0.3       0.3       0.7       5.1       0.5
17 H  s               0.1       0.0       0.2       1.8      11.6       3.0
18 H  s               0.6       0.1       0.4       1.7      15.1       0.5
19 H  s               0.2       0.1       0.3       0.7       4.9       7.1

                     36        37        38        39        40        41   
                   0.07935   0.08515   0.09430   0.09698   0.10495   0.12426
                   0.00000   0.00000   0.00000   0.00000   0.00000   0.00000
                  --------  --------  --------  --------  --------  --------
 0 C  s               5.4       4.0       2.1       4.3       0.9       0.4
 0 C  pz              0.7       2.8       1.1       0.4       0.0       0.1
 0 C  px              0.1       0.7       0.2       0.8       0.3       0.1
 0 C  py              3.6       0.1       0.7       3.2       0.1       0.7
 0 C  dz2             0.0       0.1       0.0       0.1       0.0       0.0
 0 C  dxz             0.1       0.1       0.1       0.0       0.0       0.1
 0 C  dx2y2           0.0       0.1       0.0       0.2       0.0       0.0
 0 C  dxy             0.1       0.0       0.0       0.2       0.0       0.0
 1 C  s               1.1       0.8       1.1       4.4       0.3       0.6
 1 C  pz              0.9       3.1       0.5       0.1       0.4       2.5
 1 C  px              1.9       0.2       0.0       0.2       0.2       0.1
 1 C  py              0.8       0.5       0.2       1.3       1.7       1.1
 1 C  dz2             0.0       0.2       0.0       0.0       0.1       0.1
 1 C  dxz             0.2       0.0       0.0       0.0       0.0       0.0
 1 C  dyz             0.0       0.3       0.0       0.0       0.0       0.0
 1 C  dx2y2           0.6       0.2       0.1       0.0       0.0       0.1
 1 C  dxy             0.2       0.1       0.1       0.3       0.0       0.0
 2 C  s               6.0       0.6       0.2       0.2       0.4       0.2
 2 C  pz              0.4       2.9       0.7       0.1       0.5       2.3
 2 C  px              1.8       0.3       1.4       1.2       1.0       1.1
 2 C  py              2.2       0.0       0.4       0.1       0.1       0.2
 2 C  dyz             0.0       0.2       0.1       0.0       0.0       0.0
 2 C  dx2y2           0.3       0.0       0.1       0.2       0.1       0.2
 2 C  dxy             0.2       0.0       0.1       0.0       0.2       0.1
 3 C  s               0.8       0.2       0.6       2.2       0.4       0.9
 3 C  pz              0.2       0.2       0.3       0.0       0.2       0.3
 3 C  px              0.7       0.2       0.1       0.1       0.1       0.0
 3 C  py              0.2       0.3       0.2       0.4       1.3       0.9
 3 C  dz2             0.2       0.0       0.1       0.5       0.1       0.1
 3 C  dx2y2           0.1       0.0       0.0       0.0       0.3       0.2
 3 C  dxy             0.2       0.1       0.1       0.0       0.4       0.1
 4 O  s               0.2       0.0       0.2       0.2       0.5       0.1
 4 O  pz              0.2       0.0       0.0       0.0       0.0       0.7
 4 O  px              0.1       0.1       0.2       0.1       0.0       0.6
 5 O  s               1.0       2.8       0.1       2.0       1.8       2.9
 5 O  pz              0.1       0.1       0.0       0.0       0.0       0.2
 5 O  px              0.4       2.0       0.2       0.2       4.5       1.3
 5 O  py              0.2       0.0       0.0       0.1       0.1       0.2
 5 O  dz2             0.0       0.0       0.0       0.0       0.1       0.1
 5 O  dx2y2           0.0       0.1       0.0       0.0       0.4       0.1
 5 O  dxy             0.0       0.0       0.1       0.1       0.0       0.3
 6 C  s               0.0       0.2       2.8       3.8       9.7       0.0
 6 C  pz              0.4       0.1       1.6       0.2       0.3       2.4
 6 C  px              2.6      10.3       1.7       1.6       4.5      10.7
 6 C  py              0.4       3.0       4.9       5.1       0.2       2.3
 6 C  dz2             0.2       0.3       0.5       0.1       0.4       0.0
 6 C  dxz             0.0       0.4       0.0       0.1       0.0       0.5
 6 C  dyz             0.1       0.3       0.5       0.4       0.1       0.2
 6 C  dx2y2           0.2       0.9       0.1       0.1       1.0       1.1
 6 C  dxy             0.0       0.0       0.0       0.0       0.0       0.2
 7 C  s               0.1       4.0       1.4       1.1       3.6       0.0
 7 C  pz              0.3       0.1       1.6       0.2       1.7       3.6
 7 C  px              0.6       0.2       2.8       0.1       6.3       5.6
 7 C  py              0.8       1.2       4.4       1.5       0.9       1.7
 7 C  dz2             0.2       0.2       0.5       0.0       0.0       0.2
 7 C  dxz             0.0       0.0       0.1       0.0       0.1       0.1
 7 C  dyz             0.1       0.2       0.5       0.3       0.0       0.1
 7 C  dx2y2           0.1       0.3       0.1       0.0       1.2       0.1
 7 C  dxy             0.0       0.0       0.0       0.0       0.0       0.3
 8 H  s               0.5      12.6       0.4       8.8       1.4       2.3
 9 H  s              15.6       3.0       3.9       0.7       0.7       0.2
10 H  s               3.7       0.3       4.3      11.0       0.9       0.2
11 H  s               0.0       1.8       3.4       6.9       3.3       8.7
12 H  s              10.9       8.9       0.4       6.7       1.0       0.1
13 H  s               3.7       6.8       0.2       0.1       1.6       4.2
14 H  s              19.8       1.2       4.1       0.1       0.1       0.5
15 H  s               0.0       6.6       0.5      19.8       3.6       0.8
16 H  s               2.3       1.7      23.0       0.4       8.7       9.1
17 H  s               4.0       0.4      21.8       0.4       0.5      13.4
18 H  s               1.4       1.8       2.7       0.3      29.6      11.6
19 H  s               0.1       9.5       0.4       6.8       1.6       0.0

                     42        43        44        45        46        47   
                   0.12547   0.13427   0.13929   0.14839   0.17923   0.18302
                   0.00000   0.00000   0.00000   0.00000   0.00000   0.00000
                  --------  --------  --------  --------  --------  --------
 0 C  s               0.1       0.2       0.0       0.2       0.7       0.9
 0 C  pz              0.7       1.9      15.4       0.7       0.1       0.1
 0 C  px              0.5       0.0       0.7       0.2       5.3       4.8
 0 C  py             13.1       2.1       1.5       0.4       0.0       1.8
 0 C  dz2             0.7       0.1       0.1       0.2       0.2       0.0
 0 C  dxz             0.0       0.0       0.0       0.4       0.3       0.1
 0 C  dyz             0.0       0.1       1.1       0.0       0.0       0.2
 0 C  dx2y2           0.2       0.1       0.0       0.2       0.9       1.7
 0 C  dxy             0.2       0.0       0.1       0.0       0.0       0.8
 1 C  s               3.9       0.1       0.0       0.5       2.3       7.6
 1 C  pz              0.1       1.4       4.2       7.3       0.1       0.8
 1 C  px              2.5       0.0       0.6       0.2       3.0       0.9
 1 C  py              0.3       0.3       0.2       0.5       0.1      21.1
 1 C  dz2             0.0       0.0       0.0       0.1       0.2       2.8
 1 C  dxz             0.2       0.0       0.3       0.5       0.3       0.2
 1 C  dyz             0.0       0.1       0.7       0.0       0.0       0.2
 1 C  dx2y2           0.2       0.0       0.2       0.2       0.4       0.7
 1 C  dxy             0.5       0.1       0.0       0.0       0.0       0.6
 2 C  s               3.2       1.2       0.2       0.0       0.1       2.9
 2 C  pz              0.2       0.0       2.2       9.9       1.6       0.3
 2 C  px              0.6       1.1       0.4       3.1       0.6       5.9
 2 C  py              0.4       0.2       0.2       0.7       0.0      13.0
 2 C  dz2             0.2       0.0       0.1       0.0       0.0       0.6
 2 C  dxz             0.1       0.1       0.0       0.2       0.0       0.1
 2 C  dyz             0.0       0.1       0.8       0.0       0.0       0.0
 2 C  dx2y2           0.0       0.0       0.0       0.0       0.0       2.7
 2 C  dxy             0.0       0.0       0.1       0.1       0.2       2.3
 3 C  s               0.3       0.1       0.1       0.9       5.5       1.1
 3 C  pz              0.0       0.1       0.7       1.7       1.0       0.3
 3 C  px              0.3       0.3       0.1       0.0       1.1       0.0
 3 C  py              0.3       0.0       0.0       0.0       0.1       4.1
 3 C  dz2             0.0       0.0       0.0       0.1       1.5       0.1
 3 C  dxz             0.0       0.0       0.0       0.5       0.1       0.1
 3 C  dyz             0.0       0.1       0.0       0.0       0.0       0.1
 3 C  dx2y2           0.0       0.0       0.0       0.0       0.1       0.0
 3 C  dxy             0.0       0.0       0.0       0.0       0.1       1.4
 4 O  s               0.2       0.1       0.0       0.0       0.6       0.6
[...]
 2 C  px              1.5       0.2       0.0       0.0       0.1       0.2
 2 C  py              1.8       0.1       0.0       0.0       0.0       0.0
 2 C  dz2             0.5       0.6       0.1       0.1       0.7       0.0
 2 C  dxz             1.4       0.4       0.2       0.8       0.0       0.0
 2 C  dyz             0.2       0.0       0.0       0.1       0.2       0.0
 2 C  dx2y2          12.0       0.9       0.0       0.0       0.0       1.0
 2 C  dxy             2.5       0.0       0.0       0.0       6.8       0.7
 3 C  s               1.0       0.1       0.0       0.0       0.3       1.2
 3 C  pz              0.0       0.0       0.0       1.1       0.0       0.0
 3 C  px              0.9       0.5       0.0       0.0       0.1       0.6
 3 C  py              0.0       0.2       0.0       0.0       0.4       2.7
 3 C  dz2             0.7       2.4       0.0       1.4       0.3       1.2
 3 C  dxz             0.1       0.4       1.1       8.1       0.9       0.9
 3 C  dyz             0.0       0.0       1.1       1.0       0.6       0.8
 3 C  dx2y2           0.4       0.1       0.1       1.0       2.3       1.0
 3 C  dxy             0.1       0.0       0.0       0.3       9.8       1.4
 4 O  s               0.0       0.0       0.0       0.0       1.3       0.4
 4 O  pz              0.0       0.0       0.0       0.3       0.0       0.1
 4 O  px              0.1       0.0       0.0       0.0       0.4       0.6
 4 O  py              0.1       0.0       0.0       0.0       0.3       0.1
 4 O  dz2             0.2      50.2       1.5       0.0       5.6       0.1
 4 O  dxz             2.3       6.0       5.4       0.7       2.6       2.0
 4 O  dyz             0.5       0.0       0.7      25.5       0.1       2.0
 4 O  dx2y2           5.2       6.5       0.2       0.9       4.1       8.3
 4 O  dxy             4.1      15.2       0.1       0.4       3.1      12.6
 5 O  s               0.0       0.1       0.0       0.0       0.6       7.7
 5 O  pz              0.0       0.0       1.2       0.3       0.2       0.0
 5 O  px              0.1       0.0       0.0       0.2       2.4       0.1
 5 O  py              0.2       0.5       0.0       0.0       0.3       1.1
 5 O  dz2             0.5       5.2       7.6       0.1      20.1      29.6
 5 O  dxz             0.0       0.3      40.2      13.7       1.7       6.3
 5 O  dyz             2.8       0.3      16.4      35.5       5.4       0.1
 5 O  dx2y2           0.5       1.4       1.0       1.8       0.2       0.4
 5 O  dxy             0.1       2.1       1.2       3.5      17.2      11.0
 6 C  s               0.0       0.4       0.2       0.0       0.6       0.5
 6 C  pz              0.0       0.1       0.3       0.0       0.0       0.0
 6 C  px              0.0       0.1       0.1       0.0       0.8       0.8
 6 C  py              0.0       0.3       0.0       0.0       0.1       0.0
 6 C  dz2             0.0       0.6       1.0       0.4       1.0       1.0
 6 C  dxz             0.0       0.2      13.7       0.9       0.7       0.3
 6 C  dyz             0.0       0.2       0.1       0.6       0.0       0.1
 6 C  dx2y2           0.1       0.1       1.0       0.1       1.2       1.8
 6 C  dxy             0.6       1.1       0.1       0.0       2.5       0.4
 7 C  s               0.0       0.2       0.1       0.0       0.0       0.0
 7 C  pz              0.0       0.1       0.2       0.0       0.0       0.0
 7 C  px              0.0       0.0       0.1       0.0       0.0       0.0
 7 C  dz2             0.0       0.0       3.2       0.4       0.0       0.0
 7 C  dxz             0.1       0.3       0.3       0.0       0.2       0.1
 7 C  dyz             0.0       0.0       0.3       0.0       0.0       0.0
 7 C  dx2y2           0.0       0.1       0.6       0.1       0.1       0.1
 9 H  s               0.1       0.0       0.0       0.0       0.0       0.0
15 H  s               0.0       0.2       0.0       0.0       0.0       0.0
16 H  s               0.0       0.1       0.0       0.1       0.0       0.0
18 H  s               0.0       0.0       0.2       0.0       0.0       0.0

                    132       133       134       135   
                   3.11766   3.32176   3.49045   3.56589
                   0.00000   0.00000   0.00000   0.00000
                  --------  --------  --------  --------
 1 C  dx2y2           0.0       0.0       0.2       0.0
 2 C  s               0.0       0.2       0.1       0.0
 2 C  px              0.0       0.1       0.4       0.1
 2 C  dxz             0.3       0.0       0.1       0.0
 2 C  dyz             0.3       0.0       0.0       0.0
 2 C  dx2y2           0.0       0.2       1.3       0.3
 2 C  dxy             0.0       0.5       0.8       0.4
 3 C  s               0.0       3.8       0.1       6.2
 3 C  pz              0.3       0.1       0.0       0.1
 3 C  px              0.0       1.6       0.0       1.1
 3 C  py              0.0       0.1       3.8       2.9
 3 C  dz2             1.0       0.3       0.3       1.5
 3 C  dxz             0.5       0.5       0.5       0.0
 3 C  dyz            17.4       0.1       0.3       0.4
 3 C  dx2y2           0.0       5.0       7.3      10.8
 3 C  dxy             1.2       0.7      12.2       0.9
 4 O  s               0.0       1.7       0.9       4.1
 4 O  pz              0.8       0.0       0.0       0.1
 4 O  px              0.1       0.0       0.1       1.2
 4 O  py              0.0       0.9       1.1       2.0
 4 O  dz2             4.3       4.4       2.0       8.7
 4 O  dxz            10.5       0.0       0.4       1.6
 4 O  dyz            37.2       0.4       0.2       3.6
 4 O  dx2y2           0.4      14.9      25.7       3.8
 4 O  dxy             4.7       0.1       0.4      34.9
 5 O  s               0.2       0.1       0.7       0.3
 5 O  px              0.0       1.6       2.2       0.2
 5 O  py              0.0       1.1       1.3       0.1
 5 O  dz2             2.9       0.1       2.7       1.1
 5 O  dxz             8.8       2.5       0.1       0.5
 5 O  dyz             5.6       0.1       0.5       0.4
 5 O  dx2y2           0.8      49.9       8.1       4.3
 5 O  dxy             0.5       0.2      23.9       7.0
 6 C  s               0.0       0.8       0.3       0.0
 6 C  px              0.0       1.7       0.3       0.1
 6 C  dz2             0.1       1.1       0.0       0.1
 6 C  dxz             1.2       0.8       0.0       0.1
 6 C  dyz             0.1       0.0       0.0       0.0
 6 C  dx2y2           0.0       3.9       0.5       0.2
 6 C  dxy             0.0       0.1       0.5       0.4
 7 C  dz2             0.2       0.0       0.0       0.0
 7 C  dxz             0.0       0.2       0.0       0.0


                      *****************************
                      * MAYER POPULATION ANALYSIS *
                      *****************************

  NA   - Mulliken gross atomic population
  ZA   - Total nuclear charge
  QA   - Mulliken gross atomic charge
  VA   - Mayer's total valence
  BVA  - Mayer's bonded valence
  FA   - Mayer's free valence

  ATOM       NA         ZA         QA         VA         BVA        FA
  0 C      6.2566     6.0000    -0.2566     4.0090     4.0090    -0.0000
  1 C      6.1885     6.0000    -0.1885     4.1656     4.1656     0.0000
  2 C      6.1945     6.0000    -0.1945     3.9509     3.9509    -0.0000
  3 C      5.8640     6.0000     0.1360     4.3795     4.3795    -0.0000
  4 O      8.2153     8.0000    -0.2153     2.2778     2.2778    -0.0000
  5 O      8.2363     8.0000    -0.2363     2.2808     2.2808    -0.0000
  6 C      6.0123     6.0000    -0.0123     4.0538     4.0538    -0.0000
  7 C      6.3046     6.0000    -0.3046     4.0154     4.0154    -0.0000
  8 H      0.9021     1.0000     0.0979     0.9564     0.9564    -0.0000
  9 H      0.8956     1.0000     0.1044     0.9502     0.9502     0.0000
 10 H      0.9037     1.0000     0.0963     0.9572     0.9572    -0.0000
 11 H      0.9078     1.0000     0.0922     0.9490     0.9490     0.0000
 12 H      0.9056     1.0000     0.0944     0.9567     0.9567    -0.0000
 13 H      0.8846     1.0000     0.1154     0.9578     0.9578    -0.0000
 14 H      0.8893     1.0000     0.1107     0.9692     0.9692    -0.0000
 15 H      0.8990     1.0000     0.1010     0.9502     0.9502    -0.0000
 16 H      0.8916     1.0000     0.1084     0.9791     0.9791     0.0000
 17 H      0.8879     1.0000     0.1121     0.9570     0.9570    -0.0000
 18 H      0.8876     1.0000     0.1124     0.9549     0.9549    -0.0000
 19 H      0.8730     1.0000     0.1270     0.9679     0.9679    -0.0000

  Mayer bond orders larger than 0.100000
B(  0-C ,  1-C ) :   1.1513 B(  0-C ,  8-H ) :   0.9536 B(  0-C ,  9-H ) :   0.9536 
B(  0-C , 10-H ) :   0.9537 B(  1-C ,  2-C ) :   1.1269 B(  1-C , 11-H ) :   0.9325 
B(  1-C , 12-H ) :   0.9203 B(  2-C ,  3-C ) :   1.0312 B(  2-C , 13-H ) :   0.8930 
B(  2-C , 14-H ) :   0.9054 B(  3-C ,  4-O ) :   2.0398 B(  3-C ,  5-O ) :   1.2214 
B(  5-O ,  6-C ) :   0.9202 B(  6-C ,  7-C ) :   1.1745 B(  6-C , 15-H ) :   0.9370 
B(  6-C , 16-H ) :   0.9127 B(  7-C , 17-H ) :   0.9493 B(  7-C , 18-H ) :   0.9446 
B(  7-C , 19-H ) :   0.9457 

-------
TIMINGS
-------

Total SCF time: 0 days 0 hours 0 min 7 sec 

Total time                  ....       7.383 sec
Sum of individual times     ....       6.932 sec  ( 93.9%)

SCF preparation             ....       0.165 sec  (  2.2%)
Fock matrix formation       ....       6.004 sec  ( 81.3%)
  Startup                   ....       0.052 sec  (  0.9% of F)
  Split-RI-J                ....       2.182 sec  ( 36.3% of F)
  XC integration            ....       3.295 sec  ( 54.9% of F)
    Basis function eval.    ....       1.185 sec  ( 36.0% of XC)
    Density eval.           ....       0.404 sec  ( 12.3% of XC)
    XC-Functional eval.     ....       0.313 sec  (  9.5% of XC)
    XC-Potential eval.      ....       0.653 sec  ( 19.8% of XC)
Diagonalization             ....       0.000 sec  (  0.0%)
Density matrix formation    ....       0.156 sec  (  2.1%)
Total Energy calculation    ....       0.034 sec  (  0.5%)
Population analysis         ....       0.076 sec  (  1.0%)
Orbital Transformation      ....       0.047 sec  (  0.6%)
Orbital Orthonormalization  ....       0.000 sec  (  0.0%)
DIIS solution               ....       0.366 sec  (  5.0%)
  MO trafo                  ....       0.000 sec  (  0.0 % of DIIS)
  Orb grad                  ....       0.000 sec  (  0.0 % of DIIS)
  Energy W gradient         ....       0.000 sec  (  0.0 % of DIIS)
  DIIS error                ....       0.006 sec  (  1.6 % of DIIS)
  DIIS work                 ....       0.315 sec  ( 86.0 % of DIIS)
  Form Q                    ....       0.000 sec  (  0.0 % of DIIS)
  Form QpQm                 ....       0.000 sec  (  0.0 % of DIIS)
  Exp/Cayley                ....       0.000 sec  (  0.0 % of DIIS)
  Orb update                ....       0.000 sec  (  0.0 % of DIIS)
  Wake-sleep                ....       0.021 sec  (  5.6 % of DIIS)
SOSCF solution              ....       0.084 sec  (  1.1%)
  MO trafo                  ....       0.038 sec  ( 45.7 % of SOSCF)
  Orb grad                  ....       0.002 sec  (  1.8 % of SOSCF)
  Rot update                ....       0.021 sec  ( 24.9 % of SOSCF)
  Step                      ....       0.023 sec  ( 27.5 % of SOSCF)
Finished LeanSCF after   7.5 sec

Maximum memory used throughout the entire LEANSCF-calculation: 12.7 MB


-------------------------------------------------------------------------------
                          DFT DISPERSION CORRECTION                            
                                                                               
                                DFTD4 V3.4.0                                   
-------------------------------------------------------------------------------
The PBE functional is recognized
Active option DFTDOPT                   ...         5   

-------------------------   ----------------
Dispersion correction           -0.014783008
-------------------------   ----------------

------------------   -----------------
gCP correction             0.090075332
------------------   -----------------

-------------------------   --------------------
FINAL SINGLE POINT ENERGY      -385.456967521564
-------------------------   --------------------


------------------------------------------------------------------------------
                              ORCA PROPERTY CALCULATIONS
------------------------------------------------------------------------------

GBWName                                 ... sp.gbw
Number of atoms                         ...     20
Number of basis functions               ...    136
Max core memory                         ...   1024 MB

Electric properties:
Dipole moment                           ... YES
Quadrupole moment                       ...  NO
Static polarizability (Dipole/Dipole)   ...  NO
Static polarizability (Dipole/Quad.)    ...  NO
Static polarizability (Quad./Quad.)     ...  NO
Static polarizability (Velocity)        ...  NO

Atomic electric properties:
Dipole moment                           ...  NO
Quadrupole moment                       ...  NO
Static polarizability                   ...  NO

Choice of electric origin               ... Center of mass
Position of electric origin             ...    -0.000015    -0.000017     0.000009

General magnetic properties:
Magnetizability                         ...  NO

EPR properties:
g-Tensor (aka g-matrix)                 ...  NO
Zero-Field splitting spin-orbit         ...  NO
Zero-field splitting spin-spin          ...  NO
Hyperfine couplings                     ...  NO (   0 nuclei)
Quadrupole couplings                    ...  NO (   0 nuclei)
Contact density                         ...  NO (   0 nuclei)

NMR properties:
Chemical shifts                         ...  NO (   0 nuclei)
Spin-rotation constants                 ...  NO (   0 nuclei)
Spin-spin couplings                     ...  NO (   0 nuclei,    0 pairs)

Choice of magnetic origin               ... GIAO
Position of magnetic origin             ...     0.000000     0.000000     0.000000

Properties with geometric perturbations:
SCF Hessian                             ...  NO
IR spectrum                             ...  NO
VCD spectrum                            ...  NO
X-ray spectroscopy properties:
SCF XES/XAS/RIXS spectra                ...  NO


-------------
DIPOLE MOMENT
-------------

Method             : SCF
Type of density    : Electron Density
Multiplicity       :   1
Irrep              :   0
Energy             :  -385.5322598454922627 Eh
Relativity type    : 
Basis              : AO
                                X                 Y                 Z
Electronic contribution:      3.421054898       4.176210850      -2.418842805
Nuclear contribution   :     -3.370963883      -4.927594908       2.553260563
                        -----------------------------------------
Total Dipole Moment    :      0.050091015      -0.751384058       0.134417758
                        -----------------------------------------
Magnitude (a.u.)       :      0.764954408
Magnitude (Debye)      :      1.944359584



--------------------
Rotational spectrum 
--------------------
 
Rotational constants in cm-1:             0.139093             0.033303             0.029154 
Rotational constants in MHz :          4169.917020           998.408008           874.019955 

Dipole components along the rotational axes: 
x,y,z [a.u.] :    -0.057413     0.762797     0.000616 
x,y,z [Debye]:    -0.145933     1.938875     0.001567 

 

Dipole moment calculation done in   0.0 sec 

Maximum memory used throughout the entire PROP-calculation: 8.0 MB

--------------------------------
SUGGESTED CITATIONS FOR THIS RUN
--------------------------------

Below you find a list of papers that are relevant to this ORCA run
We neither can nor want to force you to cite these papers, but we appreciate if you do
You receive ORCA, which is the product of decades of hard work by many enthusiastic individuals, for free
The only thing we kindly ask in return is that you cite our papers,
We deeply appreciate it, if you show your appreciation for ORCA by not just citing the generic ORCA reference.

Please note that relegating all ORCA citations to the supporting information does *not* help us.
SI sections are not indexed - citations you put there will not count into any citation statistics
But we need these citations in order to attract the funding resources that allow us to do what we are doing

Therefore, if you are a happy ORCA user, please consider citing a few of the papers listed below in the main body of your paper

In addition to the list printed below, the program has created the file sp.bibtex that contains the list in bibtex format
You can import this file easily into all common literature databanks and citation aid programs


List of essential papers. We consider these as the minimum necessary citations

  1. Neese,F.
     Software update: the ORCA program system, version 5.0
     WIRES Comput. Molec. Sci., 2022 12(1)e1606
     doi.org/10.1002/wcms.1606

List of papers to cite with high priority. The work reported in these papers was absolutely
necessary for this run to complete.
Our perspective: the developers of density functionals and basis sets usually get cited in chemistry papers
Good! But without the algorithms to do something with them, the functionals or basis sets would not do anything.
Hence, in our opinion, the algorithm design and method developments papers are equally worthy of getting cited

  1. Neese,F.
     An improvement of the resolution of the identity approximation for the formation of the Coulomb matrix
     J. Comp. Chem., 2003 24(14)1740-1747
     doi.org/10.1002/jcc.10318
  2. Neese,F.
     The SHARK Integral Generation and Digestion System
     J. Comp. Chem., 2022  1-16
     doi.org/10.1002/jcc.26942
  3. Caldeweyher,E.; Bannwarth,C.; Grimme,S.
     Extension of the D3 dispersion coefficient model
     J. Chem. Phys., 2017 147 034112-XXXX
     doi.org/10.1063/1.4993215
  4. Caldeweyher,E.; Ehlert,S.; Hansen,A.; Neugebauer,H.; Spicher,S.; Bannwarth,C.; Grimme,S.
     A generally applicable atomic-charge dependent London dispersion correction
     J. Chem. Phys., 2019 150 154122-XXXX
     doi.org/10.1063/1.5090222
  5. Caldeweyher,E.; Mewes,J.; Ehlert,S.; Grimme,S.
     Extension and evaluation of the D4 London-dispersion model for periodic systems
     Phys. Chem. Chem. Phys., 2020 22(16)8499-8512
     doi.org/10.1039/D0CP00502A

List of suggested additional citations. These are papers that are important in the 'surrounding' of 
of this run, or papers that preceded the highly important papers. If you like your results we are grateful for a citation.

  1. Neese,F.
     The ORCA program system
     WIRES Comput. Molec. Sci., 2012 2(1)73-78
     doi.org/10.1002/wcms.81
  2. Neese,F.
     Software update: the ORCA program system, version 4.0
     WIRES Comput. Molec. Sci., 2018 8(1)1-6
     doi.org/10.1002/wcms.1327
  3. Neese,F.; Wennmohs,F.; Becker,U.; Riplinger,C.
     The ORCA quantum chemistry program package
     J. Chem. Phys., 2020 152 Art. No. L224108
     doi.org/10.1063/5.0004608

List of optional additional citations

  1. Neese,F.
     Approximate second-order SCF convergence for spin unrestricted wavefunctions
     Chem. Phys. Lett., 2000 325(1-3)93-98
     doi.org/10.1016/s0009-2614(00)00662-x

Timings for individual modules:

Sum of individual times          ...        9.175 sec (=   0.153 min)
Startup calculation              ...        0.761 sec (=   0.013 min)   8.3 %
SCF iterations                   ...        8.306 sec (=   0.138 min)  90.5 %
Property calculations            ...        0.107 sec (=   0.002 min)   1.2 %
                             ****ORCA TERMINATED NORMALLY****
TOTAL RUN TIME: 0 days 0 hours 0 minutes 9 seconds 866 msec
