
                                 *****************
                                 * O   R   C   A *
                                 *****************

                                            #,                                       
                                            ###                                      
                                            ####                                     
                                            #####                                    
                                            ######                                   
                                           ########,                                 
                                     ,,################,,,,,                         
                               ,,#################################,,                 
                          ,,##########################################,,             
                       ,#########################################, ''#####,          
                    ,#############################################,,   '####,        
                  ,##################################################,,,,####,       
                ,###########''''           ''''###############################       
              ,#####''   ,,,,##########,,,,          '''####'''          '####       
            ,##' ,,,,###########################,,,                        '##       
           ' ,,###''''                  '''############,,,                           
         ,,##''                                '''############,,,,        ,,,,,,###''
      ,#''                                            '''#######################'''  
     '                                                          ''''####''''         
             ,#######,   #######,   ,#######,      ##                                
            ,#'     '#,  ##    ##  ,#'     '#,    #''#        ,####,   ,####,        
            ##       ##  ##   ,#'  ##            #'  '#       #'       #'  '#        
            ##       ##  #######   ##           ,######,      #####,   #    #        
            '#,     ,#'  ##    ##  '#,     ,#' ,#      #,     #,   #   #,  ,#        
             '#######'   ##     ##  '#######'  #'      '#     '####' # '####'        



                #########################################################
                #                        -***-                          #
                #          Department of theory and spectroscopy        #
                #                                                       #
                #                      Frank Neese                      #
                #                                                       #
                #     Directorship, Architecture, Infrastructure        #
                #                    SHARK, DRIVERS                     #
                #        Core code/Algorithms in most modules           #
                #                                                       #
                #        Max Planck Institute fuer Kohlenforschung      #
                #                Kaiser Wilhelm Platz 1                 #
                #                 D-45470 Muelheim/Ruhr                 #
                #                      Germany                          #
                #                                                       #
                #                  All rights reserved                  #
                #                        -***-                          #
                #########################################################


                         Program Version 6.0.0  -   RELEASE  -


 With contributions from (in alphabetic order):
   Daniel Aravena         : Magnetic Suceptibility
   Michael Atanasov       : Ab Initio Ligand Field Theory (pilot matlab implementation)
   Alexander A. Auer      : GIAO ZORA, VPT2 properties, NMR spectrum
   Ute Becker             : All parallelization in ORCA, NUMFREQ, NUMCALC
   Giovanni Bistoni       : ED, misc. LED, open-shell LED, HFLD
   Martin Brehm           : Molecular dynamics
   Dmytro Bykov           : pre 5.0 version of the SCF Hessian
   Marcos Casanova-Páez   : Triplet and SCS-CIS(D). UHF-(DLPNO)-IP/EA/STEOM-CCSD. UHF-CVS-IP/STEOM-CCSD
   Vijay G. Chilkuri      : MRCI spin determinant printing, contributions to CSF-ICE
   Pauline Colinet        : FMM embedding
   Dipayan Datta          : RHF DLPNO-CCSD density
   Achintya Kumar Dutta   : EOM-CC, STEOM-CC
   Nicolas Foglia         : Exact transition moments, OPA infrastructure, MCD improvements
   Dmitry Ganyushin       : Spin-Orbit,Spin-Spin,Magnetic field MRCI
   Miquel Garcia          : C-PCM and meta-GGA Hessian, CCSD/C-PCM, Gaussian charge scheme
   Tiago L. C. Gouveia    : GS-ROHF, GS-ROCIS
   Yang Guo               : DLPNO-NEVPT2, F12-NEVPT2, CIM, IAO-localization
   Andreas Hansen         : Spin unrestricted coupled pair/coupled cluster methods
   Ingolf Harden          : AUTO-CI MPn and infrastructure 
   Benjamin Helmich-Paris : MC-RPA, TRAH-(SCF,CASSCF), AVAS, COSX integrals, SCF dyn. polar.
   Lee Huntington         : MR-EOM, pCC
   Robert Izsak           : Overlap fitted RIJCOSX, COSX-SCS-MP3, EOM
   Riya Kayal             : Wick's Theorem for AUTO-CI, AUTO-CI UHF-CCSDT
   Emily Kempfer          : AUTO-CI, RHF CISDT and CCSDT
   Christian Kollmar      : KDIIS, OOCD, Brueckner-CCSD(T), CCSD density, CASPT2, CASPT2-K, improved NEVPT2
   Axel Koslowski         : Symmetry handling
   Simone Kossmann        : Meta GGA functionals, TD-DFT gradient, OOMP2, (MP2 Hessian; deprecated post 5.0)
   Lucas Lang             : DCDCAS
   Marvin Lechner         : AUTO-CI (C++ implementation), FIC-MRCC
   Spencer Leger          : CASSCF response
   Dagmar Lenk            : GEPOL surface, SMD, ORCA-2-JSON
   Dimitrios Liakos       : Extrapolation schemes; Compound Job, initial MDCI parallelization
   Dimitrios Manganas     : Further ROCIS development; embedding schemes. LFT, Crystal Embedding
   Dimitrios Pantazis     : SARC Basis sets
   Anastasios Papadopoulos: AUTO-CI, single reference methods and gradients
   Taras Petrenko         : pre 6.0 DFT Hessian and TD-DFT gradient, (ASA, deprecated), ECA, 1-Electron XAS/XES, NRVS
   Peter Pinski           : DLPNO-MP2, DLPNO-MP2 Gradient
   Christoph Reimann      : Effective Core Potentials
   Marius Retegan         : Local ZFS, SOC
   Christoph Riplinger    : Optimizer, TS searches, QM/MM, DLPNO-CCSD(T), (RO)-DLPNO pert. Triples
   Michael Roemelt        : Original ROCIS implementation
   Masaaki Saitow         : Open-shell DLPNO-CCSD energy and density
   Barbara Sandhoefer     : DKH picture change effects
   Kantharuban Sivalingam : CASSCF convergence/infrastructure, NEVPT2 and variants, FIC-MRCI
   Bernardo de Souza      : ESD, SOC TD-DFT
   Georgi Stoychev        : AutoAux, RI-MP2 NMR, DLPNO-MP2 response, X2C
   Van Anh Tran           : RI-MP2 g-tensors
   Willem Van den Heuvel  : Paramagnetic NMR
   Zikuan Wang            : NOTCH, Electric field optimization 
   Frank Wennmohs         : Technical directorship and infrastructure
   Hang Xu                : AUTO-CI-Response properties 


 We gratefully acknowledge several colleagues who have allowed us to
 interface, adapt or use parts of their codes:
   Stefan Grimme, W. Hujo, H. Kruse, P. Pracht,  : VdW corrections, initial TS optimization,
                  C. Bannwarth, S. Ehlert,         DFT functionals, gCP, sTDA/sTD-DF
                  L. Wittmann, M. Mueller
   Ed Valeev, F. Pavosevic, A. Kumar             : LibInt (2-el integral package), F12 methods
   Garnet Chan, S. Sharma, J. Yang, R. Olivares  : DMRG
   Ulf Ekstrom                                   : XCFun DFT Library
   Mihaly Kallay                                 : mrcc  (arbitrary order and MRCC methods)
   Frank Weinhold                                : gennbo (NPA and NBO analysis)
   Simon Mueller                                 : openCOSMO-RS
   Christopher J. Cramer and Donald G. Truhlar   : smd solvation model
   Lars Goerigk                                  : TD-DFT with DH, B97 family of functionals
   V. Asgeirsson, H. Jonsson                     : NEB implementation
   FAccTs GmbH                                   : IRC, NEB, NEB-TS, DLPNO-Multilevel, CI-OPT
                                                   MM, QMMM, 2- and 3-layer-ONIOM, Crystal-QMMM,
                                                   LR-CPCM, SF, NACMEs, symmetry and pop. for TD-DFT,
                                                   nearIR, NL-DFT gradient (VV10), updates on ESD,
                                                   ML-optimized integration grids, MBIS, APM,
                                                   GOAT, DOCKER, SOLVATOR, interface openCOSMO-RS
   S Lehtola, MJT Oliveira, MAL Marques          : LibXC Library
   Liviu Ungur et al                             : ANISO software


 Your calculation uses the libint2 library for the computation of 2-el integrals
 For citations please refer to: http://libint.valeyev.net

 Your ORCA version has been built with support for libXC version: 6.2.2
 For citations please refer to: https://libxc.gitlab.io

 This ORCA versions uses:
   CBLAS   interface :  Fast vector & matrix operations
   LAPACKE interface :  Fast linear algebra routines
   SCALAPACK package :  Parallel linear algebra routines
   Shared memory     :  Shared parallel matrices
   BLAS/LAPACK       :  OpenBLAS 0.3.27  USE64BITINT DYNAMIC_ARCH NO_AFFINITY SkylakeX SINGLE_THREADED
        Core in use  :  SkylakeX
   Copyright (c) 2011-2014, The OpenBLAS Project


Your calculation utilizes the geometrical counterpoise correction gCP
Please cite in your paper:
H.Kruse, S. Grimme J.Chem.Phys., 136, (2012), 154101 
   

Your calculation utilizes the atom-pairwise dispersion correction
based on EEQ partial charges (D4)


================================================================================

----- Orbital basis set information -----
Your calculation utilizes the basis: def2-SV(P)
   F. Weigend and R. Ahlrichs, Phys. Chem. Chem. Phys. 7, 3297 (2005).

----- AuxJ basis set information -----
Your calculation utilizes the auxiliary basis: def2/J
   F. Weigend, Phys. Chem. Chem. Phys. 8, 1057 (2006).

================================================================================
                                        WARNINGS
                       Please study these warnings very carefully!
================================================================================


================================================================================
                                       INPUT FILE
================================================================================
NAME = sp.inp
|  1> ! pbe def2-sv(p) def2/J RI DEFGRID1 loosescf d4 GCP(DFT/SV(P)) printgap
|  2> %output
|  3>     printlevel normal
|  4> end
|  5> * xyz 0 1
|  6> C -3.5443619217 0.2216311082 -1.8196098029
|  7> C -3.138566779 -0.4361997454 -0.5005172943
|  8> H -3.5583618586 -1.444336129 -0.4390979785
|  9> C -1.6322486174 -0.5287790482 -0.3498041553
| 10> C -1.0253008774 -1.787492567 -0.1890099148
| 11> C 0.3306780079 -1.9017654932 -0.0595191961
| 12> C 1.1589920785 -0.7611651685 -0.0777914254
| 13> C 2.5600872311 -0.8567940599 0.055678173
| 14> C 3.3368058413 0.2743817721 0.0386225459
| 15> C 2.7298218946 1.5437371114 -0.1139671853
| 16> C 1.3794243994 1.656298845 -0.2449774908
| 17> C 0.5519660289 0.5109185522 -0.2317065799
| 18> C -0.8462895455 0.5961738004 -0.3629998317
| 19> O 4.6948036292 0.303486156 0.15907467
| 20> C 5.3850429722 -0.9212530297 0.3137321493
| 21> C -3.6420435101 0.3220089002 0.7081974299
| 22> O -4.009245851 -0.2183339614 1.7323372928
| 23> O -3.6102690597 1.6341803304 0.5713452448
| 24> H -4.6274176466 0.2399493245 -1.9110092677
| 25> H -3.1727867983 1.2399223206 -1.8726891228
| 26> H -3.130392078 -0.3474323946 -2.6473815937
| 27> H -1.6460052245 -2.6711038938 -0.1694185426
| 28> H 0.7848247708 -2.8743365078 0.0606551195
| 29> H 2.9917818379 -1.8384272844 0.1708746365
| 30> H 3.3758144096 2.4073664863 -0.1220800284
| 31> H 0.9227410582 2.6274247201 -0.3617067012
| 32> H -1.2926928311 1.5736490939 -0.4702735829
| 33> H 5.0700549601 -1.4384691143 1.2238210974
| 34> H 6.4358051665 -0.6514479378 0.3902003786
| 35> H 5.2329794594 -1.5705373089 -0.5524302302
| 36> H -3.9079295416 2.102725304 1.3752095652
| 37> *
| 38> 
| 39>                          ****END OF INPUT****
================================================================================

                       ****************************
                       * Single Point Calculation *
                       ****************************

---------------------------------
CARTESIAN COORDINATES (ANGSTROEM)
---------------------------------
  C     -3.544362    0.221631   -1.819610
  C     -3.138567   -0.436200   -0.500517
  H     -3.558362   -1.444336   -0.439098
  C     -1.632249   -0.528779   -0.349804
  C     -1.025301   -1.787493   -0.189010
  C      0.330678   -1.901765   -0.059519
  C      1.158992   -0.761165   -0.077791
  C      2.560087   -0.856794    0.055678
  C      3.336806    0.274382    0.038623
  C      2.729822    1.543737   -0.113967
  C      1.379424    1.656299   -0.244977
  C      0.551966    0.510919   -0.231707
  C     -0.846290    0.596174   -0.363000
  O      4.694804    0.303486    0.159075
  C      5.385043   -0.921253    0.313732
  C     -3.642044    0.322009    0.708197
  O     -4.009246   -0.218334    1.732337
  O     -3.610269    1.634180    0.571345
  H     -4.627418    0.239949   -1.911009
  H     -3.172787    1.239922   -1.872689
  H     -3.130392   -0.347432   -2.647382
  H     -1.646005   -2.671104   -0.169419
  H      0.784825   -2.874337    0.060655
  H      2.991782   -1.838427    0.170875
  H      3.375814    2.407366   -0.122080
  H      0.922741    2.627425   -0.361707
  H     -1.292693    1.573649   -0.470274
  H      5.070055   -1.438469    1.223821
  H      6.435805   -0.651448    0.390200
  H      5.232979   -1.570537   -0.552430
  H     -3.907930    2.102725    1.375210

----------------------------
CARTESIAN COORDINATES (A.U.)
----------------------------
  NO LB      ZA    FRAG     MASS         X           Y           Z
   0 C     6.0000    0    12.011   -6.697873    0.418822   -3.438564
   1 C     6.0000    0    12.011   -5.931032   -0.824298   -0.945841
   2 H     1.0000    0     1.008   -6.724329   -2.729400   -0.829775
   3 C     6.0000    0    12.011   -3.084503   -0.999248   -0.661034
   4 C     6.0000    0    12.011   -1.937538   -3.377871   -0.357177
   5 C     6.0000    0    12.011    0.624891   -3.593816   -0.112475
   6 C     6.0000    0    12.011    2.190178   -1.438394   -0.147004
   7 C     6.0000    0    12.011    4.837864   -1.619106    0.105216
   8 C     6.0000    0    12.011    6.305649    0.518506    0.072986
   9 C     6.0000    0    12.011    5.158616    2.917240   -0.215367
  10 C     6.0000    0    12.011    2.606734    3.129951   -0.462940
  11 C     6.0000    0    12.011    1.043065    0.965496   -0.437862
  12 C     6.0000    0    12.011   -1.599255    1.126605   -0.685970
  13 O     8.0000    0    15.999    8.871893    0.573506    0.300608
  14 C     6.0000    0    12.011   10.176256   -1.740916    0.592868
  15 C     6.0000    0    12.011   -6.882465    0.608509    1.338299
  16 O     8.0000    0    15.999   -7.576377   -0.412591    3.273643
  17 O     8.0000    0    15.999   -6.822420    3.088153    1.079686
  18 H     1.0000    0     1.008   -8.744552    0.453439   -3.611284
  19 H     1.0000    0     1.008   -5.995698    2.343114   -3.538870
  20 H     1.0000    0     1.008   -5.915584   -0.656552   -5.002826
  21 H     1.0000    0     1.008   -3.110499   -5.047655   -0.320155
  22 H     1.0000    0     1.008    1.483104   -5.431709    0.114622
  23 H     1.0000    0     1.008    5.653648   -3.474124    0.322906
  24 H     1.0000    0     1.008    6.379365    4.549263   -0.230698
  25 H     1.0000    0     1.008    1.743728    4.965113   -0.683527
  26 H     1.0000    0     1.008   -2.442835    2.973766   -0.888688
  27 H     1.0000    0     1.008    9.581015   -2.718313    2.312687
  28 H     1.0000    0     1.008   12.161909   -1.231058    0.737372
  29 H     1.0000    0     1.008    9.888898   -2.967885   -1.043942
  30 H     1.0000    0     1.008   -7.384917    3.973575    2.598769

--------------------------------
INTERNAL COORDINATES (ANGSTROEM)
--------------------------------
 C      0   0   0     0.000000000000     0.00000000     0.00000000
 C      1   0   0     1.528861071527     0.00000000     0.00000000
 H      2   1   0     1.093772923942   110.06983706     0.00000000
 C      2   1   3     1.516667327248   112.06223614   120.99243388
 C      4   2   1     1.406627196267   119.63869765   239.20218897
 C      5   4   2     1.366932655719   120.90859874   179.57756664
 C      6   5   4     1.409754295834   120.92968134     0.26815170
 C      7   6   5     1.410683042078   121.83621192   179.92992828
 C      8   7   6     1.372276013325   120.33837193   180.24401306
 C      9   8   7     1.415265386784   119.86190980     0.00000000
 C     10   9   8     1.361399000683   120.66049078     0.00000000
 C     11  10   9     1.413067403602   120.85866428     0.00000000
 C      4   2   1     1.372379211498   121.18470758    59.40980751
 O      9   8   7     1.363639897958   125.46187779   179.97684508
 C     14   9   8     1.414332124898   118.50201842     0.09863466
 C      2   1   3     1.513063268181   112.66302744   240.90020812
 O     16   2   1     1.214771758819   123.44780469   144.41589634
 O     16   2   1     1.319671170594   114.04200284   322.42253058
 H      1   2   3     1.087059852286   110.13537558    57.00241603
 H      1   2   3     1.085266087087   110.79614268   177.34676942
 H      1   2   3     1.086466952722   109.32082723   297.35433540
 H      5   4   2     1.080012354199   119.09137507   359.62784375
 H      6   5   4     1.080085888632   120.19337342   180.16797494
 H      8   7   6     1.078533377409   117.99175314     0.19232116
 H     10   9   8     1.078530409794   117.52400550   179.99246468
 H     11  10   9     1.079477117858   120.29345511   180.04192061
 H     13   4   2     1.079926618106   120.40885625     0.71759020
 H     15  14   9     1.093156813723   111.10808113   298.83219316
 H     15  14   9     1.087540052907   105.33045234   180.10348590
 H     15  14   9     1.093128837239   111.08860482    61.36819957
 H     18  16   2     0.976900199807   112.59586943   182.15132351

---------------------------
INTERNAL COORDINATES (A.U.)
---------------------------
 C      0   0   0     0.000000000000     0.00000000     0.00000000
 C      1   0   0     2.889128722000     0.00000000     0.00000000
 H      2   1   0     2.066931278948   110.06983706     0.00000000
 C      2   1   3     2.866085884764   112.06223614   120.99243388
 C      4   2   1     2.658140173471   119.63869765   239.20218897
 C      5   4   2     2.583128362823   120.90859874   179.57756664
 C      6   5   4     2.664049535246   120.92968134     0.26815170
 C      7   6   5     2.665804611294   121.83621192   179.92992828
 C      8   7   6     2.593225845334   120.33837193   180.24401306
 C      9   8   7     2.674463987840   119.86190980     0.00000000
 C     10   9   8     2.572671270285   120.66049078     0.00000000
 C     11  10   9     2.670310401578   120.85866428     0.00000000
 C      4   2   1     2.593420861617   121.18470758    59.40980751
 O      9   8   7     2.576905952429   125.46187779   179.97684508
 C     14   9   8     2.672700378464   118.50201842     0.09863466
 C      2   1   3     2.859275200159   112.66302744   240.90020812
 O     16   2   1     2.295585939391   123.44780469   144.41589634
 O     16   2   1     2.493817099255   114.04200284   322.42253058
 H      1   2   3     2.054245412002   110.13537558    57.00241603
 H      1   2   3     2.050855687027   110.79614268   177.34676942
 H      1   2   3     2.053124994200   109.32082723   297.35433540
 H      5   4   2     2.040927570688   119.09137507   359.62784375
 H      6   5   4     2.041066530628   120.19337342   180.16797494
 H      8   7   6     2.038132709596   117.99175314     0.19232116
 H     10   9   8     2.038127101616   117.52400550   179.99246468
 H     11  10   9     2.039916120586   120.29345511   180.04192061
 H     13   4   2     2.040765552952   120.40885625     0.71759020
 H     15  14   9     2.065766999367   111.10808113   298.83219316
 H     15  14   9     2.055152859665   105.33045234   180.10348590
 H     15  14   9     2.065714131473   111.08860482    61.36819957
 H     18  16   2     1.846073837808   112.59586943   182.15132351

---------------------
BASIS SET INFORMATION
---------------------
There are 3 groups of distinct atoms

 Group   1 Type C   : 7s4p1d contracted to 3s2p1d pattern {511/31/1}
 Group   2 Type H   : 4s contracted to 2s pattern {31}
 Group   3 Type O   : 7s4p1d contracted to 3s2p1d pattern {511/31/1}

Atom   0C    basis set group =>   1
Atom   1C    basis set group =>   1
Atom   2H    basis set group =>   2
Atom   3C    basis set group =>   1
Atom   4C    basis set group =>   1
Atom   5C    basis set group =>   1
Atom   6C    basis set group =>   1
Atom   7C    basis set group =>   1
Atom   8C    basis set group =>   1
Atom   9C    basis set group =>   1
Atom  10C    basis set group =>   1
Atom  11C    basis set group =>   1
Atom  12C    basis set group =>   1
Atom  13O    basis set group =>   3
Atom  14C    basis set group =>   1
Atom  15C    basis set group =>   1
Atom  16O    basis set group =>   3
Atom  17O    basis set group =>   3
Atom  18H    basis set group =>   2
Atom  19H    basis set group =>   2
Atom  20H    basis set group =>   2
Atom  21H    basis set group =>   2
Atom  22H    basis set group =>   2
Atom  23H    basis set group =>   2
Atom  24H    basis set group =>   2
Atom  25H    basis set group =>   2
Atom  26H    basis set group =>   2
Atom  27H    basis set group =>   2
Atom  28H    basis set group =>   2
Atom  29H    basis set group =>   2
Atom  30H    basis set group =>   2
---------------------------------
AUXILIARY/J BASIS SET INFORMATION
---------------------------------
There are 3 groups of distinct atoms

 Group   1 Type C   : 12s5p4d2f1g contracted to 6s4p3d1f1g pattern {711111/2111/211/2/1}
 Group   2 Type H   : 5s2p1d contracted to 3s1p1d pattern {311/2/1}
 Group   3 Type O   : 12s5p4d2f1g contracted to 6s4p3d1f1g pattern {711111/2111/211/2/1}

Atom   0C    basis set group =>   1
Atom   1C    basis set group =>   1
Atom   2H    basis set group =>   2
Atom   3C    basis set group =>   1
Atom   4C    basis set group =>   1
Atom   5C    basis set group =>   1
Atom   6C    basis set group =>   1
Atom   7C    basis set group =>   1
Atom   8C    basis set group =>   1
Atom   9C    basis set group =>   1
Atom  10C    basis set group =>   1
Atom  11C    basis set group =>   1
Atom  12C    basis set group =>   1
Atom  13O    basis set group =>   3
Atom  14C    basis set group =>   1
Atom  15C    basis set group =>   1
Atom  16O    basis set group =>   3
Atom  17O    basis set group =>   3
Atom  18H    basis set group =>   2
Atom  19H    basis set group =>   2
Atom  20H    basis set group =>   2
Atom  21H    basis set group =>   2
Atom  22H    basis set group =>   2
Atom  23H    basis set group =>   2
Atom  24H    basis set group =>   2
Atom  25H    basis set group =>   2
Atom  26H    basis set group =>   2
Atom  27H    basis set group =>   2
Atom  28H    basis set group =>   2
Atom  29H    basis set group =>   2
Atom  30H    basis set group =>   2
------------------------------------------------------------------------------
                             ORCA STARTUP CALCULATIONS
                           -- RI-GTO INTEGRALS CHOSEN --
------------------------------------------------------------------------------
------------------------------------------------------------------------------
                   ___                                                        
                  /   \      - P O W E R E D   B Y -                         
                 /     \                                                     
                 |  |  |   _    _      __       _____    __    __             
                 |  |  |  | |  | |    /  \     |  _  \  |  |  /  |          
                  \  \/   | |  | |   /    \    | | | |  |  | /  /          
                 / \  \   | |__| |  /  /\  \   | |_| |  |  |/  /          
                |  |  |   |  __  | /  /__\  \  |    /   |      \           
                |  |  |   | |  | | |   __   |  |    \   |  |\   \          
                \     /   | |  | | |  |  |  |  | |\  \  |  | \   \       
                 \___/    |_|  |_| |__|  |__|  |_| \__\ |__|  \__/        
                                                                              
                      - O R C A' S   B I G   F R I E N D -                    
                                      &                                       
                       - I N T E G R A L  F E E D E R -                       
                                                                              
 v1 FN, 2020, v2 2021, v3 2022-2024                                           
------------------------------------------------------------------------------


----------------------
SHARK INTEGRAL PACKAGE
----------------------

Number of atoms                             ...     31
Number of basis functions                   ...    266
Number of shells                            ...    130
Maximum angular momentum                    ...      2
Integral batch strategy                     ... SHARK/LIBINT Hybrid
RI-J (if used) integral strategy            ... SPLIT-RIJ (Revised 2003 algorithm where possible)
Printlevel                                  ...      1
Contraction scheme used                     ... SEGMENTED contraction
Prescreening option                         ... SCHWARTZ
   Thresh                                   ... 1.000e-09
   Tcut                                     ... 1.000e-10
   Tpresel                                  ... 1.000e-10 
Coulomb Range Separation                    ... NOT USED
Exchange Range Separation                   ... NOT USED
Multipole approximations                    ... NOT USED
Finite Nucleus Model                        ... NOT USED
CABS basis                                  ... NOT available
Auxiliary Coulomb fitting basis             ... AVAILABLE
   # of basis functions in Aux-J            ...    987
   # of shells in Aux-J                     ...    325
   Maximum angular momentum in Aux-J        ...      4
Auxiliary J/K fitting basis                 ... NOT available
Auxiliary Correlation fitting basis         ... NOT available
Auxiliary 'external' fitting basis          ... NOT available

Checking pre-screening integrals            ... done (  0.0 sec) Dimension = 130
Check shell pair data                       ... done (  0.0 sec)
Shell pair information
Shell pair cut-off parameter TPreSel        ...   1.0e-10
Total number of shell pairs                 ...      8515
Shell pairs after pre-screening             ...      6560
Total number of primitive shell pairs       ...     34193
Primitive shell pairs kept                  ...     16773
          la=0 lb=0:   2359 shell pairs
          la=1 lb=0:   2198 shell pairs
          la=1 lb=1:    522 shell pairs
          la=2 lb=0:    934 shell pairs
          la=2 lb=1:    450 shell pairs
          la=2 lb=2:     97 shell pairs

Calculating one electron integrals          ... done (  0.0 sec)
Calculating RI/J V-Matrix + Cholesky decomp.... done (  0.2 sec)
Calculating Nuclear repulsion               ... done (  0.0 sec) ENN=   1141.293964164786 Eh

Diagonalization of the overlap matrix:
Smallest eigenvalue                        ... 2.242e-04
Time for diagonalization                   ...    0.015 sec
Threshold for overlap eigenvalues          ... 1.000e-07
Number of eigenvalues below threshold      ... 0
Time for construction of square roots      ...    0.019 sec
Total time needed                          ...    0.060 sec

-------------------
DFT GRID GENERATION
-------------------

General Integration Accuracy     IntAcc      ... 4.159
Radial Grid Type                 RadialGrid  ... OptM3 with GC (2021)
Angular Grid (max. ang.)         AngularGrid ... 3 (Lebedev-194)
Angular grid pruning method      GridPruning ... 4 (adaptive)
Weight generation scheme         WeightScheme... mBecke (2022)
Basis function cutoff            BFCut       ... 1.0000e-10
Integration weight cutoff        WCut        ... 1.0000e-14
Partially contracted basis set               ... off
Rotationally invariant grid construction     ... off
Angular grids for H and He will be reduced by one unit

Total number of grid points                  ...    74666
Total number of batches                      ...     1183
Average number of points per batch           ...       63
Average number of grid points per atom       ...     2409
Initializing property integral containers    ... done (  0.1 sec)

SHARK setup successfully completed in   1.6 seconds

Maximum memory used throughout the entire STARTUP-calculation: 38.4 MB
-------------------------------------------------------------------------------
                                 ORCA GUESS
                   Start orbitals & Density for SCF / CASSCF
-------------------------------------------------------------------------------

------------
SCF SETTINGS
------------
Hamiltonian:
 Density Functional     Method          .... DFT(GTOs)
 Exchange Functional    Exchange        .... PBE
   PBE kappa parameter   XKappa         ....  0.804000
   PBE mue parameter    XMuePBE         ....  0.219520
 Correlation Functional Correlation     .... PBE
   PBE beta parameter  CBetaPBE         ....  0.066725
 LDA part of GGA corr.  LDAOpt          .... PW91-LDA
 Gradients option       PostSCFGGA      .... off
   NL short-range parameter             ....  6.400000
 RI-approximation to the Coulomb term is turned on
   Number of AuxJ basis functions       .... 987


General Settings:
 Integral files         IntName         .... sp
 Hartree-Fock type      HFTyp           .... RHF
 Total Charge           Charge          ....    0
 Multiplicity           Mult            ....    1
 Number of Electrons    NEL             ....  122
 Basis Dimension        Dim             ....  266
 Nuclear Repulsion      ENuc            ....   1141.2939641648 Eh

Convergence Acceleration:
 AO-DIIS                CNVDIIS         .... on
   Start iteration      DIISMaxIt       ....    12
   Startup error        DIISStart       ....  0.200000
   # of expansion vecs  DIISMaxEq       ....     5
   Bias factor          DIISBfac        ....   1.050
   Max. coefficient     DIISMaxC        ....  10.000
 MO-DIIS                CNVKDIIS        .... off
 Trust-Rad. Augm. Hess. CNVTRAH         .... auto
   Auto Start mean grad. ratio tolernc. ....  1.125000
   Auto Start start iteration           ....    50
   Auto Start num. interpolation iter.  ....    10
   Max. Number of Micro iterations      ....    24
   Max. Number of Macro iterations      .... Maxiter - #DIIS iter
   Number of Davidson start vectors     ....     2
   Converg. threshold    (grad. norm)   ....   1.000e-04
   Grad. Scal. Fac. for Micro threshold ....   0.100
   Minimum threshold for Micro iter.    ....   1.000e-02
   NR start threshold (gradient norm)   ....   1.000e-04
   Initial trust radius                 ....   0.400
   Minimum AH scaling param. (alpha)    ....   1.000
   Maximum AH scaling param. (alpha)    .... 1000.000
   Quad. conv. algorithm                .... NR
   White noise on init. David. guess    .... on
   Maximum white noise                  ....   0.010
   Pseudo random numbers                .... off
   Inactive MOs                         .... canonical
   Orbital update algorithm             .... Taylor
   Preconditioner                       .... Diag
   Full preconditioner red. dimension   ....   250
 SOSCF                  CNVSOSCF        .... on
   Start iteration      SOSCFMaxIt      ....   150
   Startup grad/error   SOSCFStart      ....  0.003300
   Hessian update       SOSCFHessUp     .... L-BFGS
 Level Shifting         CNVShift        .... on
   Level shift para.    LevelShift      ....    0.2500
   Turn off err/grad.   ShiftErr        ....    0.0010
 Zerner damping         CNVZerner       .... off
 Static damping         CNVDamp         .... on
   Fraction old density DampFac         ....    0.7000
   Max. Damping (<1)    DampMax         ....    0.9800
   Min. Damping (>=0)   DampMin         ....    0.0000
   Turn off err/grad.   DampErr         ....    0.1000

SCF Procedure:
 Maximum # iterations   MaxIter         ....   125
 SCF integral mode      SCFMode         .... Direct
   Integral package                     .... SHARK and LIBINT hybrid scheme
 Reset frequency        DirectResetFreq ....    20
 Integral Threshold     Thresh          ....  1.000e-09 Eh
 Primitive CutOff       TCut            ....  1.000e-10 Eh

Convergence Tolerance:
 Convergence Check Mode ConvCheckMode   .... Total+1el-Energy
 Convergence forced     ConvForced      .... 0
 Energy Change          TolE            ....  1.000e-05 Eh
 1-El. energy change                    ....  1.000e-02 Eh
 Orbital Gradient       TolG            ....  1.000e-04
 Orbital Rotation angle TolX            ....  1.000e-04
 DIIS Error             TolErr          ....  5.000e-04

------------------------------
INITIAL GUESS: MODEL POTENTIAL
------------------------------
Loading Hartree-Fock densities                     ... done
Calculating cut-offs                               ... done
Initializing the effective Hamiltonian             ... done
Setting up the integral package (SHARK)            ... done
Starting the Coulomb interaction                   ... done (   0.6 sec)
Making the grid                                    ... done (   0.5 sec)
Mapping shells                                     ... done
Starting the XC term evaluation                    ... done (   0.5 sec)
  promolecular density results
     # of electrons  =    121.995970280
     EX              =   -100.279929599
     EC              =     -4.096068410
     EX+EC           =   -104.375998009
Transforming the Hamiltonian                       ... done (   0.0 sec)
Diagonalizing the Hamiltonian                      ... done (   0.0 sec)
Back transforming the eigenvectors                 ... done (   0.0 sec)
Now organizing SCF variables                       ... done
                      ------------------
                      INITIAL GUESS DONE (   1.6 sec)
                      ------------------
             **** ENERGY FILE WAS UPDATED (sp.en.tmp) ****
Finished Guess after   2.0 sec
Maximum memory used throughout the entire GUESS-calculation: 30.1 MB

-------------------------------------------------------------------------------------------
                                      ORCA LEAN-SCF
                              memory conserving SCF solver
-------------------------------------------------------------------------------------------

----------------------------------------D-I-I-S--------------------------------------------
Iteration    Energy (Eh)           Delta-E    RMSDP     MaxDP     DIISErr   Damp  Time(sec)
-------------------------------------------------------------------------------------------
               ***  Starting incremental Fock matrix formation  ***
    1    -765.7400659337565685     0.00e+00  3.45e-03  1.69e-01  2.51e-01  0.700   2.4
    2    -765.9099755977465520    -1.70e-01  2.24e-03  1.00e-01  7.68e-02  0.700   2.4
                               ***Turning on AO-DIIS***
    3    -765.9679904288707348    -5.80e-02  9.07e-04  1.44e-02  2.57e-02  0.700   2.3
    4    -766.0044421847469494    -3.65e-02  1.51e-03  3.45e-02  1.07e-02  0.000   2.3
    5    -766.0861693317960999    -8.17e-02  3.82e-04  1.07e-02  5.86e-03  0.000   2.2
    6    -766.0869069849197786    -7.38e-04  1.45e-04  3.10e-03  3.39e-03  0.000   2.2
                              *** Initializing SOSCF ***
---------------------------------------S-O-S-C-F--------------------------------------
Iteration    Energy (Eh)           Delta-E    RMSDP     MaxDP     MaxGrad    Time(sec)
--------------------------------------------------------------------------------------
    7    -766.0869683825105767    -6.14e-05  5.60e-05  1.77e-03  1.33e-03     2.0
               *** Restarting incremental Fock matrix formation ***
    8    -766.0869763071927991    -7.92e-06  3.65e-05  1.15e-03  1.06e-04     2.5
    9    -766.0869744608378369     1.85e-06  1.69e-05  6.32e-04  3.04e-04     2.0
                 **** Energy Check signals convergence ****

               *****************************************************
               *                     SUCCESS                       *
               *           SCF CONVERGED AFTER   9 CYCLES          *
               *****************************************************

             **** ENERGY FILE WAS UPDATED (sp.en.tmp) ****

----------------
TOTAL SCF ENERGY
----------------

Total Energy       :       -766.08697446083784 Eh          -20846.28638 eV

Components:
Nuclear Repulsion  :       1141.29396416478608 Eh           31056.18763 eV
Electronic Energy  :      -1907.38093862562391 Eh          -51902.47401 eV
One Electron Energy:      -3307.47247670236629 Eh          -90000.90165 eV
Two Electron Energy:       1400.09153807674238 Eh           38098.42764 eV

Virial components:
Potential Energy   :      -1525.93548735806053 Eh          -41522.81559 eV
Kinetic Energy     :        759.84851289722280 Eh           20676.52921 eV
Virial Ratio       :          2.00821013854436

DFT components:
N(Alpha)           :       61.000235510700 electrons
N(Beta)            :       61.000235510700 electrons
N(Total)           :      122.000471021401 electrons
E(X)               :     -101.943995042086 Eh       
E(C)               :       -4.112685583137 Eh       
E(XC)              :     -106.056680625224 Eh       

---------------
SCF CONVERGENCE
---------------

  Last Energy change         ...   -1.8464e-06  Tolerance :   1.0000e-05
  Last MAX-Density change    ...    6.3205e-04  Tolerance :   1.0000e-03
  Last RMS-Density change    ...    1.6869e-05  Tolerance :   1.0000e-04
  Last DIIS Error            ...    1.3338e-03  Tolerance :   5.0000e-04
  Last Orbital Gradient      ...    3.0353e-04  Tolerance :   1.0000e-04
  Last Orbital Rotation      ...    4.6921e-04  Tolerance :   1.0000e-04


----------------
ORBITAL ENERGIES
----------------

  NO   OCC          E(Eh)            E(eV) 
   0   2.0000     -18.803256      -511.6626 
   1   2.0000     -18.792567      -511.3717 
   2   2.0000     -18.733549      -509.7658 
   3   2.0000     -10.009388      -272.3693 
   4   2.0000      -9.952658      -270.8256 
   5   2.0000      -9.943207      -270.5684 
   6   2.0000      -9.911780      -269.7132 
   7   2.0000      -9.904271      -269.5089 
   8   2.0000      -9.903380      -269.4847 
   9   2.0000      -9.899209      -269.3712 
  10   2.0000      -9.895875      -269.2805 
  11   2.0000      -9.892218      -269.1809 
  12   2.0000      -9.892014      -269.1754 
  13   2.0000      -9.891268      -269.1551 
  14   2.0000      -9.890114      -269.1237 
  15   2.0000      -9.889618      -269.1102 
  16   2.0000      -9.883787      -268.9515 
  17   2.0000      -1.010974       -27.5100 
  18   2.0000      -0.972078       -26.4516 
  19   2.0000      -0.907440       -24.6927 
  20   2.0000      -0.796340       -21.6695 
  21   2.0000      -0.757583       -20.6149 
  22   2.0000      -0.720316       -19.6008 
  23   2.0000      -0.694735       -18.9047 
  24   2.0000      -0.673789       -18.3347 
  25   2.0000      -0.647523       -17.6200 
  26   2.0000      -0.627920       -17.0866 
  27   2.0000      -0.603112       -16.4115 
  28   2.0000      -0.570239       -15.5170 
  29   2.0000      -0.557122       -15.1601 
  30   2.0000      -0.539491       -14.6803 
  31   2.0000      -0.525007       -14.2862 
  32   2.0000      -0.482809       -13.1379 
  33   2.0000      -0.465768       -12.6742 
  34   2.0000      -0.461428       -12.5561 
  35   2.0000      -0.433094       -11.7851 
  36   2.0000      -0.424096       -11.5402 
  37   2.0000      -0.420163       -11.4332 
  38   2.0000      -0.410453       -11.1690 
  39   2.0000      -0.407074       -11.0771 
  40   2.0000      -0.399248       -10.8641 
  41   2.0000      -0.393486       -10.7073 
  42   2.0000      -0.381036       -10.3685 
  43   2.0000      -0.375834       -10.2270 
  44   2.0000      -0.365308        -9.9405 
  45   2.0000      -0.357979        -9.7411 
  46   2.0000      -0.354765        -9.6536 
  47   2.0000      -0.344719        -9.3803 
  48   2.0000      -0.332727        -9.0539 
  49   2.0000      -0.327876        -8.9220 
  50   2.0000      -0.318164        -8.6577 
  51   2.0000      -0.313839        -8.5400 
  52   2.0000      -0.303637        -8.2624 
  53   2.0000      -0.293496        -7.9864 
  54   2.0000      -0.282266        -7.6809 
  55   2.0000      -0.270510        -7.3609 
  56   2.0000      -0.268177        -7.2975 
  57   2.0000      -0.252684        -6.8759 
  58   2.0000      -0.216426        -5.8893 
  59   2.0000      -0.209884        -5.7112 
  60   2.0000      -0.185077        -5.0362 
  61   0.0000      -0.065542        -1.7835 
  62   0.0000      -0.040129        -1.0920 
  63   0.0000      -0.010020        -0.2727 
  64   0.0000      -0.004858        -0.1322 
  65   0.0000       0.021890         0.5957 
  66   0.0000       0.042650         1.1606 
  67   0.0000       0.053566         1.4576 
  68   0.0000       0.057920         1.5761 
  69   0.0000       0.064496         1.7550 
  70   0.0000       0.067894         1.8475 
  71   0.0000       0.083208         2.2642 
*Only the first 10 virtual orbitals were printed.

                    ********************************
                    * MULLIKEN POPULATION ANALYSIS *
                    ********************************

-----------------------
MULLIKEN ATOMIC CHARGES
-----------------------
   0 C :   -0.223499
   1 C :   -0.121460
   2 H :    0.078581
   3 C :    0.111304
   4 C :   -0.095729
   5 C :   -0.131575
   6 C :    0.172782
   7 C :   -0.300771
   8 C :    0.294565
   9 C :   -0.092834
  10 C :   -0.130413
  11 C :    0.184159
  12 C :   -0.224266
  13 O :   -0.267678
  14 C :   -0.114660
  15 C :    0.110763
  16 O :   -0.188340
  17 O :   -0.287799
  18 H :    0.105526
  19 H :    0.120522
  20 H :    0.107332
  21 H :    0.040582
  22 H :    0.033468
  23 H :    0.024482
  24 H :    0.046400
  25 H :    0.040309
  26 H :    0.038759
  27 H :    0.112824
  28 H :    0.126939
  29 H :    0.112128
  30 H :    0.317596
Sum of atomic charges:   -0.0000000

--------------------------------
MULLIKEN REDUCED ORBITAL CHARGES
--------------------------------
  0 C s       :     3.074706  s :     3.074706
      pz      :     1.004015  p :     3.119892
      px      :     1.048216
      py      :     1.067661
      dz2     :     0.007333  d :     0.028901
      dxz     :     0.003997
      dyz     :     0.006109
      dx2y2   :     0.008369
      dxy     :     0.003094

  1 C s       :     3.075853  s :     3.075853
      pz      :     0.981765  p :     3.004934
      px      :     1.006133
      py      :     1.017036
      dz2     :     0.009462  d :     0.040673
      dxz     :     0.008980
      dyz     :     0.007155
      dx2y2   :     0.008076
      dxy     :     0.007000

  2 H s       :     0.921419  s :     0.921419

  3 C s       :     2.976234  s :     2.976234
      pz      :     0.988064  p :     2.871224
      px      :     0.938456
      py      :     0.944704
      dz2     :     0.002853  d :     0.041237
      dxz     :     0.005762
      dyz     :     0.006928
      dx2y2   :     0.013152
      dxy     :     0.012542

  4 C s       :     3.250525  s :     3.250525
      pz      :     1.001129  p :     2.810221
      px      :     0.909296
      py      :     0.899797
      dz2     :     0.003303  d :     0.034983
      dxz     :     0.005402
      dyz     :     0.003490
      dx2y2   :     0.009257
      dxy     :     0.013531

  5 C s       :     3.285485  s :     3.285485
      pz      :     1.005920  p :     2.811579
      px      :     0.942573
      py      :     0.863086
      dz2     :     0.003105  d :     0.034511
      dxz     :     0.006209
      dyz     :     0.002640
      dx2y2   :     0.010342
      dxy     :     0.012216

  6 C s       :     3.011239  s :     3.011239
      pz      :     0.963209  p :     2.774151
      px      :     0.846137
      py      :     0.964805
      dz2     :     0.002953  d :     0.041828
      dxz     :     0.007749
      dyz     :     0.005875
      dx2y2   :     0.012668
      dxy     :     0.012583

  7 C s       :     3.404960  s :     3.404960
      pz      :     1.093541  p :     2.863684
      px      :     0.990721
      py      :     0.779423
      dz2     :     0.003331  d :     0.032127
      dxz     :     0.005424
      dyz     :     0.003203
      dx2y2   :     0.008935
      dxy     :     0.011234

  8 C s       :     2.891558  s :     2.891558
      pz      :     0.983782  p :     2.741707
      px      :     0.799704
      py      :     0.958221
      dz2     :     0.005153  d :     0.072170
      dxz     :     0.016566
      dyz     :     0.007412
      dx2y2   :     0.023786
      dxy     :     0.019253

  9 C s       :     3.281696  s :     3.281696
      pz      :     1.020839  p :     2.778481
      px      :     0.863548
      py      :     0.894093
      dz2     :     0.003322  d :     0.032657
      dxz     :     0.005167
      dyz     :     0.003320
      dx2y2   :     0.007652
      dxy     :     0.013196

 10 C s       :     3.292030  s :     3.292030
      pz      :     0.992819  p :     2.803220
      px      :     0.933984
      py      :     0.876417
      dz2     :     0.003120  d :     0.035163
      dxz     :     0.006755
      dyz     :     0.002686
      dx2y2   :     0.010490
      dxy     :     0.012112

 11 C s       :     3.008887  s :     3.008887
      pz      :     0.984581  p :     2.765985
      px      :     0.839030
      py      :     0.942375
      dz2     :     0.002917  d :     0.040969
      dxz     :     0.006835
      dyz     :     0.005804
      dx2y2   :     0.012427
      dxy     :     0.012986

 12 C s       :     3.386361  s :     3.386361
      pz      :     1.003957  p :     2.803626
      px      :     0.967129
      py      :     0.832540
      dz2     :     0.003132  d :     0.034278
      dxz     :     0.005889
      dyz     :     0.003260
      dx2y2   :     0.010896
      dxy     :     0.011100

 13 O s       :     3.737007  s :     3.737007
      pz      :     1.757392  p :     4.514086
      px      :     1.274874
      py      :     1.481820
      dz2     :     0.002248  d :     0.016585
      dxz     :     0.002703
      dyz     :     0.001931
      dx2y2   :     0.005904
      dxy     :     0.003801

 14 C s       :     3.129353  s :     3.129353
      pz      :     1.080966  p :     2.931018
      px      :     1.015123
      py      :     0.834929
      dz2     :     0.008386  d :     0.054288
      dxz     :     0.003210
      dyz     :     0.016632
      dx2y2   :     0.013948
      dxy     :     0.012113

 15 C s       :     3.034576  s :     3.034576
      pz      :     0.985237  p :     2.723673
      px      :     0.863079
      py      :     0.875357
      dz2     :     0.033509  d :     0.130988
      dxz     :     0.016175
      dyz     :     0.034762
      dx2y2   :     0.024740
      dxy     :     0.021802

 16 O s       :     3.727342  s :     3.727342
      pz      :     1.394070  p :     4.443572
      px      :     1.391252
      py      :     1.658251
      dz2     :     0.005279  d :     0.017425
      dxz     :     0.004353
      dyz     :     0.004809
      dx2y2   :     0.001325
      dxy     :     0.001659

 17 O s       :     3.730136  s :     3.730136
      pz      :     1.524193  p :     4.541999
      px      :     1.725155
      py      :     1.292652
      dz2     :     0.003821  d :     0.015664
      dxz     :     0.001954
      dyz     :     0.004687
      dx2y2   :     0.002746
      dxy     :     0.002458

 18 H s       :     0.894474  s :     0.894474

 19 H s       :     0.879478  s :     0.879478

 20 H s       :     0.892668  s :     0.892668

 21 H s       :     0.959418  s :     0.959418

 22 H s       :     0.966532  s :     0.966532

 23 H s       :     0.975518  s :     0.975518

 24 H s       :     0.953600  s :     0.953600

 25 H s       :     0.959691  s :     0.959691

 26 H s       :     0.961241  s :     0.961241

 27 H s       :     0.887176  s :     0.887176

 28 H s       :     0.873061  s :     0.873061

 29 H s       :     0.887872  s :     0.887872

 30 H s       :     0.682404  s :     0.682404


------------------------
MULLIKEN OVERLAP CHARGES
------------------------
B(  0-C ,  1-C ) :   0.5825 B(  0-C ,  3-C ) :  -0.0925 B(  0-C , 18-H ) :   0.7400 
B(  0-C , 19-H ) :   0.7313 B(  0-C , 20-H ) :   0.7164 B(  1-C ,  2-H ) :   0.5993 
B(  1-C ,  3-C ) :   0.7126 B(  1-C ,  4-C ) :  -0.1843 B(  1-C , 12-C ) :  -0.2591 
B(  1-C , 15-C ) :   0.3505 B(  1-C , 16-O ) :  -0.2174 B(  1-C , 17-O ) :  -0.2873 
B(  1-C , 18-H ) :  -0.0547 B(  3-C ,  4-C ) :   0.2881 B(  3-C ,  5-C ) :   0.3460 
B(  3-C ,  6-C ) :  -0.3872 B(  3-C , 11-C ) :   0.3476 B(  3-C , 12-C ) :   0.1605 
B(  3-C , 21-H ) :  -0.1651 B(  3-C , 26-H ) :  -0.1893 B(  4-C ,  5-C ) :   0.3330 
B(  4-C ,  6-C ) :   0.3508 B(  4-C , 11-C ) :  -0.3258 B(  4-C , 12-C ) :   0.2013 
B(  4-C , 21-H ) :   0.8647 B(  4-C , 22-H ) :  -0.1902 B(  5-C ,  6-C ) :   0.3644 
B(  5-C ,  7-C ) :  -0.3137 B(  5-C , 10-C ) :   0.0581 B(  5-C , 11-C ) :   0.0829 
B(  5-C , 12-C ) :  -0.3140 B(  5-C , 21-H ) :  -0.1715 B(  5-C , 22-H ) :   0.8833 
B(  6-C ,  7-C ) :   0.2627 B(  6-C ,  8-C ) :   0.4465 B(  6-C ,  9-C ) :  -0.3206 
B(  6-C , 10-C ) :   0.1122 B(  6-C , 11-C ) :  -0.1750 B(  6-C , 12-C ) :   0.0907 
B(  6-C , 22-H ) :  -0.1707 B(  6-C , 23-H ) :  -0.1378 B(  7-C ,  9-C ) :   0.1936 
B(  7-C , 10-C ) :  -0.3494 B(  7-C , 11-C ) :   0.1016 B(  7-C , 13-O ) :  -0.1943 
B(  7-C , 22-H ) :  -0.0517 B(  7-C , 23-H ) :   0.8760 B(  7-C , 24-H ) :   0.0516 
B(  8-C ,  9-C ) :   0.2046 B(  8-C , 10-C ) :   0.4276 B(  8-C , 11-C ) :  -0.4101 
B(  8-C , 13-O ) :   0.8394 B(  8-C , 14-C ) :  -0.1310 B(  8-C , 23-H ) :  -0.2320 
B(  8-C , 24-H ) :  -0.1651 B(  9-C , 10-C ) :   0.2629 B(  9-C , 11-C ) :   0.3783 
B(  9-C , 13-O ) :  -0.1574 B(  9-C , 24-H ) :   0.8461 B(  9-C , 25-H ) :  -0.1980 
B( 10-C , 11-C ) :   0.2828 B( 10-C , 12-C ) :  -0.3111 B( 10-C , 24-H ) :  -0.1854 
B( 10-C , 25-H ) :   0.8968 B( 11-C , 12-C ) :   0.3998 B( 11-C , 25-H ) :  -0.1674 
B( 11-C , 26-H ) :  -0.1428 B( 12-C , 26-H ) :   0.8519 B( 13-O , 14-C ) :   0.6280 
B( 13-O , 27-H ) :  -0.0618 B( 13-O , 28-H ) :  -0.0510 B( 13-O , 29-H ) :  -0.0621 
B( 14-C , 27-H ) :   0.7527 B( 14-C , 28-H ) :   0.7673 B( 14-C , 29-H ) :   0.7527 
B( 15-C , 16-O ) :   1.4675 B( 15-C , 17-O ) :   0.7668 B( 16-O , 17-O ) :  -0.1883 
B( 17-O , 30-H ) :   0.4747 B( 27-H , 29-H ) :  -0.0954 


                     *******************************
                     * LOEWDIN POPULATION ANALYSIS *
                     *******************************

----------------------
LOEWDIN ATOMIC CHARGES
----------------------
   0 C :   -0.321330
   1 C :   -0.149571
   2 H :    0.135907
   3 C :   -0.035186
   4 C :   -0.117394
   5 C :   -0.114779
   6 C :   -0.017280
   7 C :   -0.173841
   8 C :    0.029472
   9 C :   -0.132665
  10 C :   -0.105324
  11 C :   -0.033663
  12 C :   -0.109153
  13 O :   -0.088706
  14 C :   -0.202117
  15 C :    0.033736
  16 O :   -0.172123
  17 O :   -0.196045
  18 H :    0.122107
  19 H :    0.124210
  20 H :    0.125132
  21 H :    0.124493
  22 H :    0.122708
  23 H :    0.125944
  24 H :    0.131395
  25 H :    0.125534
  26 H :    0.123284
  27 H :    0.110989
  28 H :    0.123182
  29 H :    0.110729
  30 H :    0.300352

-------------------------------
LOEWDIN REDUCED ORBITAL CHARGES
-------------------------------
  0 C s       :     2.946189  s :     2.946189
      pz      :     1.065959  p :     3.304133
      px      :     1.115822
      py      :     1.122353
      dz2     :     0.018715  d :     0.071007
      dxz     :     0.009606
      dyz     :     0.015133
      dx2y2   :     0.019948
      dxy     :     0.007604

  1 C s       :     2.879477  s :     2.879477
      pz      :     1.041438  p :     3.168021
      px      :     1.047244
      py      :     1.079339
      dz2     :     0.025220  d :     0.102072
      dxz     :     0.020084
      dyz     :     0.019654
      dx2y2   :     0.021277
      dxy     :     0.015838

  2 H s       :     0.864093  s :     0.864093

  3 C s       :     2.848394  s :     2.848394
      pz      :     0.971482  p :     3.076760
      px      :     1.014629
      py      :     1.090649
      dz2     :     0.007523  d :     0.110033
      dxz     :     0.011453
      dyz     :     0.015058
      dx2y2   :     0.039264
      dxy     :     0.036734

  4 C s       :     2.890985  s :     2.890985
      pz      :     0.995109  p :     3.133837
      px      :     1.082296
      py      :     1.056431
      dz2     :     0.007415  d :     0.092573
      dxz     :     0.011859
      dyz     :     0.007149
      dx2y2   :     0.028331
      dxy     :     0.037818

  5 C s       :     2.890021  s :     2.890021
      pz      :     0.998337  p :     3.133761
      px      :     1.080992
      py      :     1.054432
      dz2     :     0.007029  d :     0.090997
      dxz     :     0.013288
      dyz     :     0.004958
      dx2y2   :     0.030800
      dxy     :     0.034921

  6 C s       :     2.834206  s :     2.834206
      pz      :     0.957889  p :     3.069086
      px      :     1.048037
      py      :     1.063160
      dz2     :     0.007722  d :     0.113988
      dxz     :     0.016342
      dyz     :     0.012231
      dx2y2   :     0.038965
      dxy     :     0.038728

  7 C s       :     2.889293  s :     2.889293
      pz      :     1.077947  p :     3.197654
      px      :     1.059918
      py      :     1.059789
      dz2     :     0.007442  d :     0.086894
      dxz     :     0.011525
      dyz     :     0.005942
      dx2y2   :     0.028660
      dxy     :     0.033325

  8 C s       :     2.836961  s :     2.836961
      pz      :     0.974180  p :     2.960838
      px      :     0.879058
      py      :     1.107600
      dz2     :     0.011758  d :     0.172730
      dxz     :     0.032884
      dyz     :     0.015627
      dx2y2   :     0.060926
      dxy     :     0.051535

  9 C s       :     2.895704  s :     2.895704
      pz      :     1.011495  p :     3.149216
      px      :     1.086188
      py      :     1.051533
      dz2     :     0.007507  d :     0.087745
      dxz     :     0.011149
      dyz     :     0.006634
      dx2y2   :     0.025396
      dxy     :     0.037059

 10 C s       :     2.889988  s :     2.889988
      pz      :     0.984682  p :     3.123109
      px      :     1.080682
      py      :     1.057745
      dz2     :     0.007001  d :     0.092227
      dxz     :     0.014467
      dyz     :     0.005084
      dx2y2   :     0.030985
      dxy     :     0.034690

 11 C s       :     2.834024  s :     2.834024
      pz      :     0.976536  p :     3.087197
      px      :     1.053145
      py      :     1.057516
      dz2     :     0.007702  d :     0.112442
      dxz     :     0.014252
      dyz     :     0.012046
      dx2y2   :     0.038589
      dxy     :     0.039853

 12 C s       :     2.889615  s :     2.889615
      pz      :     0.996920  p :     3.128672
      px      :     1.059639
      py      :     1.072113
      dz2     :     0.007013  d :     0.090867
      dxz     :     0.012476
      dyz     :     0.006253
      dx2y2   :     0.032432
      dxy     :     0.032693

 13 O s       :     3.444407  s :     3.444407
      pz      :     1.748668  p :     4.612370
      px      :     1.336400
      py      :     1.527302
      dz2     :     0.003978  d :     0.031930
      dxz     :     0.004697
      dyz     :     0.002715
      dx2y2   :     0.012323
      dxy     :     0.008217

 14 C s       :     2.961441  s :     2.961441
      pz      :     1.138614  p :     3.121307
      px      :     1.061102
      py      :     0.921591
      dz2     :     0.018791  d :     0.119369
      dxz     :     0.005719
      dyz     :     0.038924
      dx2y2   :     0.031090
      dxy     :     0.024845

 15 C s       :     2.847636  s :     2.847636
      pz      :     1.034763  p :     2.821791
      px      :     0.848982
      py      :     0.938047
      dz2     :     0.077306  d :     0.296836
      dxz     :     0.033758
      dyz     :     0.082594
      dx2y2   :     0.057788
      dxy     :     0.045390

 16 O s       :     3.552930  s :     3.552930
      pz      :     1.494215  p :     4.588361
      px      :     1.402578
      py      :     1.691568
      dz2     :     0.009606  d :     0.030832
      dxz     :     0.006999
      dyz     :     0.009642
      dx2y2   :     0.002035
      dxy     :     0.002550

 17 O s       :     3.499489  s :     3.499489
      pz      :     1.573046  p :     4.666829
      px      :     1.718386
      py      :     1.375397
      dz2     :     0.006801  d :     0.029727
      dxz     :     0.002725
      dyz     :     0.008966
      dx2y2   :     0.007206
      dxy     :     0.004029

 18 H s       :     0.877893  s :     0.877893

 19 H s       :     0.875790  s :     0.875790

 20 H s       :     0.874868  s :     0.874868

 21 H s       :     0.875507  s :     0.875507

 22 H s       :     0.877292  s :     0.877292

 23 H s       :     0.874056  s :     0.874056

 24 H s       :     0.868605  s :     0.868605

 25 H s       :     0.874466  s :     0.874466

 26 H s       :     0.876716  s :     0.876716

 27 H s       :     0.889011  s :     0.889011

 28 H s       :     0.876818  s :     0.876818

 29 H s       :     0.889271  s :     0.889271

 30 H s       :     0.699648  s :     0.699648


---------------------------------
LOEWDIN BOND ORDERS (THRESH 0.050000)
---------------------------------
B(  0-C ,  1-C ) :   1.0786 B(  0-C ,  3-C ) :   0.0552 B(  0-C , 15-C ) :   0.0573 
B(  0-C , 18-H ) :   0.9341 B(  0-C , 19-H ) :   0.9326 B(  0-C , 20-H ) :   0.9320 
B(  1-C ,  2-H ) :   0.8580 B(  1-C ,  3-C ) :   0.9993 B(  1-C ,  4-C ) :   0.0719 
B(  1-C , 12-C ) :   0.0706 B(  1-C , 15-C ) :   1.0019 B(  1-C , 16-O ) :   0.0945 
B(  1-C , 17-O ) :   0.0629 B(  3-C ,  4-C ) :   1.3323 B(  3-C ,  5-C ) :   0.0872 
B(  3-C ,  6-C ) :   0.0656 B(  3-C , 11-C ) :   0.0874 B(  3-C , 12-C ) :   1.5136 
B(  3-C , 15-C ) :   0.0776 B(  4-C ,  5-C ) :   1.6042 B(  4-C ,  6-C ) :   0.0862 
B(  4-C , 11-C ) :   0.0697 B(  4-C , 12-C ) :   0.0828 B(  4-C , 21-H ) :   0.8802 
B(  5-C ,  6-C ) :   1.3170 B(  5-C ,  7-C ) :   0.0825 B(  5-C , 11-C ) :   0.0751 
B(  5-C , 12-C ) :   0.1183 B(  5-C , 22-H ) :   0.8811 B(  6-C ,  7-C ) :   1.3069 
B(  6-C ,  8-C ) :   0.0911 B(  6-C ,  9-C ) :   0.0659 B(  6-C , 10-C ) :   0.0744 
B(  6-C , 11-C ) :   1.2358 B(  6-C , 12-C ) :   0.0748 B(  7-C ,  8-C ) :   1.5068 
B(  7-C ,  9-C ) :   0.0843 B(  7-C , 10-C ) :   0.1066 B(  7-C , 11-C ) :   0.0744 
B(  7-C , 13-O ) :   0.1241 B(  7-C , 23-H ) :   0.8696 B(  8-C ,  9-C ) :   1.2872 
B(  8-C , 10-C ) :   0.0883 B(  8-C , 11-C ) :   0.0571 B(  8-C , 13-O ) :   1.2825 
B(  8-C , 14-C ) :   0.0684 B(  9-C , 10-C ) :   1.6470 B(  9-C , 11-C ) :   0.0873 
B(  9-C , 13-O ) :   0.0820 B(  9-C , 24-H ) :   0.8801 B( 10-C , 11-C ) :   1.2916 
B( 10-C , 12-C ) :   0.0822 B( 10-C , 25-H ) :   0.8809 B( 11-C , 12-C ) :   1.3327 
B( 12-C , 26-H ) :   0.8709 B( 13-O , 14-C ) :   1.1561 B( 14-C , 27-H ) :   0.9405 
B( 14-C , 28-H ) :   0.9495 B( 14-C , 29-H ) :   0.9407 B( 15-C , 16-O ) :   2.2296 
B( 15-C , 17-O ) :   1.4474 B( 16-O , 17-O ) :   0.2123 B( 17-O , 30-H ) :   0.8458 


------------------------------------------
LOEWDIN REDUCED ORBITAL POPULATIONS PER MO
-------------------------------------------
THRESHOLD FOR PRINTING IS 0.1%%
                      0         1         2         3         4         5   
                 -18.80326 -18.79257 -18.73355 -10.00939  -9.95266  -9.94321
                   2.00000   2.00000   2.00000   2.00000   2.00000   2.00000
                  --------  --------  --------  --------  --------  --------
 7 C  py              0.0       0.0       0.0       0.0       0.1       0.0
 8 C  s               0.0       0.0       0.0       0.0      99.5       0.0
 9 C  py              0.0       0.0       0.0       0.0       0.1       0.0
13 O  s               0.0      99.9       0.0       0.0       0.0       0.0
13 O  px              0.0       0.0       0.0       0.0       0.1       0.0
14 C  s               0.0       0.0       0.0       0.0       0.0      99.7
15 C  s               0.0       0.0       0.0      99.3       0.0       0.0
16 O  s               0.0       0.0      99.9       0.0       0.0       0.0
16 O  pz              0.0       0.0       0.0       0.2       0.0       0.0
17 O  s              99.9       0.0       0.0       0.0       0.0       0.0
17 O  py              0.0       0.0       0.0       0.2       0.0       0.0

                      6         7         8         9        10        11   
                  -9.91178  -9.90427  -9.90338  -9.89921  -9.89588  -9.89222
                   2.00000   2.00000   2.00000   2.00000   2.00000   2.00000
                  --------  --------  --------  --------  --------  --------
 1 C  s              99.6       0.0       0.0       0.0       0.0       0.0
 1 C  px              0.0       0.1       0.0       0.0       0.0       0.0
 3 C  s               0.0      99.5       0.0       0.0       0.0       0.0
 3 C  px              0.1       0.0       0.0       0.0       0.0       0.0
 3 C  py              0.0       0.0       0.0       0.0       0.0       0.1
 4 C  s               0.0       0.0       0.0       0.0       0.0      96.2
 4 C  py              0.0       0.1       0.0       0.0       0.0       0.0
 5 C  s               0.0       0.0       0.0       0.0       0.0       3.3
 5 C  px              0.0       0.0       0.0       0.0       0.0       0.1
 6 C  s               0.0       0.0      99.5       0.0       0.0       0.0
 6 C  py              0.0       0.0       0.0       0.1       0.0       0.0
 7 C  px              0.0       0.0       0.1       0.0       0.0       0.0
 9 C  s               0.0       0.0       0.0       0.0       0.3       0.0
 9 C  px              0.0       0.0       0.0       0.0       0.2       0.0
10 C  s               0.0       0.0       0.0       0.1      99.3       0.0
11 C  s               0.0       0.0       0.0      99.4       0.1       0.0
11 C  py              0.0       0.0       0.1       0.0       0.1       0.0
12 C  px              0.0       0.1       0.0       0.1       0.0       0.0
12 C  py              0.0       0.1       0.0       0.0       0.0       0.0

                     12        13        14        15        16        17   
                  -9.89201  -9.89127  -9.89011  -9.88962  -9.88379  -1.01097
                   2.00000   2.00000   2.00000   2.00000   2.00000   2.00000
                  --------  --------  --------  --------  --------  --------
 0 C  s               0.0       0.0       0.0       0.0      99.7       0.1
 0 C  pz              0.0       0.0       0.0       0.0       0.0       0.2
 1 C  s               0.0       0.0       0.0       0.0       0.0       1.0
 1 C  pz              0.0       0.0       0.0       0.0       0.1       1.0
 1 C  px              0.0       0.0       0.0       0.0       0.0       0.2
 1 C  py              0.0       0.0       0.0       0.0       0.0       0.7
 2 H  s               0.0       0.0       0.0       0.0       0.0       0.2
 3 C  px              0.0       0.0       0.1       0.0       0.0       0.1
 4 C  s               0.0       3.4       0.0       0.0       0.0       0.0
 4 C  px              0.0       0.1       0.0       0.0       0.0       0.0
 5 C  s               0.0      96.0       0.2       0.0       0.0       0.0
 6 C  px              0.0       0.0       0.0       0.1       0.0       0.0
 7 C  s               0.0       0.0       0.0      99.5       0.0       0.0
 8 C  py              0.1       0.0       0.0       0.1       0.0       0.0
 9 C  s              99.3       0.0       0.0       0.0       0.0       0.0
10 C  s               0.3       0.0       0.0       0.0       0.0       0.0
10 C  px              0.2       0.0       0.0       0.0       0.0       0.0
11 C  px              0.0       0.0       0.1       0.0       0.0       0.0
12 C  s               0.0       0.2      99.3       0.0       0.0       0.0
15 C  s               0.0       0.0       0.0       0.0       0.0      19.1
15 C  pz              0.0       0.0       0.0       0.0       0.0       1.0
15 C  px              0.0       0.0       0.0       0.0       0.0       0.1
15 C  py              0.0       0.0       0.0       0.0       0.0       4.9
15 C  dyz             0.0       0.0       0.0       0.0       0.0       0.2
15 C  dx2y2           0.0       0.0       0.0       0.0       0.0       0.8
16 O  s               0.0       0.0       0.0       0.0       0.0      10.3
16 O  pz              0.0       0.0       0.0       0.0       0.0       1.6
16 O  px              0.0       0.0       0.0       0.0       0.0       0.2
16 O  py              0.0       0.0       0.0       0.0       0.0       0.9
17 O  s               0.0       0.0       0.0       0.0       0.0      45.2
17 O  pz              0.0       0.0       0.0       0.0       0.0       1.4
17 O  px              0.0       0.0       0.0       0.0       0.0       0.2
17 O  py              0.0       0.0       0.0       0.0       0.0       2.0
30 H  s               0.0       0.0       0.0       0.0       0.0       8.1

                     18        19        20        21        22        23   
                  -0.97208  -0.90744  -0.79634  -0.75758  -0.72032  -0.69473
                   2.00000   2.00000   2.00000   2.00000   2.00000   2.00000
                  --------  --------  --------  --------  --------  --------
 0 C  s               0.0       0.0       0.4       3.2       7.6       0.8
 0 C  pz              0.0       0.0       0.1       0.9       1.2       0.1
 0 C  px              0.0       0.0       0.1       0.2       0.1       0.0
 0 C  py              0.0       0.0       0.0       0.2       0.2       0.0
 1 C  s               0.0       0.3       1.8      10.4      12.9       1.1
 1 C  pz              0.0       0.5       0.0       0.0       0.2       0.0
 1 C  px              0.0       0.1       0.7       1.0       0.1       0.1
 1 C  py              0.0       0.0       0.0       0.1       0.5       0.0
 2 H  s               0.0       0.1       0.3       1.8       2.2       0.3
 3 C  s               0.0       0.0       7.4      12.9       0.5       0.1
 3 C  px              0.0       0.0       0.7       0.3       5.5       0.9
 3 C  py              0.0       0.0       0.0       0.0       0.6       2.5
 3 C  dz2             0.0       0.0       0.1       0.1       0.0       0.0
 4 C  s               0.0       0.0       5.8       5.7       3.0       2.0
 4 C  px              0.0       0.0       0.4       0.2       2.7       0.7
 4 C  py              0.0       0.0       1.1       1.3       0.0       0.3
 5 C  s               0.0       0.0       7.0       0.7       8.5       5.7
 5 C  px              0.0       0.0       0.0       1.8       0.1       0.1
 5 C  py              0.0       0.0       1.8       0.0       0.6       0.0
 6 C  s               0.0       0.0      13.6       1.2       4.2       2.9
 6 C  px              0.1       0.0       0.2       2.2       1.7       2.1
 6 C  py              0.0       0.0       0.4       0.7       1.0       5.2
 6 C  dz2             0.0       0.0       0.2       0.0       0.0       0.0
 7 C  s               0.8       0.0       5.6       4.6       0.0      10.0
 7 C  px              0.7       0.0       1.3       0.0       1.4       0.0
 7 C  py              0.6       0.0       0.6       1.2       1.0       0.1
 8 C  s               9.5       0.0       2.8       5.6       3.9       4.2
 8 C  px              8.5       0.0       2.2       2.5       0.5       0.4
 8 C  py              0.0       0.0       0.0       0.1       1.1       1.9
 8 C  dz2             0.3       0.0       0.0       0.1       0.0       0.0
 8 C  dx2y2           0.6       0.0       0.0       0.0       0.0       0.0
 8 C  dxy             0.0       0.0       0.0       0.0       0.0       0.1
 9 C  s               0.7       0.0       3.8       7.1       6.5       0.5
 9 C  px              0.5       0.0       0.7       0.3       0.0       2.9
 9 C  py              0.7       0.0       0.5       0.9       0.4       1.1
 9 C  dx2y2           0.0       0.0       0.0       0.0       0.0       0.1
10 C  s               0.1       0.0       6.2       4.6       2.3      10.0
10 C  px              0.1       0.0       0.0       1.0       1.5       0.9
10 C  py              0.0       0.0       1.7       0.4       0.0       0.3
11 C  s               0.0       0.0      14.1       0.7       0.4      10.0
11 C  px              0.0       0.0       0.0       3.7       0.4       0.9
11 C  py              0.0       0.0       0.5       0.2       2.3       4.2
11 C  dz2             0.0       0.0       0.2       0.0       0.0       0.1
12 C  s               0.0       0.0       8.2       3.2       0.1       8.3
12 C  px              0.0       0.0       0.7       1.7       0.8       1.7
12 C  py              0.0       0.0       1.1       1.6       0.1       0.2
13 O  s              54.9       0.0       0.4       0.6       0.2       0.3
13 O  px              1.0       0.0       0.3       1.2       1.8       2.3
13 O  py              1.9       0.0       0.1       0.4       0.7       0.4
14 C  s               7.6       0.0       0.3       1.0       1.7       1.9
14 C  px              2.3       0.0       0.0       0.0       0.0       0.1
14 C  py              5.1       0.0       0.1       0.2       0.1       0.2
14 C  dz2             0.2       0.0       0.0       0.0       0.0       0.0
14 C  dx2y2           0.1       0.0       0.0       0.0       0.0       0.0
14 C  dxy             0.4       0.0       0.0       0.0       0.0       0.0
15 C  s               0.0       5.1       0.1       0.7       1.4       0.1
15 C  pz              0.0      10.3       0.4       2.6       4.2       0.4
15 C  px              0.0       1.2       0.2       0.7       0.6       0.0
15 C  py              0.0      13.5       0.1       0.5       0.6       0.0
15 C  dz2             0.0       1.0       0.0       0.0       0.0       0.0
15 C  dxz             0.0       0.3       0.0       0.0       0.0       0.0
15 C  dyz             0.0       0.5       0.0       0.0       0.1       0.0
15 C  dx2y2           0.0       0.2       0.0       0.0       0.0       0.0
16 O  s               0.0      43.0       0.1       0.4       0.6       0.1
16 O  pz              0.0       3.4       0.0       0.0       0.1       0.0
16 O  px              0.0       0.4       0.0       0.0       0.0       0.0
16 O  py              0.0       0.7       0.0       0.0       0.0       0.0
17 O  s               0.0      15.6       0.0       0.2       0.3       0.0
17 O  pz              0.0       0.2       0.0       0.2       0.6       0.1
17 O  py              0.0       0.3       0.0       0.3       0.8       0.1
18 H  s               0.0       0.0       0.0       0.5       1.4       0.2
19 H  s               0.0       0.0       0.1       0.6       1.5       0.1
20 H  s               0.0       0.0       0.1       0.6       1.4       0.2
21 H  s               0.0       0.0       0.7       0.9       0.3       0.5
22 H  s               0.0       0.0       0.9       0.1       1.4       1.4
23 H  s               0.1       0.0       0.7       0.5       0.0       2.1
24 H  s               0.2       0.0       0.4       0.9       1.1       0.1
25 H  s               0.0       0.0       0.8       0.6       0.4       2.2
26 H  s               0.0       0.0       1.1       0.5       0.0       1.8
27 H  s               0.9       0.0       0.0       0.1       0.3       0.3
28 H  s               0.9       0.0       0.0       0.2       0.4       0.5
29 H  s               0.9       0.0       0.0       0.1       0.3       0.3
30 H  s               0.0       2.7       0.0       0.2       0.6       0.0

                     24        25        26        27        28        29   
                  -0.67379  -0.64752  -0.62792  -0.60311  -0.57024  -0.55712
                   2.00000   2.00000   2.00000   2.00000   2.00000   2.00000
                  --------  --------  --------  --------  --------  --------
 0 C  s               4.2       0.5       6.9      16.5       3.0       1.3
 0 C  pz              0.2       0.0       0.0       1.2       0.5       0.3
 0 C  px              0.0       0.0       0.1       0.0       0.1       0.2
 0 C  py              0.0       0.0       0.0       0.0       0.9       0.2
 1 C  s               2.0       0.3       0.1       0.4       4.1       1.3
 1 C  pz              0.3       0.0       1.3      10.0       0.8       0.3
 1 C  px              1.5       0.3       3.1       0.0       0.5       0.7
 1 C  py              0.6       0.1       0.6       0.3       4.4       0.2
 1 C  dyz             0.0       0.0       0.0       0.3       0.0       0.0
 2 H  s               0.3       0.2       0.0       0.0       3.2       0.3
 3 C  s               3.5       0.5       6.4       0.1       0.5       0.7
 3 C  pz              0.1       0.0       0.0       0.4       0.0       0.0
 3 C  px              1.8       0.4       0.0       0.5       4.6       0.9
 3 C  py              0.9       6.1       0.0       0.0       5.0       3.4
 3 C  dxy             0.0       0.2       0.0       0.0       0.0       0.1
 4 C  s               7.0       6.5       0.6       0.1       0.4       7.1
 4 C  px              0.1       0.8       3.1       0.1       3.8       0.1
 4 C  py              0.3       0.9       1.1       0.0       0.0       1.6
 4 C  dx2y2           0.0       0.1       0.1       0.0       0.0       0.0
 5 C  s               0.2       5.7       3.6       0.2       1.5       0.1
 5 C  px              4.4       1.8       0.5       0.2       0.0       7.4
 5 C  py              0.4       0.4       0.2       0.0       0.1       2.0
 5 C  dx2y2           0.1       0.0       0.0       0.0       0.0       0.1
 6 C  s               5.9       0.3       1.8       0.3       0.5       4.5
 6 C  px              1.2       0.8       4.6       0.1       0.8       0.5
 6 C  py              0.2       1.2       0.1       0.0       1.6       1.2
 6 C  dx2y2           0.0       0.0       0.1       0.0       0.0       0.0
 7 C  s               3.5       3.1       5.8       0.2       0.1       1.9
 7 C  px              1.9       0.1       1.8       0.3       0.8       5.6
 7 C  py              0.4       0.1       0.5       0.1       0.1       0.4
 8 C  s               2.8       1.2       1.3       0.2       1.4       0.6
 8 C  px              1.2       0.6       5.7       0.2       0.5       0.0
 8 C  py              4.3       3.3       2.1       0.1       1.5       9.0
 8 C  dx2y2           0.0       0.0       0.3       0.0       0.1       0.0
 8 C  dxy             0.0       0.2       0.0       0.0       0.0       0.1
 9 C  s               3.7       7.7       0.6       0.0       3.3       5.2
 9 C  px              1.0       2.5       0.0       0.0       2.2       1.5
 9 C  py              0.1       0.9       0.4       0.1       0.1       0.5
10 C  s               0.0       7.3       0.2       0.1       1.8       1.5
10 C  px              1.2       3.6       1.1       0.0       1.7       5.4
10 C  py              0.5       0.4       0.1       0.0       0.4       0.2
11 C  s               1.7       1.4       2.5       0.0       1.0       1.1
11 C  px              1.1       4.5       0.1       0.2       4.9       0.0
11 C  py              0.5       1.0       0.1       0.0       0.2       5.7
12 C  s               0.5       9.4       0.7       0.3       4.7       0.1
12 C  px              0.7       0.0       2.9       0.0       0.3       2.0
12 C  py              0.7       0.1       0.7       0.0       0.1       1.0
13 O  s               0.2       0.1       3.1       0.2       1.3       0.2
13 O  pz              0.1       0.1       0.1       0.0       0.0       0.0
13 O  px              6.7       3.7       1.7       0.0       0.1       0.8
13 O  py              3.7       0.7       2.7       0.1       0.0       0.6
14 C  s              10.3       5.9      10.3       0.3       3.0       0.2
14 C  px              0.0       0.3       0.1       0.0       0.4       0.5
14 C  py              0.1       0.0       1.0       0.1       1.4       0.1
15 C  s               0.5       0.0       0.1       7.2       0.5       0.3
15 C  pz              1.2       0.1       0.2       5.2       0.0       0.0
15 C  px              0.0       0.0       0.1       1.2       0.1       0.2
15 C  py              0.1       0.0       0.0       0.9       3.0       1.6
15 C  dyz             0.0       0.0       0.0       0.0       0.1       0.0
16 O  s               0.1       0.0       0.0       1.8       0.0       0.0
16 O  pz              0.0       0.0       0.0       0.7       0.0       0.0
16 O  px              0.0       0.0       0.0       0.1       0.0       0.0
16 O  py              0.0       0.0       0.0       0.1       0.3       0.1
17 O  s               0.1       0.0       0.0       0.6       0.2       0.1
17 O  pz              0.4       0.0       0.2       5.3       2.2       1.1
17 O  px              0.0       0.0       0.0       1.1       0.3       0.0
17 O  py              0.6       0.0       0.3      19.5       8.4       5.1
17 O  dz2             0.0       0.0       0.0       0.2       0.0       0.0
18 H  s               1.0       0.1       2.0       4.4       1.2       0.7
19 H  s               0.9       0.1       1.6       4.2       1.7       0.5
20 H  s               0.8       0.1       1.6       5.6       0.8       0.4
21 H  s               1.4       1.8       0.2       0.0       0.6       3.5
22 H  s               0.0       1.3       0.8       0.1       0.5       0.0
23 H  s               1.0       0.6       1.7       0.1       0.0       0.9
24 H  s               1.1       1.7       0.0       0.0       1.5       3.1
25 H  s               0.0       1.5       0.1       0.0       0.4       0.9
26 H  s               0.0       2.1       0.1       0.1       1.7       0.0
27 H  s               2.3       1.2       3.3       0.1       1.4       0.0
28 H  s               2.6       1.9       3.0       0.1       1.2       0.3
29 H  s               2.3       1.2       3.3       0.1       1.4       0.0
30 H  s               0.3       0.0       0.1       7.5       3.4       1.8

                     30        31        32        33        34        35   
                  -0.53949  -0.52501  -0.48281  -0.46577  -0.46143  -0.43309
                   2.00000   2.00000   2.00000   2.00000   2.00000   2.00000
                  --------  --------  --------  --------  --------  --------
 0 C  s               0.2       1.3       0.0       0.0       0.0       0.1
 0 C  pz              0.0       1.5       0.1       0.5       0.0       0.0
[...]
14 C  dxy             0.0       1.4       0.0       0.1       0.8       0.0
15 C  s               0.0       0.0       3.9       0.0       0.0       0.1
15 C  pz              0.0       0.0       0.3       0.0       0.0       1.0
15 C  px              0.3       0.0       0.0       0.0       0.0       0.1
15 C  py              0.0       0.0       2.8       0.0       0.0       2.9
15 C  dz2             4.0       0.1       0.2       0.0       0.0       9.4
15 C  dxz             7.8       0.0       0.3       0.0       0.0       1.4
15 C  dyz             0.9       0.0       8.0       0.0       0.0       3.1
15 C  dx2y2           1.1       0.0       0.9       0.0       0.0       7.3
15 C  dxy             6.8       0.0       1.3       0.0       0.0       0.3
16 O  s               0.0       0.0       0.6       0.0       0.0       0.9
16 O  pz              0.1       0.0       0.1       0.0       0.0       0.1
16 O  px              0.9       0.0       0.0       0.0       0.0       0.0
16 O  py              0.0       0.0       0.6       0.0       0.0       1.1
16 O  dz2            15.8       0.1       3.5       0.0       0.0       1.4
16 O  dxz            31.1       0.1       0.0       0.0       0.0       0.0
16 O  dyz             1.3       0.1      10.8       0.0       0.1      22.9
16 O  dx2y2           5.3       0.1       8.0       0.0       0.0       5.1
16 O  dxy             8.1       0.0       1.5       0.0       0.0       2.7
17 O  s               0.0       0.0       2.8       0.0       0.0       1.7
17 O  pz              0.0       0.0       0.1       0.0       0.0       0.2
17 O  px              0.1       0.0       0.0       0.0       0.0       0.0
17 O  py              0.0       0.0       2.0       0.0       0.0       2.9
17 O  dz2             0.3       0.0       4.3       0.0       0.0      10.5
17 O  dxz             0.3       0.0       0.1       0.0       0.0       0.2
17 O  dyz             1.6       0.1      22.1       0.0       0.0       0.0
17 O  dx2y2           0.0       0.0      19.6       0.0       0.0      21.1
17 O  dxy             9.0       0.0       2.7       0.0       0.0       0.0
21 H  s               0.0       0.1       0.0       0.1       0.3       0.0
22 H  s               0.0       0.0       0.0       0.1       0.3       0.0
23 H  s               0.0       0.1       0.0       0.0       0.0       0.0
24 H  s               0.0       0.1       0.0       0.0       0.0       0.0
25 H  s               0.0       0.3       0.0       0.0       0.0       0.0
26 H  s               0.0       0.0       0.0       0.1       0.3       0.0
30 H  s               0.0       0.0       0.6       0.0       0.0       0.2

                    264       265   
                   3.49865   3.54172
                   0.00000   0.00000
                  --------  --------
 1 C  pz              0.0       0.1
 1 C  dz2             0.0       0.2
 1 C  dx2y2           0.0       0.2
 3 C  dx2y2           0.6       0.1
 4 C  dxy             0.6       0.0
 5 C  s               0.2       0.0
 5 C  py              0.1       0.0
 5 C  dxy             1.0       0.0
 6 C  dx2y2           1.4       0.0
 6 C  dxy             4.9       0.0
 7 C  s               0.4       0.0
 7 C  dx2y2           3.1       0.0
 7 C  dxy             3.4       0.0
 8 C  s               0.4       0.0
 8 C  px              2.2       0.0
 8 C  dz2             0.1       0.0
 8 C  dxz             0.2       0.0
 8 C  dx2y2          15.8       0.1
 8 C  dxy             0.1       0.0
 9 C  s               0.5       0.0
 9 C  dz2             0.2       0.0
 9 C  dxz             0.1       0.0
 9 C  dx2y2           0.8       0.0
 9 C  dxy             5.6       0.0
10 C  s               0.4       0.0
10 C  dz2             0.1       0.0
10 C  dx2y2           1.4       0.0
10 C  dxy             3.2       0.0
11 C  px              0.2       0.0
11 C  dx2y2           5.0       0.1
11 C  dxy             0.7       0.0
12 C  s               0.2       0.1
12 C  px              0.2       0.0
12 C  dx2y2           1.1       0.0
12 C  dxy             0.1       0.0
13 O  s               0.6       0.0
13 O  px              3.0       0.0
13 O  py              0.5       0.0
13 O  dz2             1.1       0.0
13 O  dxz             0.3       0.0
13 O  dyz             0.2       0.0
13 O  dx2y2          30.7       0.1
13 O  dxy             3.7       0.0
14 C  s               0.5       0.0
14 C  px              0.3       0.0
14 C  py              0.4       0.0
14 C  dz2             0.1       0.0
14 C  dxy             1.3       0.0
15 C  s               0.0       7.1
15 C  pz              0.0       3.8
15 C  px              0.0       0.5
15 C  py              0.0       0.6
15 C  dz2             0.0       0.2
15 C  dxz             0.0       0.4
15 C  dyz             0.1       8.2
15 C  dx2y2           0.0       0.8
15 C  dxy             0.0       1.1
16 O  s               0.0       4.8
16 O  pz              0.0       3.0
16 O  px              0.0       0.4
16 O  py              0.0       0.3
16 O  dz2             0.2      29.2
16 O  dxz             0.1      14.7
16 O  dyz             0.0      13.4
16 O  dx2y2           0.0       0.1
16 O  dxy             0.0       1.9
17 O  s               0.0       0.1
17 O  pz              0.0       0.2
17 O  py              0.0       0.2
17 O  dz2             0.0       1.1
17 O  dyz             0.0       3.2
17 O  dx2y2           0.1       2.2
17 O  dxy             0.0       0.6
23 H  s               0.3       0.0
24 H  s               0.3       0.0
25 H  s               0.2       0.0


                      *****************************
                      * MAYER POPULATION ANALYSIS *
                      *****************************

  NA   - Mulliken gross atomic population
  ZA   - Total nuclear charge
  QA   - Mulliken gross atomic charge
  VA   - Mayer's total valence
  BVA  - Mayer's bonded valence
  FA   - Mayer's free valence

  ATOM       NA         ZA         QA         VA         BVA        FA
  0 C      6.2235     6.0000    -0.2235     3.9394     3.9394    -0.0000
  1 C      6.1215     6.0000    -0.1215     3.8946     3.8946    -0.0000
  2 H      0.9214     1.0000     0.0786     0.9768     0.9768    -0.0000
  3 C      5.8887     6.0000     0.1113     3.8933     3.8933    -0.0000
  4 C      6.0957     6.0000    -0.0957     3.8238     3.8238     0.0000
  5 C      6.1316     6.0000    -0.1316     3.7641     3.7641     0.0000
  6 C      5.8272     6.0000     0.1728     3.8117     3.8117    -0.0000
  7 C      6.3008     6.0000    -0.3008     3.6854     3.6854    -0.0000
  8 C      5.7054     6.0000     0.2946     3.8595     3.8595     0.0000
  9 C      6.0928     6.0000    -0.0928     3.7769     3.7769     0.0000
 10 C      6.1304     6.0000    -0.1304     3.7315     3.7315     0.0000
 11 C      5.8158     6.0000     0.1842     3.7756     3.7756    -0.0000
 12 C      6.2243     6.0000    -0.2243     3.7361     3.7361    -0.0000
 13 O      8.2677     8.0000    -0.2677     2.2708     2.2708    -0.0000
 14 C      6.1147     6.0000    -0.1147     3.8928     3.8928    -0.0000
 15 C      5.8892     6.0000     0.1108     4.4054     4.4054    -0.0000
 16 O      8.1883     8.0000    -0.1883     2.3123     2.3123    -0.0000
 17 O      8.2878     8.0000    -0.2878     2.1782     2.1782    -0.0000
 18 H      0.8945     1.0000     0.1055     0.9525     0.9525    -0.0000
 19 H      0.8795     1.0000     0.1205     0.9725     0.9725    -0.0000
 20 H      0.8927     1.0000     0.1073     0.9567     0.9567    -0.0000
 21 H      0.9594     1.0000     0.0406     0.9618     0.9618     0.0000
 22 H      0.9665     1.0000     0.0335     0.9576     0.9576     0.0000
 23 H      0.9755     1.0000     0.0245     0.9785     0.9785    -0.0000
 24 H      0.9536     1.0000     0.0464     0.9693     0.9693    -0.0000
 25 H      0.9597     1.0000     0.0403     0.9586     0.9586    -0.0000
 26 H      0.9612     1.0000     0.0388     0.9890     0.9890    -0.0000
 27 H      0.8872     1.0000     0.1128     0.9520     0.9520    -0.0000
 28 H      0.8731     1.0000     0.1269     0.9541     0.9541     0.0000
 29 H      0.8879     1.0000     0.1121     0.9521     0.9521    -0.0000
 30 H      0.6824     1.0000     0.3176     0.9049     0.9049     0.0000

  Mayer bond orders larger than 0.100000
B(  0-C ,  1-C ) :   1.0898 B(  0-C , 18-H ) :   0.9503 B(  0-C , 19-H ) :   0.9368 
B(  0-C , 20-H ) :   0.9463 B(  1-C ,  2-H ) :   0.8744 B(  1-C ,  3-C ) :   0.9963 
B(  1-C , 15-C ) :   0.9430 B(  3-C ,  4-C ) :   1.2931 B(  3-C , 12-C ) :   1.4138 
B(  4-C ,  5-C ) :   1.4397 B(  4-C , 21-H ) :   0.9576 B(  5-C ,  6-C ) :   1.2387 
B(  5-C , 22-H ) :   0.9639 B(  6-C ,  7-C ) :   1.2002 B(  6-C , 11-C ) :   1.2507 
B(  7-C ,  8-C ) :   1.3366 B(  7-C , 23-H ) :   0.9643 B(  8-C ,  9-C ) :   1.2431 
B(  8-C , 13-O ) :   1.1404 B(  9-C , 10-C ) :   1.4606 B(  9-C , 24-H ) :   0.9614 
B( 10-C , 11-C ) :   1.2016 B( 10-C , 25-H ) :   0.9676 B( 11-C , 12-C ) :   1.2322 
B( 12-C , 26-H ) :   0.9533 B( 13-O , 14-C ) :   0.9877 B( 14-C , 27-H ) :   0.9413 
B( 14-C , 28-H ) :   0.9585 B( 14-C , 29-H ) :   0.9416 B( 15-C , 16-O ) :   2.1317 
B( 15-C , 17-O ) :   1.2496 B( 17-O , 30-H ) :   0.8172 

-------
TIMINGS
-------

Total SCF time: 0 days 0 hours 0 min 21 sec 

Total time                  ....      21.061 sec
Sum of individual times     ....      20.319 sec  ( 96.5%)

SCF preparation             ....       0.235 sec  (  1.1%)
Fock matrix formation       ....      18.678 sec  ( 88.7%)
  Startup                   ....       0.092 sec  (  0.5% of F)
  Split-RI-J                ....       9.641 sec  ( 51.6% of F)
  XC integration            ....       8.254 sec  ( 44.2% of F)
    Basis function eval.    ....       2.973 sec  ( 36.0% of XC)
    Density eval.           ....       1.498 sec  ( 18.2% of XC)
    XC-Functional eval.     ....       0.576 sec  (  7.0% of XC)
    XC-Potential eval.      ....       2.060 sec  ( 25.0% of XC)
Diagonalization             ....       0.000 sec  (  0.0%)
Density matrix formation    ....       0.269 sec  (  1.3%)
Total Energy calculation    ....       0.056 sec  (  0.3%)
Population analysis         ....       0.192 sec  (  0.9%)
Orbital Transformation      ....       0.087 sec  (  0.4%)
Orbital Orthonormalization  ....       0.000 sec  (  0.0%)
DIIS solution               ....       0.672 sec  (  3.2%)
  MO trafo                  ....       0.000 sec  (  0.0 % of DIIS)
  Orb grad                  ....       0.000 sec  (  0.0 % of DIIS)
  Energy W gradient         ....       0.000 sec  (  0.0 % of DIIS)
  DIIS error                ....       0.031 sec  (  4.7 % of DIIS)
  DIIS work                 ....       0.564 sec  ( 83.9 % of DIIS)
  Form Q                    ....       0.000 sec  (  0.0 % of DIIS)
  Form QpQm                 ....       0.000 sec  (  0.0 % of DIIS)
  Exp/Cayley                ....       0.000 sec  (  0.0 % of DIIS)
  Orb update                ....       0.000 sec  (  0.0 % of DIIS)
  Wake-sleep                ....       0.032 sec  (  4.8 % of DIIS)
SOSCF solution              ....       0.129 sec  (  0.6%)
  MO trafo                  ....       0.079 sec  ( 60.9 % of SOSCF)
  Orb grad                  ....       0.002 sec  (  1.4 % of SOSCF)
  Rot update                ....       0.014 sec  ( 10.7 % of SOSCF)
  Step                      ....       0.035 sec  ( 26.8 % of SOSCF)
Finished LeanSCF after  21.2 sec

Maximum memory used throughout the entire LEANSCF-calculation: 25.3 MB


-------------------------------------------------------------------------------
                          DFT DISPERSION CORRECTION                            
                                                                               
                                DFTD4 V3.4.0                                   
-------------------------------------------------------------------------------
The PBE functional is recognized
Active option DFTDOPT                   ...         5   

-------------------------   ----------------
Dispersion correction           -0.039016122
-------------------------   ----------------

------------------   -----------------
gCP correction             0.133438713
------------------   -----------------

-------------------------   --------------------
FINAL SINGLE POINT ENERGY      -765.992551869769
-------------------------   --------------------


------------------------------------------------------------------------------
                              ORCA PROPERTY CALCULATIONS
------------------------------------------------------------------------------

GBWName                                 ... sp.gbw
Number of atoms                         ...     31
Number of basis functions               ...    266
Max core memory                         ...   1024 MB

Electric properties:
Dipole moment                           ... YES
Quadrupole moment                       ...  NO
Static polarizability (Dipole/Dipole)   ...  NO
Static polarizability (Dipole/Quad.)    ...  NO
Static polarizability (Quad./Quad.)     ...  NO
Static polarizability (Velocity)        ...  NO

Atomic electric properties:
Dipole moment                           ...  NO
Quadrupole moment                       ...  NO
Static polarizability                   ...  NO

Choice of electric origin               ... Center of mass
Position of electric origin             ...     0.000012    -0.000008    -0.000012

General magnetic properties:
Magnetizability                         ...  NO

EPR properties:
g-Tensor (aka g-matrix)                 ...  NO
Zero-Field splitting spin-orbit         ...  NO
Zero-field splitting spin-spin          ...  NO
Hyperfine couplings                     ...  NO (   0 nuclei)
Quadrupole couplings                    ...  NO (   0 nuclei)
Contact density                         ...  NO (   0 nuclei)

NMR properties:
Chemical shifts                         ...  NO (   0 nuclei)
Spin-rotation constants                 ...  NO (   0 nuclei)
Spin-spin couplings                     ...  NO (   0 nuclei,    0 pairs)

Choice of magnetic origin               ... GIAO
Position of magnetic origin             ...     0.000000     0.000000     0.000000

Properties with geometric perturbations:
SCF Hessian                             ...  NO
IR spectrum                             ...  NO
VCD spectrum                            ...  NO
X-ray spectroscopy properties:
SCF XES/XAS/RIXS spectra                ...  NO


-------------
DIPOLE MOMENT
-------------

Method             : SCF
Type of density    : Electron Density
Multiplicity       :   1
Irrep              :   0
Energy             :  -766.0869744608378369 Eh
Relativity type    : 
Basis              : AO
                                X                 Y                 Z
Electronic contribution:     -2.624365338       2.579835525       4.586958732
Nuclear contribution   :      3.220026269      -2.456044425      -4.959586188
                        -----------------------------------------
Total Dipole Moment    :      0.595660931       0.123791101      -0.372627456
                        -----------------------------------------
Magnitude (a.u.)       :      0.713433530
Magnitude (Debye)      :      1.813403920



--------------------
Rotational spectrum 
--------------------
 
Rotational constants in cm-1:             0.041893             0.007279             0.006843 
Rotational constants in MHz :          1255.913912           218.211347           205.147019 

Dipole components along the rotational axes: 
x,y,z [a.u.] :     0.593314     0.142249     0.369772 
x,y,z [Debye]:     1.508084     0.361568     0.939885 

 

Dipole moment calculation done in   0.0 sec 

Maximum memory used throughout the entire PROP-calculation: 17.1 MB

--------------------------------
SUGGESTED CITATIONS FOR THIS RUN
--------------------------------

Below you find a list of papers that are relevant to this ORCA run
We neither can nor want to force you to cite these papers, but we appreciate if you do
You receive ORCA, which is the product of decades of hard work by many enthusiastic individuals, for free
The only thing we kindly ask in return is that you cite our papers,
We deeply appreciate it, if you show your appreciation for ORCA by not just citing the generic ORCA reference.

Please note that relegating all ORCA citations to the supporting information does *not* help us.
SI sections are not indexed - citations you put there will not count into any citation statistics
But we need these citations in order to attract the funding resources that allow us to do what we are doing

Therefore, if you are a happy ORCA user, please consider citing a few of the papers listed below in the main body of your paper

In addition to the list printed below, the program has created the file sp.bibtex that contains the list in bibtex format
You can import this file easily into all common literature databanks and citation aid programs


List of essential papers. We consider these as the minimum necessary citations

  1. Neese,F.
     Software update: the ORCA program system, version 5.0
     WIRES Comput. Molec. Sci., 2022 12(1)e1606
     doi.org/10.1002/wcms.1606

List of papers to cite with high priority. The work reported in these papers was absolutely
necessary for this run to complete.
Our perspective: the developers of density functionals and basis sets usually get cited in chemistry papers
Good! But without the algorithms to do something with them, the functionals or basis sets would not do anything.
Hence, in our opinion, the algorithm design and method developments papers are equally worthy of getting cited

  1. Neese,F.
     An improvement of the resolution of the identity approximation for the formation of the Coulomb matrix
     J. Comp. Chem., 2003 24(14)1740-1747
     doi.org/10.1002/jcc.10318
  2. Neese,F.
     The SHARK Integral Generation and Digestion System
     J. Comp. Chem., 2022  1-16
     doi.org/10.1002/jcc.26942
  3. Caldeweyher,E.; Bannwarth,C.; Grimme,S.
     Extension of the D3 dispersion coefficient model
     J. Chem. Phys., 2017 147 034112-XXXX
     doi.org/10.1063/1.4993215
  4. Caldeweyher,E.; Ehlert,S.; Hansen,A.; Neugebauer,H.; Spicher,S.; Bannwarth,C.; Grimme,S.
     A generally applicable atomic-charge dependent London dispersion correction
     J. Chem. Phys., 2019 150 154122-XXXX
     doi.org/10.1063/1.5090222
  5. Caldeweyher,E.; Mewes,J.; Ehlert,S.; Grimme,S.
     Extension and evaluation of the D4 London-dispersion model for periodic systems
     Phys. Chem. Chem. Phys., 2020 22(16)8499-8512
     doi.org/10.1039/D0CP00502A

List of suggested additional citations. These are papers that are important in the 'surrounding' of 
of this run, or papers that preceded the highly important papers. If you like your results we are grateful for a citation.

  1. Neese,F.
     The ORCA program system
     WIRES Comput. Molec. Sci., 2012 2(1)73-78
     doi.org/10.1002/wcms.81
  2. Neese,F.
     Software update: the ORCA program system, version 4.0
     WIRES Comput. Molec. Sci., 2018 8(1)1-6
     doi.org/10.1002/wcms.1327
  3. Neese,F.; Wennmohs,F.; Becker,U.; Riplinger,C.
     The ORCA quantum chemistry program package
     J. Chem. Phys., 2020 152 Art. No. L224108
     doi.org/10.1063/5.0004608

List of optional additional citations

  1. Neese,F.
     Approximate second-order SCF convergence for spin unrestricted wavefunctions
     Chem. Phys. Lett., 2000 325(1-3)93-98
     doi.org/10.1016/s0009-2614(00)00662-x

Timings for individual modules:

Sum of individual times          ...       25.021 sec (=   0.417 min)
Startup calculation              ...        1.683 sec (=   0.028 min)   6.7 %
SCF iterations                   ...       23.178 sec (=   0.386 min)  92.6 %
Property calculations            ...        0.159 sec (=   0.003 min)   0.6 %
                             ****ORCA TERMINATED NORMALLY****
TOTAL RUN TIME: 0 days 0 hours 0 minutes 25 seconds 893 msec
