      -----------------------------------------------------------      
     |                   =====================                   |     
     |                           x T B                           |     
     |                   =====================                   |     
     |                         S. Grimme                         |     
     |          Mulliken Center for Theoretical Chemistry        |     
     |                    University of Bonn                     |     
      -----------------------------------------------------------      

   * xtb version 6.7.1 (edcfbbe) compiled by 'albert@albert-system' on 2024-07-22

   xtb is free software: you can redistribute it and/or modify it under
   the terms of the GNU Lesser General Public License as published by
   the Free Software Foundation, either version 3 of the License, or
   (at your option) any later version.
   
   xtb is distributed in the hope that it will be useful,
   but WITHOUT ANY WARRANTY; without even the implied warranty of
   MERCHANTABILITY or FITNESS FOR A PARTICULAR PURPOSE.  See the
   GNU Lesser General Public License for more details.
   
   Cite this work as:
   * C. Bannwarth, E. Caldeweyher, S. Ehlert, A. Hansen, P. Pracht,
     J. Seibert, S. Spicher, S. Grimme, WIREs Comput. Mol. Sci., 2020, 11,
     e01493. DOI: 10.1002/wcms.1493
   
   for GFN2-xTB:
   * C. Bannwarth, S. Ehlert and S. Grimme., J. Chem. Theory Comput., 2019,
     15, 1652-1671. DOI: 10.1021/acs.jctc.8b01176
   for GFN1-xTB:
   * S. Grimme, C. Bannwarth, P. Shushkov, J. Chem. Theory Comput., 2017,
     13, 1989-2009. DOI: 10.1021/acs.jctc.7b00118
   for GFN0-xTB:
   * P. Pracht, E. Caldeweyher, S. Ehlert, S. Grimme, ChemRxiv, 2019, preprint.
     DOI: 10.26434/chemrxiv.8326202.v1
   for GFN-FF:
   * S. Spicher and S. Grimme, Angew. Chem. Int. Ed., 2020, 59, 15665-15673.
     DOI: 10.1002/anie.202004239
   
   for ALPB and GBSA implicit solvation:
   * S. Ehlert, M. Stahn, S. Spicher, S. Grimme, J. Chem. Theory Comput.,
     2021, 17, 4250-4261. DOI: 10.1021/acs.jctc.1c00471
   
   for ddCOSMO and CPCM-X implicit solvation:
   * M. Stahn, S. Ehlert, S. Grimme, J. Phys. Chem. A,
     2023, XX, XXXX-XXXX. DOI: 10.1021/acs.jpca.3c04382
   
   for DFT-D4:
   * E. Caldeweyher, C. Bannwarth and S. Grimme, J. Chem. Phys., 2017,
     147, 034112. DOI: 10.1063/1.4993215
   * E. Caldeweyher, S. Ehlert, A. Hansen, H. Neugebauer, S. Spicher,
     C. Bannwarth and S. Grimme, J. Chem. Phys., 2019, 150, 154122.
     DOI: 10.1063/1.5090222
   * E. Caldeweyher, J.-M. Mewes, S. Ehlert and S. Grimme, Phys. Chem. Chem. Phys.
     2020, 22, 8499-8512. DOI: 10.1039/D0CP00502A
   
   for sTDA-xTB:
   * S. Grimme and C. Bannwarth, J. Chem. Phys., 2016, 145, 054103.
     DOI: 10.1063/1.4959605
   
   in the mass-spec context:
   * V. Asgeirsson, C. Bauer and S. Grimme, Chem. Sci., 2017, 8, 4879.
     DOI: 10.1039/c7sc00601b
   * J. Koopman and S. Grimme, ACS Omega 2019, 4, 12, 15120-15133.
     DOI: 10.1021/acsomega.9b02011
   
   for metadynamics refer to:
   * S. Grimme, J. Chem. Theory Comput., 2019, 155, 2847-2862
     DOI: 10.1021/acs.jctc.9b00143
   
   for SPH calculations refer to:
   * S. Spicher and S. Grimme, J. Chem. Theory Comput., 2021, 17, 1701-1714
     DOI: 10.1021/acs.jctc.0c01306
   
   for ONIOM refer to:
   * C. Plett, A. Katbashev, S. Ehlert, S. Grimme, M. Bursch,
     Phys. Chem. Chem. Phys., 2023, 25, 17860-17868. DOI: 10.1039/D3CP02178E
   
   for DIPRO refer to:
   * J. Kohn, N. Gildemeister, S. Grimme, D. Fazzi, A. Hansen,
     J. Chem. Phys., 2023, just accepted.
   
   for PTB refer to:
   * S. Grimme, M. Mueller, A. Hansen, J. Chem. Phys., 2023, 158, 124111.
     DOI: 10.1063/5.0137838
   
   with help from (in alphabetical order)
   P. Atkinson, C. Bannwarth, F. Bohle, G. Brandenburg, E. Caldeweyher
   M. Checinski, S. Dohm, S. Ehlert, S. Ehrlich, I. Gerasimov, C. Hölzer
   A. Katbashev, J. Kohn, J. Koopman, C. Lavigne, S. Lehtola, F. März, M. Müller,
   F. Musil, H. Neugebauer, J. Pisarek, C. Plett, P. Pracht, F. Pultar,
   J. Seibert, P. Shushkov, S. Spicher, M. Stahn, M. Steiner, T. Strunk,
   J. Stückrath, T. Rose, and J. Unsleber
   
 * started run on 2025/04/11 at 15:59:02.183     
   ID    Z sym.   atoms
    1    6 C      1-5, 8
    2    8 O      6, 7
    3    1 H      9-20

           -------------------------------------------------
          |                Calculation Setup                |
           -------------------------------------------------

          program call               : /srv/scratch/z5358697/.xtb/bin/xtb gas.coord --gfn2 --sp --chrg 0 --norestart --parallel 1
          hostname                   : k068
          coordinate file            : gas.coord
          omp threads                :                     1


           -------------------------------------------------
          |                 G F N 2 - x T B                 |
           -------------------------------------------------

        Reference                      10.1021/acs.jctc.8b01176
      * Hamiltonian:
        H0-scaling (s, p, d)           1.850000    2.230000    2.230000
        zeta-weighting                 0.500000
      * Dispersion:
        s8                             2.700000
        a1                             0.520000
        a2                             5.000000
        s9                             5.000000
      * Repulsion:
        kExp                           1.500000    1.000000
        rExp                           1.000000
      * Coulomb:
        alpha                          2.000000
        third order                    shell-resolved
        anisotropic                    true
        a3                             3.000000
        a5                             4.000000
        cn-shift                       1.200000
        cn-exp                         4.000000
        max-rad                        5.000000


          ...................................................
          :                      SETUP                      :
          :.................................................:
          :  # basis functions                  44          :
          :  # atomic orbitals                  44          :
          :  # shells                           28          :
          :  # electrons                        48          :
          :  max. iterations                   250          :
          :  Hamiltonian                  GFN2-xTB          :
          :  restarted?                      false          :
          :  GBSA solvation                  false          :
          :  PC potential                    false          :
          :  electronic temp.          300.0000000     K    :
          :  accuracy                    1.0000000          :
          :  -> integral cutoff          0.2500000E+02      :
          :  -> integral neglect         0.1000000E-07      :
          :  -> SCF convergence          0.1000000E-05 Eh   :
          :  -> wf. convergence          0.1000000E-03 e    :
          :  Broyden damping             0.4000000          :
          :  net charge                          0          :
          :  unpaired electrons                  0          :
          ...................................................

 iter      E             dE          RMSdq      gap      omega  full diag
   1    -27.3533839 -0.273534E+02  0.398E+00    6.04       0.0  T
   2    -27.4218933 -0.685094E-01  0.208E+00    4.82       1.0  T
   3    -27.4246298 -0.273651E-02  0.114E+00    5.30       1.0  T
   4    -27.4270095 -0.237968E-02  0.179E-01    4.99       1.0  T
   5    -27.4273140 -0.304542E-03  0.750E-02    5.06       1.0  T
   6    -27.4273197 -0.564985E-05  0.198E-02    5.06       1.1  T
   7    -27.4273205 -0.821091E-06  0.716E-03    5.06       3.1  T
   8    -27.4273206 -0.134749E-06  0.183E-03    5.06      12.2  T
   9    -27.4273206 -0.684821E-08  0.910E-04    5.06      24.6  T
  10    -27.4273206 -0.233976E-08  0.227E-04    5.06      98.6  T

   *** convergence criteria satisfied after 10 iterations ***

         #    Occupation            Energy/Eh            Energy/eV
      -------------------------------------------------------------
         1        2.0000           -0.7449358             -20.2707
       ...           ...                  ...                  ...
        18        2.0000           -0.4698411             -12.7850
        19        2.0000           -0.4491648             -12.2224
        20        2.0000           -0.4479258             -12.1887
        21        2.0000           -0.4469393             -12.1618
        22        2.0000           -0.4403903             -11.9836
        23        2.0000           -0.4273185             -11.6279
        24        2.0000           -0.4130659             -11.2401 (HOMO)
        25                         -0.2271977              -6.1824 (LUMO)
        26                         -0.0044701              -0.1216
        27                          0.0858852               2.3371
        28                          0.1056750               2.8756
        29                          0.1199638               3.2644
       ...                                ...                  ...
        44                          0.6298346              17.1387
      -------------------------------------------------------------
                  HL-Gap            0.1858682 Eh            5.0577 eV
             Fermi-level           -0.3201318 Eh           -8.7112 eV

 SCC (total)                   0 d,  0 h,  0 min,  0.024 sec
 SCC setup                      ...        0 min,  0.000 sec (  0.750%)
 Dispersion                     ...        0 min,  0.000 sec (  0.505%)
 classical contributions        ...        0 min,  0.000 sec (  0.101%)
 integral evaluation            ...        0 min,  0.002 sec (  6.334%)
 iterations                     ...        0 min,  0.017 sec ( 71.345%)
 molecular gradient             ...        0 min,  0.005 sec ( 20.249%)
 printout                       ...        0 min,  0.000 sec (  0.656%)

         :::::::::::::::::::::::::::::::::::::::::::::::::::::
         ::                     SUMMARY                     ::
         :::::::::::::::::::::::::::::::::::::::::::::::::::::
         :: total energy             -27.112152062311 Eh    ::
         :: gradient norm              0.027348799701 Eh/a0 ::
         :: HOMO-LUMO gap              5.057731754391 eV    ::
         ::.................................................::
         :: SCC energy               -27.427362438017 Eh    ::
         :: -> isotropic ES            0.047061380448 Eh    ::
         :: -> anisotropic ES          0.002741515904 Eh    ::
         :: -> anisotropic XC          0.007834794962 Eh    ::
         :: -> dispersion             -0.011198973284 Eh    ::
         :: repulsion energy           0.315210375706 Eh    ::
         :: add. restraining           0.000000000000 Eh    ::
         :: total charge              -0.000000000000 e     ::
         :::::::::::::::::::::::::::::::::::::::::::::::::::::

           -------------------------------------------------
          |                Property Printout                |
           -------------------------------------------------

    * Orbital Energies and Occupations

         #    Occupation            Energy/Eh            Energy/eV
      -------------------------------------------------------------
         1        2.0000           -0.7449358             -20.2707
       ...           ...                  ...                  ...
        12        2.0000           -0.5262537             -14.3201
        13        2.0000           -0.5160680             -14.0429
        14        2.0000           -0.5044514             -13.7268
        15        2.0000           -0.4958986             -13.4941
        16        2.0000           -0.4875983             -13.2682
        17        2.0000           -0.4761167             -12.9558
        18        2.0000           -0.4698411             -12.7850
        19        2.0000           -0.4491648             -12.2224
        20        2.0000           -0.4479258             -12.1887
        21        2.0000           -0.4469393             -12.1618
        22        2.0000           -0.4403903             -11.9836
        23        2.0000           -0.4273185             -11.6279
        24        2.0000           -0.4130659             -11.2401 (HOMO)
        25                         -0.2271977              -6.1824 (LUMO)
        26                         -0.0044701              -0.1216
        27                          0.0858852               2.3371
        28                          0.1056750               2.8756
        29                          0.1199638               3.2644
        30                          0.1312517               3.5715
        31                          0.1396036               3.7988
        32                          0.1536234               4.1803
        33                          0.1617179               4.4006
        34                          0.1739045               4.7322
        35                          0.1825118               4.9664
       ...                                ...                  ...
        44                          0.6298346              17.1387
      -------------------------------------------------------------
                  HL-Gap            0.1858682 Eh            5.0577 eV
             Fermi-level           -0.3201318 Eh           -8.7112 eV

     #   Z          covCN         q      C6AA      α(0)
     1   6 C        3.753    -0.105    22.560     6.773
     2   6 C        3.801    -0.055    21.555     6.610
     3   6 C        3.804    -0.056    21.584     6.614
     4   6 C        3.804    -0.090    22.219     6.711
     5   6 C        2.711     0.357    20.940     7.490
     6   8 O        0.856    -0.422    22.122     6.306
     7   8 O        1.704    -0.261    18.319     5.779
     8   6 C        3.643     0.024    20.520     6.512
     9   1 H        0.925     0.037     2.495     2.470
    10   1 H        0.925     0.038     2.474     2.460
    11   1 H        0.925     0.036     2.501     2.473
    12   1 H        0.924     0.033     2.541     2.493
    13   1 H        0.924     0.032     2.553     2.499
    14   1 H        0.924     0.056     2.246     2.344
    15   1 H        0.924     0.039     2.465     2.455
    16   1 H        0.925     0.059     2.210     2.325
    17   1 H        0.924     0.069     2.096     2.264
    18   1 H        0.925     0.067     2.122     2.278
    19   1 H        0.925     0.063     2.162     2.299
    20   1 H        0.924     0.078     1.995     2.209

 Mol. C6AA /au·bohr⁶  :       3021.811841
 Mol. C8AA /au·bohr⁸  :      64065.771376
 Mol. α(0) /au        :         81.363537


Wiberg/Mayer (AO) data.
largest (>0.10) Wiberg bond orders for each atom

 ---------------------------------------------------------------------------
     #   Z sym  total        # sym  WBO       # sym  WBO       # sym  WBO
 ---------------------------------------------------------------------------
     1   6 C    3.996 --     2 C    1.019    11 H    0.988    10 H    0.988
                             9 H    0.987
     2   6 C    3.997 --     1 C    1.019     3 C    1.008    13 H    0.978
                            12 H    0.978
     3   6 C    3.992 --     2 C    1.008     4 C    0.994    15 H    0.978
                            14 H    0.975
     4   6 C    3.994 --     3 C    0.994     5 C    0.974    16 H    0.973
                            17 H    0.948
     5   6 C    3.914 --     6 O    1.737     7 O    1.145     4 C    0.974
     6   8 O    2.025 --     5 C    1.737     7 O    0.175
     7   8 O    2.313 --     5 C    1.145     8 C    0.949     6 O    0.175
     8   6 C    3.921 --    18 H    0.979    19 H    0.978    20 H    0.975
                             7 O    0.949
     9   1 H    0.998 --     1 C    0.987
    10   1 H    0.999 --     1 C    0.988
    11   1 H    0.999 --     1 C    0.988
    12   1 H    0.999 --     2 C    0.978
    13   1 H    0.999 --     2 C    0.978
    14   1 H    0.997 --     3 C    0.975
    15   1 H    0.998 --     3 C    0.978
    16   1 H    0.997 --     4 C    0.973
    17   1 H    0.995 --     4 C    0.948
    18   1 H    0.995 --     8 C    0.979
    19   1 H    0.996 --     8 C    0.978
    20   1 H    0.994 --     8 C    0.975
 ---------------------------------------------------------------------------

Topologies differ in total number of bonds
Writing topology from bond orders to xtbtopo.mol

molecular dipole:
                 x           y           z       tot (Debye)
 q only:        0.049      -0.305       0.657
   full:        0.110      -0.319       0.776       2.152
molecular quadrupole (traceless):
                xx          xy          yy          xz          yz          zz
 q only:        8.207      -2.329      -2.623       1.433       2.180      -5.584
  q+dip:        6.000      -2.330      -0.117       1.695       2.497      -5.882
   full:        6.923      -2.115      -0.490       1.741       3.017      -6.433


           -------------------------------------------------
          | TOTAL ENERGY              -27.112152062311 Eh   |
          | GRADIENT NORM               0.027348799701 Eh/α |
          | HOMO-LUMO GAP               5.057731754391 eV   |
           -------------------------------------------------

------------------------------------------------------------------------
 * finished run on 2025/04/11 at 15:59:02.239     
------------------------------------------------------------------------
 total:
 * wall-time:     0 d,  0 h,  0 min,  0.055 sec
 *  cpu-time:     0 d,  0 h,  0 min,  0.021 sec
 * ratio c/w:     0.377 speedup
 SCF:
 * wall-time:     0 d,  0 h,  0 min,  0.024 sec
 *  cpu-time:     0 d,  0 h,  0 min,  0.013 sec
 * ratio c/w:     0.563 speedup

