      -----------------------------------------------------------      
     |                   =====================                   |     
     |                           x T B                           |     
     |                   =====================                   |     
     |                         S. Grimme                         |     
     |          Mulliken Center for Theoretical Chemistry        |     
     |                    University of Bonn                     |     
      -----------------------------------------------------------      

   * xtb version 6.7.1 (edcfbbe) compiled by 'albert@albert-system' on 2024-07-22

   xtb is free software: you can redistribute it and/or modify it under
   the terms of the GNU Lesser General Public License as published by
   the Free Software Foundation, either version 3 of the License, or
   (at your option) any later version.
   
   xtb is distributed in the hope that it will be useful,
   but WITHOUT ANY WARRANTY; without even the implied warranty of
   MERCHANTABILITY or FITNESS FOR A PARTICULAR PURPOSE.  See the
   GNU Lesser General Public License for more details.
   
   Cite this work as:
   * C. Bannwarth, E. Caldeweyher, S. Ehlert, A. Hansen, P. Pracht,
     J. Seibert, S. Spicher, S. Grimme, WIREs Comput. Mol. Sci., 2020, 11,
     e01493. DOI: 10.1002/wcms.1493
   
   for GFN2-xTB:
   * C. Bannwarth, S. Ehlert and S. Grimme., J. Chem. Theory Comput., 2019,
     15, 1652-1671. DOI: 10.1021/acs.jctc.8b01176
   for GFN1-xTB:
   * S. Grimme, C. Bannwarth, P. Shushkov, J. Chem. Theory Comput., 2017,
     13, 1989-2009. DOI: 10.1021/acs.jctc.7b00118
   for GFN0-xTB:
   * P. Pracht, E. Caldeweyher, S. Ehlert, S. Grimme, ChemRxiv, 2019, preprint.
     DOI: 10.26434/chemrxiv.8326202.v1
   for GFN-FF:
   * S. Spicher and S. Grimme, Angew. Chem. Int. Ed., 2020, 59, 15665-15673.
     DOI: 10.1002/anie.202004239
   
   for ALPB and GBSA implicit solvation:
   * S. Ehlert, M. Stahn, S. Spicher, S. Grimme, J. Chem. Theory Comput.,
     2021, 17, 4250-4261. DOI: 10.1021/acs.jctc.1c00471
   
   for ddCOSMO and CPCM-X implicit solvation:
   * M. Stahn, S. Ehlert, S. Grimme, J. Phys. Chem. A,
     2023, XX, XXXX-XXXX. DOI: 10.1021/acs.jpca.3c04382
   
   for DFT-D4:
   * E. Caldeweyher, C. Bannwarth and S. Grimme, J. Chem. Phys., 2017,
     147, 034112. DOI: 10.1063/1.4993215
   * E. Caldeweyher, S. Ehlert, A. Hansen, H. Neugebauer, S. Spicher,
     C. Bannwarth and S. Grimme, J. Chem. Phys., 2019, 150, 154122.
     DOI: 10.1063/1.5090222
   * E. Caldeweyher, J.-M. Mewes, S. Ehlert and S. Grimme, Phys. Chem. Chem. Phys.
     2020, 22, 8499-8512. DOI: 10.1039/D0CP00502A
   
   for sTDA-xTB:
   * S. Grimme and C. Bannwarth, J. Chem. Phys., 2016, 145, 054103.
     DOI: 10.1063/1.4959605
   
   in the mass-spec context:
   * V. Asgeirsson, C. Bauer and S. Grimme, Chem. Sci., 2017, 8, 4879.
     DOI: 10.1039/c7sc00601b
   * J. Koopman and S. Grimme, ACS Omega 2019, 4, 12, 15120-15133.
     DOI: 10.1021/acsomega.9b02011
   
   for metadynamics refer to:
   * S. Grimme, J. Chem. Theory Comput., 2019, 155, 2847-2862
     DOI: 10.1021/acs.jctc.9b00143
   
   for SPH calculations refer to:
   * S. Spicher and S. Grimme, J. Chem. Theory Comput., 2021, 17, 1701-1714
     DOI: 10.1021/acs.jctc.0c01306
   
   for ONIOM refer to:
   * C. Plett, A. Katbashev, S. Ehlert, S. Grimme, M. Bursch,
     Phys. Chem. Chem. Phys., 2023, 25, 17860-17868. DOI: 10.1039/D3CP02178E
   
   for DIPRO refer to:
   * J. Kohn, N. Gildemeister, S. Grimme, D. Fazzi, A. Hansen,
     J. Chem. Phys., 2023, just accepted.
   
   for PTB refer to:
   * S. Grimme, M. Mueller, A. Hansen, J. Chem. Phys., 2023, 158, 124111.
     DOI: 10.1063/5.0137838
   
   with help from (in alphabetical order)
   P. Atkinson, C. Bannwarth, F. Bohle, G. Brandenburg, E. Caldeweyher
   M. Checinski, S. Dohm, S. Ehlert, S. Ehrlich, I. Gerasimov, C. Hölzer
   A. Katbashev, J. Kohn, J. Koopman, C. Lavigne, S. Lehtola, F. März, M. Müller,
   F. Musil, H. Neugebauer, J. Pisarek, C. Plett, P. Pracht, F. Pultar,
   J. Seibert, P. Shushkov, S. Spicher, M. Stahn, M. Steiner, T. Strunk,
   J. Stückrath, T. Rose, and J. Unsleber
   
 * started run on 2025/04/11 at 15:53:54.918     
   ID    Z sym.   atoms
    1    6 C      1-4, 7, 8
    2    8 O      5, 6
    3    1 H      9-20

           -------------------------------------------------
          |                Calculation Setup                |
           -------------------------------------------------

          program call               : /srv/scratch/z5358697/.xtb/bin/xtb gas.coord --gfn2 --sp --chrg 0 --norestart --parallel 1
          hostname                   : k061
          coordinate file            : gas.coord
          omp threads                :                     1


           -------------------------------------------------
          |                 G F N 2 - x T B                 |
           -------------------------------------------------

        Reference                      10.1021/acs.jctc.8b01176
      * Hamiltonian:
        H0-scaling (s, p, d)           1.850000    2.230000    2.230000
        zeta-weighting                 0.500000
      * Dispersion:
        s8                             2.700000
        a1                             0.520000
        a2                             5.000000
        s9                             5.000000
      * Repulsion:
        kExp                           1.500000    1.000000
        rExp                           1.000000
      * Coulomb:
        alpha                          2.000000
        third order                    shell-resolved
        anisotropic                    true
        a3                             3.000000
        a5                             4.000000
        cn-shift                       1.200000
        cn-exp                         4.000000
        max-rad                        5.000000


          ...................................................
          :                      SETUP                      :
          :.................................................:
          :  # basis functions                  44          :
          :  # atomic orbitals                  44          :
          :  # shells                           28          :
          :  # electrons                        48          :
          :  max. iterations                   250          :
          :  Hamiltonian                  GFN2-xTB          :
          :  restarted?                      false          :
          :  GBSA solvation                  false          :
          :  PC potential                    false          :
          :  electronic temp.          300.0000000     K    :
          :  accuracy                    1.0000000          :
          :  -> integral cutoff          0.2500000E+02      :
          :  -> integral neglect         0.1000000E-07      :
          :  -> SCF convergence          0.1000000E-05 Eh   :
          :  -> wf. convergence          0.1000000E-03 e    :
          :  Broyden damping             0.4000000          :
          :  net charge                          0          :
          :  unpaired electrons                  0          :
          ...................................................

 iter      E             dE          RMSdq      gap      omega  full diag
   1    -27.3541435 -0.273541E+02  0.380E+00    5.92       0.0  T
   2    -27.4253572 -0.712137E-01  0.196E+00    4.67       1.0  T
   3    -27.4289079 -0.355071E-02  0.111E+00    5.16       1.0  T
   4    -27.4311690 -0.226104E-02  0.180E-01    4.87       1.0  T
   5    -27.4314452 -0.276291E-03  0.715E-02    4.94       1.0  T
   6    -27.4314499 -0.466207E-05  0.241E-02    4.94       1.0  T
   7    -27.4314513 -0.134162E-05  0.724E-03    4.94       3.1  T
   8    -27.4314514 -0.123369E-06  0.189E-03    4.94      11.8  T
   9    -27.4314514 -0.615665E-08  0.853E-04    4.94      26.2  T
  10    -27.4314514 -0.209375E-08  0.281E-04    4.94      79.5  T

   *** convergence criteria satisfied after 10 iterations ***

         #    Occupation            Energy/Eh            Energy/eV
      -------------------------------------------------------------
         1        2.0000           -0.7408738             -20.1602
       ...           ...                  ...                  ...
        18        2.0000           -0.4733096             -12.8794
        19        2.0000           -0.4681088             -12.7379
        20        2.0000           -0.4519599             -12.2985
        21        2.0000           -0.4485461             -12.2056
        22        2.0000           -0.4415120             -12.0142
        23        2.0000           -0.4361077             -11.8671
        24        2.0000           -0.4073609             -11.0849 (HOMO)
        25                         -0.2259751              -6.1491 (LUMO)
        26                         -0.0023506              -0.0640
        27                          0.0934904               2.5440
        28                          0.1024118               2.7868
        29                          0.1196216               3.2551
       ...                                ...                  ...
        44                          0.6221478              16.9295
      -------------------------------------------------------------
                  HL-Gap            0.1813858 Eh            4.9358 eV
             Fermi-level           -0.3166680 Eh           -8.6170 eV

 SCC (total)                   0 d,  0 h,  0 min,  0.027 sec
 SCC setup                      ...        0 min,  0.000 sec (  0.995%)
 Dispersion                     ...        0 min,  0.000 sec (  0.589%)
 classical contributions        ...        0 min,  0.000 sec (  0.121%)
 integral evaluation            ...        0 min,  0.002 sec (  9.066%)
 iterations                     ...        0 min,  0.016 sec ( 61.401%)
 molecular gradient             ...        0 min,  0.007 sec ( 27.169%)
 printout                       ...        0 min,  0.000 sec (  0.582%)

         :::::::::::::::::::::::::::::::::::::::::::::::::::::
         ::                     SUMMARY                     ::
         :::::::::::::::::::::::::::::::::::::::::::::::::::::
         :: total energy             -27.115027424015 Eh    ::
         :: gradient norm              0.028008681059 Eh/a0 ::
         :: HOMO-LUMO gap              4.935758994581 eV    ::
         ::.................................................::
         :: SCC energy               -27.431391709897 Eh    ::
         :: -> isotropic ES            0.048299194562 Eh    ::
         :: -> anisotropic ES          0.002693103650 Eh    ::
         :: -> anisotropic XC          0.007630759111 Eh    ::
         :: -> dispersion             -0.011752651916 Eh    ::
         :: repulsion energy           0.316364285882 Eh    ::
         :: add. restraining           0.000000000000 Eh    ::
         :: total charge              -0.000000000000 e     ::
         :::::::::::::::::::::::::::::::::::::::::::::::::::::

           -------------------------------------------------
          |                Property Printout                |
           -------------------------------------------------

    * Orbital Energies and Occupations

         #    Occupation            Energy/Eh            Energy/eV
      -------------------------------------------------------------
         1        2.0000           -0.7408738             -20.1602
       ...           ...                  ...                  ...
        12        2.0000           -0.5274955             -14.3539
        13        2.0000           -0.5124386             -13.9442
        14        2.0000           -0.5020715             -13.6621
        15        2.0000           -0.4931207             -13.4185
        16        2.0000           -0.4868983             -13.2492
        17        2.0000           -0.4765105             -12.9665
        18        2.0000           -0.4733096             -12.8794
        19        2.0000           -0.4681088             -12.7379
        20        2.0000           -0.4519599             -12.2985
        21        2.0000           -0.4485461             -12.2056
        22        2.0000           -0.4415120             -12.0142
        23        2.0000           -0.4361077             -11.8671
        24        2.0000           -0.4073609             -11.0849 (HOMO)
        25                         -0.2259751              -6.1491 (LUMO)
        26                         -0.0023506              -0.0640
        27                          0.0934904               2.5440
        28                          0.1024118               2.7868
        29                          0.1196216               3.2551
        30                          0.1252444               3.4081
        31                          0.1422004               3.8695
        32                          0.1438560               3.9145
        33                          0.1527324               4.1561
        34                          0.1669954               4.5442
        35                          0.1752069               4.7676
       ...                                ...                  ...
        44                          0.6221478              16.9295
      -------------------------------------------------------------
                  HL-Gap            0.1813858 Eh            4.9358 eV
             Fermi-level           -0.3166680 Eh           -8.6170 eV

     #   Z          covCN         q      C6AA      α(0)
     1   6 C        3.752    -0.104    22.543     6.771
     2   6 C        3.802    -0.050    21.478     6.598
     3   6 C        3.804    -0.090    22.221     6.711
     4   6 C        2.716     0.358    20.926     7.488
     5   8 O        0.856    -0.426    22.218     6.320
     6   8 O        1.704    -0.262    18.340     5.782
     7   6 C        3.696     0.083    19.357     6.293
     8   6 C        3.752    -0.116    22.778     6.806
     9   1 H        0.925     0.038     2.470     2.458
    10   1 H        0.925     0.037     2.489     2.467
    11   1 H        0.925     0.042     2.423     2.434
    12   1 H        0.924     0.041     2.437     2.441
    13   1 H        0.924     0.046     2.374     2.410
    14   1 H        0.925     0.066     2.127     2.280
    15   1 H        0.924     0.062     2.179     2.308
    16   1 H        0.924     0.054     2.269     2.356
    17   1 H        0.924     0.050     2.314     2.379
    18   1 H        0.925     0.053     2.277     2.360
    19   1 H        0.925     0.059     2.211     2.325
    20   1 H        0.925     0.059     2.214     2.327

 Mol. C6AA /au·bohr⁶  :       3019.960465
 Mol. C8AA /au·bohr⁸  :      64028.068854
 Mol. α(0) /au        :         81.315432


Wiberg/Mayer (AO) data.
largest (>0.10) Wiberg bond orders for each atom

 ---------------------------------------------------------------------------
     #   Z sym  total        # sym  WBO       # sym  WBO       # sym  WBO
 ---------------------------------------------------------------------------
     1   6 C    3.996 --     2 C    1.021    11 H    0.987     9 H    0.987
                            10 H    0.987
     2   6 C    3.995 --     1 C    1.021     3 C    0.989    12 H    0.977
                            13 H    0.977
     3   6 C    3.993 --     2 C    0.989    14 H    0.974     4 C    0.973
                            15 H    0.958
     4   6 C    3.915 --     5 O    1.736     6 O    1.151     3 C    0.973
     5   8 O    2.015 --     4 C    1.736     6 O    0.173
     6   8 O    2.313 --     4 C    1.151     7 C    0.932     5 O    0.173
     7   6 C    3.928 --     8 C    1.021    17 H    0.970    16 H    0.969
                             6 O    0.932
     8   6 C    3.991 --     7 C    1.021    20 H    0.985    19 H    0.985
                            18 H    0.983
     9   1 H    0.999 --     1 C    0.987
    10   1 H    0.999 --     1 C    0.987
    11   1 H    0.998 --     1 C    0.987
    12   1 H    0.998 --     2 C    0.977
    13   1 H    0.998 --     2 C    0.977
    14   1 H    0.995 --     3 C    0.974
    15   1 H    0.996 --     3 C    0.958
    16   1 H    0.997 --     7 C    0.969
    17   1 H    0.997 --     7 C    0.970
    18   1 H    0.996 --     8 C    0.983
    19   1 H    0.997 --     8 C    0.985
    20   1 H    0.997 --     8 C    0.985
 ---------------------------------------------------------------------------

Topologies differ in total number of bonds
Writing topology from bond orders to xtbtopo.mol

molecular dipole:
                 x           y           z       tot (Debye)
 q only:        0.180      -0.920      -0.457
   full:        0.177      -0.928      -0.507       2.726
molecular quadrupole (traceless):
                xx          xy          yy          xz          yz          zz
 q only:        7.564      -1.779      -5.861       1.101      -2.848      -1.703
  q+dip:        7.030      -1.226      -6.308       1.193      -4.132      -0.722
   full:        7.169      -1.159      -6.516       1.006      -4.475      -0.653


           -------------------------------------------------
          | TOTAL ENERGY              -27.115027424015 Eh   |
          | GRADIENT NORM               0.028008681059 Eh/α |
          | HOMO-LUMO GAP               4.935758994581 eV   |
           -------------------------------------------------

------------------------------------------------------------------------
 * finished run on 2025/04/11 at 15:53:54.980     
------------------------------------------------------------------------
 total:
 * wall-time:     0 d,  0 h,  0 min,  0.062 sec
 *  cpu-time:     0 d,  0 h,  0 min,  0.033 sec
 * ratio c/w:     0.534 speedup
 SCF:
 * wall-time:     0 d,  0 h,  0 min,  0.027 sec
 *  cpu-time:     0 d,  0 h,  0 min,  0.021 sec
 * ratio c/w:     0.799 speedup

