13
 energy: -195.226650382898 gnorm: 0.025775995650 xtb: 6.7.1 (edcfbbe)
C            2.16672708296013        0.56651978215104        0.05565602122466
C            1.23183710694586       -0.34286660395193        0.25459853211282
C            0.00001030400000       -0.48968646191699       -0.58717161776019
C           -1.23158216554575       -0.34255999515180        0.25491741891296
C           -2.16695290076023        0.56624217615092        0.05556013832462
H            3.03557517374514        0.63948141808337        0.68719311180451
H            2.10418546833242        1.27539176006516       -0.75361043003394
H            1.31503126658273       -1.04185472836167        1.07686045517719
H           -0.00019238880009       -1.49046073276046       -1.03183931265724
H            0.00003523290002        0.24940687841052       -1.38909538991554
H           -1.31437195478243       -1.04110810056134        1.07759827737751
H           -3.03572707524521        0.63924201328327        0.68720818440452
H           -2.10500554683278        1.27456201856479       -0.75422552073422
13
 energy: -195.227431118317 gnorm: 0.005523690731 xtb: 6.7.1 (edcfbbe)
C            2.17800506435951        0.57005941548057        0.05380449225816
C            1.23750422765103       -0.34734546977579        0.25312116978430
C           -0.00000206727654       -0.49192933209116       -0.58556525903786
C           -1.23733349467861       -0.34716349361503        0.25335865287664
C           -2.17825468689276        0.56972444551925        0.05365547307162
H            3.04939827305558        0.64147964861485        0.69607868853739
H            2.10805434573723        1.28566486034887       -0.76064748111810
H            1.32596924758382       -1.04761082780771        1.08206064466677
H           -0.00016216702353       -1.49453842270692       -1.03560925992938
H           -0.00001865298373        0.24469070010701       -1.39432457995009
H           -1.32530167371889       -1.04686015974321        1.08283345571208
H           -3.04948467672660        0.64128435179391        0.69614168370363
H           -2.10880399464101        1.28485377118607       -0.76125795006753
13
 energy: -195.227484149251 gnorm: 0.001258363190 xtb: 6.7.1 (edcfbbe)
C            2.18106158426370        0.57332736125079        0.05452664485778
C            1.23902215060445       -0.34574539314953        0.25447540282279
C           -0.00000982279492       -0.49188295487200       -0.58349277765443
C           -1.23884341657787       -0.34555381877117        0.25474375179566
C           -2.18126416822938        0.57304852417683        0.05443236632350
H            3.05728378896973        0.63607860602888        0.69435936950887
H            2.10931192405829        1.28916278579895       -0.76222169444195
H            1.33503291866197       -1.04887052022579        1.08261227078158
H           -0.00014510960703       -1.49566391606694       -1.03482581376327
H           -0.00005077145143        0.24240838804255       -1.39587410303163
H           -1.33441731312870       -1.04819048223118        1.08334643932097
H           -3.05737472994785        0.63585804859315        0.69441231698457
H           -2.11003722406798        1.28833289649660       -0.76284470440510
13
 energy: -195.227489697041 gnorm: 0.001087504668 xtb: 6.7.1 (edcfbbe)
C            2.18472751232448        0.57204457254245        0.05177741086764
C            1.24157315233175       -0.34597132445100        0.25344897386370
C           -0.00001552237932       -0.49138285418517       -0.58108559087110
C           -1.24144185684274       -0.34585861666427        0.25367638777708
C           -2.18497056063207        0.57169260777794        0.05163728966902
H            3.05897630732912        0.63449500940329        0.69430377580612
H            2.10907679769234        1.29214875995085       -0.76092727457600
H            1.34164889550831       -1.04819381501760        1.08213558055354
H           -0.00011085935815       -1.49586178341633       -1.03163280951144
H           -0.00007380778234        0.24108988355749       -1.39545139481098
H           -1.34107398591478       -1.04758438168573        1.08283740547376
H           -3.05903398676546        0.63430381110244        0.69439941429776
H           -2.10971226013365        1.29138767950360       -0.76146968674334
13
 energy: -195.227493997810 gnorm: 0.000306916167 xtb: 6.7.1 (edcfbbe)
C            2.18405253648627        0.57322620170703        0.05252023029317
C            1.24155609052392       -0.34507946164243        0.25403574924567
C           -0.00001691556504       -0.49077614511763       -0.57996376870990
C           -1.24142113516925       -0.34496658339293        0.25427230849574
C           -2.18425325404933        0.57292614193271        0.05243771023772
H            3.06051827790497        0.63176884646998        0.69175157703408
H            2.10985543102099        1.29185173940877       -0.76100381372504
H            1.34364105910271       -1.04806023050702        1.08140582258262
H           -0.00010905825043       -1.49531335843361       -1.02996301624565
H           -0.00007657190271        0.24160178633149       -1.39421038731858
H           -1.34310092560664       -1.04750694369179        1.08206722454588
H           -3.06060011753782        0.63154222619445        0.69182558388300
H           -2.11047555872181        1.29109533932451       -0.76152590440520
13
 energy: -195.227493997810 gnorm: 0.000306916167 xtb: 6.7.1 (edcfbbe)
C            2.18405253648627        0.57322620170703        0.05252023029317
C            1.24155609052392       -0.34507946164243        0.25403574924567
C           -0.00001691556504       -0.49077614511763       -0.57996376870990
C           -1.24142113516925       -0.34496658339293        0.25427230849574
C           -2.18425325404933        0.57292614193271        0.05243771023772
H            3.06051827790497        0.63176884646998        0.69175157703408
H            2.10985543102099        1.29185173940877       -0.76100381372504
H            1.34364105910271       -1.04806023050702        1.08140582258262
H           -0.00010905825043       -1.49531335843361       -1.02996301624565
H           -0.00007657190271        0.24160178633149       -1.39421038731858
H           -1.34310092560664       -1.04750694369179        1.08206722454588
H           -3.06060011753782        0.63154222619445        0.69182558388300
H           -2.11047555872181        1.29109533932451       -0.76152590440520
