33
 energy: -897.807432983438 gnorm: 0.039864873869 xtb: 6.7.1 (edcfbbe)
C           -4.46953624928057       -1.24702507325259       -0.22422041359936
C           -3.64256319951412       -2.36162471884650       -0.24739263270963
C           -2.27067503970620       -2.20750849967821       -0.17231164677636
C           -1.70061873385359       -0.94009800851658       -0.07388847913274
C           -2.53570396032364        0.18247350048086       -0.05116885072267
C           -3.91766140563602        0.01610201510714       -0.12635586915599
C           -1.97395910127471        1.53517902038028        0.05059134582242
O           -2.69621019939476        2.53001188182112        0.08060113663572
C           -0.50599377582422        1.64294536162803        0.11310139405012
C            0.02498476681107        2.91911063789354        0.19432115838611
C            1.40346233062191        3.10658298867661        0.25333346081226
C            2.24558356469508        2.02760502689849        0.23466063330398
C            1.74821480907468        0.70253831921131        0.15858620247027
C            0.33454547844825        0.50535984822394        0.09227480394089
C           -0.22970693180179       -0.82456920196539        0.00419347260186
O            0.45597265870205       -1.86054331032446       -0.00985337830437
N            2.59082100214806       -0.33396431444799        0.15218358086744
C            4.03008163788584       -0.25967164281507        0.20477047509074
C            4.60263328253955       -1.67598414434267        0.31084994843775
O            4.22825628307365       -2.50122936690836       -0.76684389843981
H           -5.54015886335499       -1.36441348050461       -0.28235533512512
H           -4.06824045500274       -3.34985436118441       -0.32388942384352
H           -1.60979193581334       -3.06159571765667       -0.18842440898350
H           -4.53652589721025        0.90101367269926       -0.10599544104697
H           -0.65538634919042        3.75662190226466        0.20823093619227
H            1.80437167959956        4.10624333131959        0.31206975773829
H            3.31032966806689        2.18256260166715        0.27652642612254
H            2.17945369976577       -1.25963507015818        0.04912932202177
H            4.35347613662914        0.31171933713813        1.08039073877875
H            4.41758143715755        0.22944304460167       -0.69788987180925
H            4.20667204956409       -2.16779678226061        1.20205275153266
H            5.69459346702342       -1.61827579031710        0.39745380027612
H            4.59425217833583       -2.14505747695053       -1.58851961740392
33
 energy: -897.809226335690 gnorm: 0.014294023476 xtb: 6.7.1 (edcfbbe)
C           -4.48499086579488       -1.25022713050772       -0.22472814433618
C           -3.65390654756903       -2.36932897851733       -0.24813140851169
C           -2.27795328133399       -2.21702788995550       -0.17319936098122
C           -1.71104865476229       -0.94528250835856       -0.07464025177052
C           -2.54868694097193        0.17976638162439       -0.05108388199247
C           -3.93359076898139        0.01701593709223       -0.12632947971093
C           -1.97851098361407        1.53284469217740        0.05026108765230
O           -2.70628365708121        2.52935388842664        0.08043057195269
C           -0.50517284396601        1.65239437900047        0.11344773838079
C            0.02682937539375        2.92941515609354        0.19507783140961
C            1.41080122862782        3.10862034771860        0.25308448062689
C            2.25817633328582        2.02705341855526        0.23499940996287
C            1.75419969237815        0.70167458093505        0.16053728859188
C            0.33506695216467        0.50920662787300        0.09114266360109
C           -0.23710397639442       -0.82008225862541        0.00079377280048
O            0.45369317410263       -1.86034590865626       -0.01882229827160
N            2.59686728169052       -0.34166688201683        0.15778286910876
C            4.04326590158888       -0.26368913298831        0.20607674428909
C            4.61098682538995       -1.67419088119504        0.31193237096872
O            4.22845060210121       -2.50685148463473       -0.77806096902967
H           -5.56012258513804       -1.36921066274782       -0.28335658947866
H           -4.08148433750052       -3.36196406908892       -0.32491570164295
H           -1.62038746845412       -3.07764050480102       -0.18998677453946
H           -4.55996341866884        0.90078372615811       -0.10678007746331
H           -0.64772754483456        3.77565693789652        0.20921564698271
H            1.81879626009738        4.11081309919662        0.31143405460754
H            3.32805033205822        2.18219862562737        0.27720295452481
H            2.17513980602699       -1.25980013214336        0.05635247140087
H            4.37684215509656        0.31102823951055        1.07890582251665
H            4.44073666993907        0.22773108895017       -0.69339747595471
H            4.22297181026486       -2.15879279643334        1.21341010990062
H            5.70268259866882       -1.60279195035417        0.40063698339474
H            4.59592751812211       -2.13999784024741       -1.59307609777123
33
 energy: -897.809580866327 gnorm: 0.004454418797 xtb: 6.7.1 (edcfbbe)
C           -4.49623519784909       -1.25109658069877       -0.22444917971466
C           -3.66379935435561       -2.37212335753000       -0.24810038537313
C           -2.28566309176746       -2.22162202692083       -0.17418935224649
C           -1.71970839323055       -0.94770440920625       -0.07630924131575
C           -2.55831012128579        0.17890261586419       -0.05164678128684
C           -3.94508565940253        0.01823518458505       -0.12608801689469
C           -1.98217805780452        1.53188937256476        0.04997955837695
O           -2.71095518016947        2.52968849180377        0.08016386052080
C           -0.50557527626874        1.65780340154782        0.11343105006216
C            0.02751299522974        2.93488317848149        0.19492985403404
C            1.41450825868019        3.10756487185895        0.25209545191768
C            2.26397799593816        2.02507384690501        0.23488541299889
C            1.75662622036440        0.70006919316624        0.16217958178329
C            0.33397124425551        0.51113348129815        0.09040019453821
C           -0.24386297135943       -0.81623520382413       -0.00392704744618
O            0.45027335044359       -1.85770515761501       -0.02951877271131
N            2.59965466304612       -0.34731813857531        0.16451453797482
C            4.05029374090624       -0.26865195410813        0.20673011972193
C            4.62616233026884       -1.66989327545301        0.31550827770668
O            4.24021670233511       -2.50984724344841       -0.77797105012858
H           -5.57318858675179       -1.37168378884928       -0.28320440065573
H           -4.09335039667521       -3.36611070098827       -0.32492068883495
H           -1.63354036217188       -3.08770621311675       -0.19209290640373
H           -4.57811360742793        0.89877250944452       -0.10669035436146
H           -0.63955961672896        3.78866174645205        0.20992415423670
H            1.82841697871509        4.10971761694947        0.30960686669965
H            3.33569656777604        2.18079630584836        0.27739149514137
H            2.16926315575736       -1.26088963812435        0.06385553315928
H            4.38832032128713        0.30952650535397        1.07718507723502
H            4.44550170419567        0.22716449570456       -0.69241244477153
H            4.24886050572782       -2.15968203339679        1.21956413647607
H            5.71841982921081       -1.59545028728113        0.39417897880731
H            4.60399544230116       -2.12949590429463       -1.58878148435319
33
 energy: -897.809636098065 gnorm: 0.002075673520 xtb: 6.7.1 (edcfbbe)
C           -4.50007341118591       -1.24963248612004       -0.22380357145630
C           -3.66835497798519       -2.37093080381600       -0.24796146896307
C           -2.28978894405845       -2.22168746724141       -0.17526709479627
C           -1.72306901100361       -0.94792085973269       -0.07808935242622
C           -2.56123266166745        0.17932497738427       -0.05269609188240
C           -3.94842266972074        0.01970990400084       -0.12581211907068
C           -1.98315861002623        1.53187320653954        0.04905355455042
O           -2.71051051063624        2.53044844025677        0.07974115182375
C           -0.50576728116523        1.65745607048906        0.11298524181851
C            0.02784624688319        2.93419445226768        0.19428167330493
C            1.41527844877513        3.10448010932619        0.25100277714989
C            2.26425401295985        2.02169188138201        0.23506767233561
C            1.75662906900193        0.69688411449829        0.16417205086891
C            0.33305113165267        0.50971290909651        0.09059662864423
C           -0.24679572308862       -0.81609450626469       -0.00671790052081
O            0.44763985746855       -1.85757848220705       -0.03568424413603
N            2.60007707446366       -0.35125408657996        0.17069184683711
C            4.05156676473596       -0.26953069673367        0.20883424645856
C            4.63402209561812       -1.66620572631130        0.31656617841229
O            4.25026009725100       -2.51185564104635       -0.77755011803640
H           -5.57701644467606       -1.37039305970354       -0.28184750400721
H           -4.09910006170916       -3.36439538089621       -0.32410036608325
H           -1.64098256017614       -3.09006031048850       -0.19368280072589
H           -4.58375112943698        0.89842263532624       -0.10594424862676
H           -0.63521216866463        3.79097058988323        0.20940794988449
H            1.83137392830517        4.10576790962438        0.30769598954483
H            3.33573078306825        2.17788888728595        0.27777105558028
H            2.16694948992270       -1.26387301359381        0.06867464403349
H            4.38940744445524        0.31143935565513        1.07769621658059
H            4.44114161107764        0.22791861640861       -0.69184602187870
H            4.26487082401662       -2.16006686677282        1.22157043990437
H            5.72633567626786       -1.58654971724564        0.38827260404295
H            4.60934458253552       -2.12348747939543       -1.58685530723013
33
 energy: -897.809668436118 gnorm: 0.001937685313 xtb: 6.7.1 (edcfbbe)
C           -4.50343813731000       -1.24669263076946       -0.22275213286416
C           -3.67326371642468       -2.36837559275767       -0.24779638674459
C           -2.29444976442554       -2.22079226363253       -0.17690889011009
C           -1.72608965540202       -0.94795238705629       -0.08055143571890
C           -2.56314415017345        0.18002724677435       -0.05422937214417
C           -3.95042847200084        0.02200802490051       -0.12557114327653
C           -1.98375553389439        1.53194643090735        0.04811880406640
O           -2.70903204877557        2.53138710501414        0.07897805818739
C           -0.50594853760457        1.65523472468748        0.11236756114117
C            0.02853656509625        2.93134738025022        0.19299243272684
C            1.41593001108757        3.09972492450900        0.24970259240338
C            2.26340740425569        2.01628889815802        0.23574562764057
C            1.75547136889523        0.69183656255461        0.16725656017694
C            0.33167998708402        0.50668689169661        0.09145611166593
C           -0.24982557054346       -0.81729257597330       -0.00972347179694
O            0.44410785474962       -1.85886709383546       -0.04205700483103
N            2.59895531998750       -0.35663424883048        0.17884382935959
C            4.05065093482660       -0.26990198394122        0.21104384550320
C            4.64375382090869       -1.66107548172215        0.31774713781760
O            4.26279784879757       -2.51146739360349       -0.77668005017153
H           -5.58023430431879       -1.36667573543447       -0.27929846702645
H           -4.10541277524993       -3.36094208550303       -0.32297039612979
H           -1.64854606829931       -3.09099997790672       -0.19592934461149
H           -4.58653205722386        0.89977290552190       -0.10475084718931
H           -0.63123991697779        3.79021416243869        0.20754288968038
H            1.83378990861073        4.09995781850005        0.30480084192226
H            3.33436994497187        2.17269945655636        0.27861636603308
H            2.16480601639690       -1.26891210434411        0.07366914844539
H            4.38830273890307        0.31347030746441        1.07817522962056
H            4.43272970515015        0.22945054512512       -0.69164418567607
H            4.28331137698609       -2.15939909342802        1.22339360648468
H            5.73585747689577       -1.57372788912937        0.38202547488599
H            4.61542132362452       -2.11567660095624       -1.58538872606526
33
 energy: -897.809687015151 gnorm: 0.002217247393 xtb: 6.7.1 (edcfbbe)
C           -4.50690254724668       -1.24265038135507       -0.22141004646629
C           -3.67875792731086       -2.36520679782160       -0.24784062179893
C           -2.29969711012856       -2.21971704780374       -0.17908490885868
C           -1.72894342167392       -0.94827844038014       -0.08330182035909
C           -2.56431187670366        0.18081319858707       -0.05595513457950
C           -3.95159385699870        0.02498249135319       -0.12521909223321
C           -1.98353799135923        1.53166201081290        0.04630768841753
O           -2.70670116644435        2.53218940187673        0.07753133239183
C           -0.50585076297952        1.65159708675470        0.11164131188868
C            0.02988074895544        2.92707551623737        0.19099867512765
C            1.41700253497007        3.09411166882739        0.24807412259448
C            2.26235933710998        2.00943242335229        0.23728996778544
C            1.75370532241271        0.68527108103983        0.17147733331641
C            0.33010714841388        0.50203690613699        0.09318612304544
C           -0.25235234352468       -0.82109684181246       -0.01185055884302
O            0.44014853307458       -1.86288906204199       -0.04693747031759
N            2.59724202299028       -0.36302330859214        0.18926869958175
C            4.04844638946650       -0.26892994092194        0.21401702066106
C            4.65337418545485       -1.65512715893286        0.31755756102113
O            4.27579642312614       -2.50857678218485       -0.77640368264566
H           -5.58374657978068       -1.36068494211458       -0.27576309762575
H           -4.11247237388121       -3.35681545493523       -0.32186955769640
H           -1.65567652526191       -3.09097763445429       -0.19888521377034
H           -4.58632125806104        0.90347791498107       -0.10329171570640
H           -0.62842814430757        3.78675651131125        0.20368671174343
H            1.83618523856967        4.09352980140239        0.30090864050960
H            3.33295731455792        2.16561605353307        0.28064764421493
H            2.16466682160412       -1.27548167241898        0.07827397180255
H            4.38634708703574        0.31656724780772        1.07936027155451
H            4.42192121353173        0.23266271111863       -0.69091025481073
H            4.30223259529849       -2.15754400668728        1.22416485728418
H            5.74476771289665       -1.55695674386395        0.37605858990908
H            4.62068744025427       -2.10715678739370       -1.58550674725190
33
 energy: -897.809695433066 gnorm: 0.001346140031 xtb: 6.7.1 (edcfbbe)
C           -4.50852399975773       -1.24116541534798       -0.22087086655914
C           -3.68113103603325       -2.36440969947572       -0.24798901194570
C           -2.30188962720419       -2.21982907215795       -0.17997962449803
C           -1.73003328259746       -0.94890361167125       -0.08417006292587
C           -2.56461979978325        0.18074601597842       -0.05645578290993
C           -3.95200215662529        0.02598545386110       -0.12516325441066
C           -1.98315453995170        1.53106600636805        0.04601700462457
O           -2.70604049684945        2.53206466859731        0.07651306994363
C           -0.50566997521019        1.65029091209302        0.11119591429452
C            0.03062182606620        2.92565153953597        0.18950446221187
C            1.41766003309235        3.09246441319184        0.24723329581976
C            2.26239114055118        2.00718565805799        0.23838958295312
C            1.75302781426168        0.68318399953942        0.17370719791602
C            0.32964171036803        0.50036326318553        0.09417510842461
C           -0.25316976464493       -0.82291464078311       -0.01210078852336
O            0.43874083023659       -1.86481456486824       -0.04716376035135
N            2.59681822387057       -0.36512300621814        0.19398807454675
C            4.04783016646554       -0.26832939781151        0.21539280102030
C            4.65654053668645       -1.65319353385271        0.31670246073465
O            4.27940452552576       -2.50586704007813       -0.77689027810666
H           -5.58562992910788       -1.35799613896383       -0.27432162633791
H           -4.11550988272132       -3.35582175960237       -0.32188011969944
H           -1.65786039199492       -3.09114938318552       -0.20013776914578
H           -4.58518655435418        0.90572773660894       -0.10277215732269
H           -0.62838861378397        3.78488859645736        0.20084597628242
H            1.83713327075264        4.09187330911085        0.29905866840240
H            3.33308895809616        2.16299428042403        0.28233477493725
H            2.16614906786442       -1.27794523234371        0.07981416976319
H            4.38659416093029        0.31730326271229        1.08029008018269
H            4.41832273522628        0.23450889471255       -0.69014551836535
H            4.30814584839404       -2.15678029395107        1.22369940731676
H            5.74762267812096       -1.55141500982797        0.37418094766292
H            4.62160901823680       -2.10397106412969       -1.58678669478703
33
 energy: -897.809700412069 gnorm: 0.001089802230 xtb: 6.7.1 (edcfbbe)
C           -4.51154583750733       -1.23874245265123       -0.22006708091888
C           -3.68545494646870       -2.36334472548991       -0.24845939627687
C           -2.30584514691617       -2.22055502163496       -0.18122214045291
C           -1.73214339414916       -0.95027910269696       -0.08478037169732
C           -2.56533097594427        0.18043738034487       -0.05681844395770
C           -3.95299307131747        0.02750850401476       -0.12460714614547
C           -1.98228663543221        1.52988850329943        0.04372943228338
O           -2.70484577706481        2.53163629663201        0.07398582331687
C           -0.50531495321079        1.64826264739684        0.11018117698854
C            0.03172421972895        2.92364345328387        0.18647153212393
C            1.41861673824826        3.09013604816821        0.24571034829639
C            2.26258414077359        2.00394109957609        0.24077582347812
C            1.75230839921983        0.67996034093309        0.17770914807870
C            0.32919069436421        0.49767211181418        0.09625586166778
C           -0.25469596625236       -0.82608138445198       -0.01067487435330
O            0.43625155995256       -1.86831118086755       -0.04531409158172
N            2.59690682717938       -0.36797550651683        0.20260543190854
C            4.04758883999009       -0.26700035172635        0.21818459359191
C            4.66125412724647       -1.65034109119831        0.31422610212011
O            4.28442541008546       -2.50061603651976       -0.77889466617375
H           -5.58912374816364       -1.35356325022528       -0.27243848033146
H           -4.12111567357660       -3.35445084520309       -0.32245723935709
H           -1.66170023226084       -3.09209334494018       -0.20207672119529
H           -4.58333169890363        0.90951480027137       -0.10191872558243
H           -0.62894033031199        3.78194984953409        0.19476040780317
H            1.83851399045720        4.08968116344716        0.29561192783787
H            3.33339089722566        2.15919291435767        0.28647807772761
H            2.17042644952940       -1.28138923581127        0.08244769879304
H            4.38863896234643        0.31804593747408        1.08255820467992
H            4.41368192629345        0.23839305884225       -0.68778525708265
H            4.31722076594453       -2.15631576370410        1.22171807685246
H            5.75197924867174       -1.54379452145970        0.37055088440391
H            4.62249494402959       -2.09834130278275       -1.59024443549173
33
 energy: -897.809702080230 gnorm: 0.000447002920 xtb: 6.7.1 (edcfbbe)
C           -4.51118413005305       -1.23918964142846       -0.22047428917320
C           -3.68486755806228       -2.36358795238732       -0.24842818427394
C           -2.30532569596287       -2.22066971601865       -0.18062259197886
C           -1.73193885634622       -0.95020146831999       -0.08429530233066
C           -2.56538873158399        0.18037150921726       -0.05653914237145
C           -3.95308175855141        0.02723518080677       -0.12498824844781
C           -1.98269352812311        1.53018554816434        0.04489399680689
O           -2.70523788708722        2.53180527071939        0.07360755692455
C           -0.50536750795708        1.64872569356348        0.11005316772150
C            0.03140227472704        2.92423035777978        0.18614366580155
C            1.41829517326133        3.09063785830257        0.24563560499064
C            2.26251879623006        2.00466983085147        0.24077177832706
C            1.75261003848976        0.68059862774185        0.17756455831164
C            0.32937381163642        0.49818885912912        0.09602508008154
C           -0.25462905724450       -0.82532050074285       -0.01053652567554
O            0.43658426623795       -1.86755881068261       -0.04416052502873
N            2.59734497987319       -0.36731145337702        0.20221038396020
C            4.04824824106777       -0.26738494305897        0.21825518577020
C            4.66061444632315       -1.65115136943227        0.31403515648003
O            4.28311669977327       -2.50113649564163       -0.77963530806894
H           -5.58865278943094       -1.35452995000917       -0.27319504688132
H           -4.12045388432068       -3.35465640874492       -0.32274014997574
H           -1.66151284005264       -3.09239572175840       -0.20127622112541
H           -4.58414187811667        0.90864355597801       -0.10228115952007
H           -0.62874558112717        3.78283756535064        0.19446806811134
H            1.83824234813266        4.09013078002720        0.29580502964289
H            3.33327679489624        2.16010746236247        0.28670222033687
H            2.17043208642587       -1.28065872963396        0.08282289643626
H            4.38942446907190        0.31725127276535        1.08292330000348
H            4.41471998544600        0.23823564926551       -0.68747644356913
H            4.31614883531855       -2.15733428958282        1.22128521573992
H            5.75155642462526       -1.54585327070089        0.37016964080364
H            4.62184220575139       -2.09824563037763       -1.59052472721016
33
 energy: -897.809702080230 gnorm: 0.000447002920 xtb: 6.7.1 (edcfbbe)
C           -4.51118413005305       -1.23918964142846       -0.22047428917320
C           -3.68486755806228       -2.36358795238732       -0.24842818427394
C           -2.30532569596287       -2.22066971601865       -0.18062259197886
C           -1.73193885634622       -0.95020146831999       -0.08429530233066
C           -2.56538873158399        0.18037150921726       -0.05653914237145
C           -3.95308175855141        0.02723518080677       -0.12498824844781
C           -1.98269352812311        1.53018554816434        0.04489399680689
O           -2.70523788708722        2.53180527071939        0.07360755692455
C           -0.50536750795708        1.64872569356348        0.11005316772150
C            0.03140227472704        2.92423035777978        0.18614366580155
C            1.41829517326133        3.09063785830257        0.24563560499064
C            2.26251879623006        2.00466983085147        0.24077177832706
C            1.75261003848976        0.68059862774185        0.17756455831164
C            0.32937381163642        0.49818885912912        0.09602508008154
C           -0.25462905724450       -0.82532050074285       -0.01053652567554
O            0.43658426623795       -1.86755881068261       -0.04416052502873
N            2.59734497987319       -0.36731145337702        0.20221038396020
C            4.04824824106777       -0.26738494305897        0.21825518577020
C            4.66061444632315       -1.65115136943227        0.31403515648003
O            4.28311669977327       -2.50113649564163       -0.77963530806894
H           -5.58865278943094       -1.35452995000917       -0.27319504688132
H           -4.12045388432068       -3.35465640874492       -0.32274014997574
H           -1.66151284005264       -3.09239572175840       -0.20127622112541
H           -4.58414187811667        0.90864355597801       -0.10228115952007
H           -0.62874558112717        3.78283756535064        0.19446806811134
H            1.83824234813266        4.09013078002720        0.29580502964289
H            3.33327679489624        2.16010746236247        0.28670222033687
H            2.17043208642587       -1.28065872963396        0.08282289643626
H            4.38942446907190        0.31725127276535        1.08292330000348
H            4.41471998544600        0.23823564926551       -0.68747644356913
H            4.31614883531855       -2.15733428958282        1.22128521573992
H            5.75155642462526       -1.54585327070089        0.37016964080364
H            4.62184220575139       -2.09824563037763       -1.59052472721016
