
                                 *****************
                                 * O   R   C   A *
                                 *****************

                                            #,                                       
                                            ###                                      
                                            ####                                     
                                            #####                                    
                                            ######                                   
                                           ########,                                 
                                     ,,################,,,,,                         
                               ,,#################################,,                 
                          ,,##########################################,,             
                       ,#########################################, ''#####,          
                    ,#############################################,,   '####,        
                  ,##################################################,,,,####,       
                ,###########''''           ''''###############################       
              ,#####''   ,,,,##########,,,,          '''####'''          '####       
            ,##' ,,,,###########################,,,                        '##       
           ' ,,###''''                  '''############,,,                           
         ,,##''                                '''############,,,,        ,,,,,,###''
      ,#''                                            '''#######################'''  
     '                                                          ''''####''''         
             ,#######,   #######,   ,#######,      ##                                
            ,#'     '#,  ##    ##  ,#'     '#,    #''#        ,####,   ,####,        
            ##       ##  ##   ,#'  ##            #'  '#       #'       #'  '#        
            ##       ##  #######   ##           ,######,      #####,   #    #        
            '#,     ,#'  ##    ##  '#,     ,#' ,#      #,     #,   #   #,  ,#        
             '#######'   ##     ##  '#######'  #'      '#     '####' # '####'        



                #########################################################
                #                        -***-                          #
                #          Department of theory and spectroscopy        #
                #                                                       #
                #                      Frank Neese                      #
                #                                                       #
                #     Directorship, Architecture, Infrastructure        #
                #                    SHARK, DRIVERS                     #
                #        Core code/Algorithms in most modules           #
                #                                                       #
                #        Max Planck Institute fuer Kohlenforschung      #
                #                Kaiser Wilhelm Platz 1                 #
                #                 D-45470 Muelheim/Ruhr                 #
                #                      Germany                          #
                #                                                       #
                #                  All rights reserved                  #
                #                        -***-                          #
                #########################################################


                         Program Version 6.0.0  -   RELEASE  -


 With contributions from (in alphabetic order):
   Daniel Aravena         : Magnetic Suceptibility
   Michael Atanasov       : Ab Initio Ligand Field Theory (pilot matlab implementation)
   Alexander A. Auer      : GIAO ZORA, VPT2 properties, NMR spectrum
   Ute Becker             : All parallelization in ORCA, NUMFREQ, NUMCALC
   Giovanni Bistoni       : ED, misc. LED, open-shell LED, HFLD
   Martin Brehm           : Molecular dynamics
   Dmytro Bykov           : pre 5.0 version of the SCF Hessian
   Marcos Casanova-Páez   : Triplet and SCS-CIS(D). UHF-(DLPNO)-IP/EA/STEOM-CCSD. UHF-CVS-IP/STEOM-CCSD
   Vijay G. Chilkuri      : MRCI spin determinant printing, contributions to CSF-ICE
   Pauline Colinet        : FMM embedding
   Dipayan Datta          : RHF DLPNO-CCSD density
   Achintya Kumar Dutta   : EOM-CC, STEOM-CC
   Nicolas Foglia         : Exact transition moments, OPA infrastructure, MCD improvements
   Dmitry Ganyushin       : Spin-Orbit,Spin-Spin,Magnetic field MRCI
   Miquel Garcia          : C-PCM and meta-GGA Hessian, CCSD/C-PCM, Gaussian charge scheme
   Tiago L. C. Gouveia    : GS-ROHF, GS-ROCIS
   Yang Guo               : DLPNO-NEVPT2, F12-NEVPT2, CIM, IAO-localization
   Andreas Hansen         : Spin unrestricted coupled pair/coupled cluster methods
   Ingolf Harden          : AUTO-CI MPn and infrastructure 
   Benjamin Helmich-Paris : MC-RPA, TRAH-(SCF,CASSCF), AVAS, COSX integrals, SCF dyn. polar.
   Lee Huntington         : MR-EOM, pCC
   Robert Izsak           : Overlap fitted RIJCOSX, COSX-SCS-MP3, EOM
   Riya Kayal             : Wick's Theorem for AUTO-CI, AUTO-CI UHF-CCSDT
   Emily Kempfer          : AUTO-CI, RHF CISDT and CCSDT
   Christian Kollmar      : KDIIS, OOCD, Brueckner-CCSD(T), CCSD density, CASPT2, CASPT2-K, improved NEVPT2
   Axel Koslowski         : Symmetry handling
   Simone Kossmann        : Meta GGA functionals, TD-DFT gradient, OOMP2, (MP2 Hessian; deprecated post 5.0)
   Lucas Lang             : DCDCAS
   Marvin Lechner         : AUTO-CI (C++ implementation), FIC-MRCC
   Spencer Leger          : CASSCF response
   Dagmar Lenk            : GEPOL surface, SMD, ORCA-2-JSON
   Dimitrios Liakos       : Extrapolation schemes; Compound Job, initial MDCI parallelization
   Dimitrios Manganas     : Further ROCIS development; embedding schemes. LFT, Crystal Embedding
   Dimitrios Pantazis     : SARC Basis sets
   Anastasios Papadopoulos: AUTO-CI, single reference methods and gradients
   Taras Petrenko         : pre 6.0 DFT Hessian and TD-DFT gradient, (ASA, deprecated), ECA, 1-Electron XAS/XES, NRVS
   Peter Pinski           : DLPNO-MP2, DLPNO-MP2 Gradient
   Christoph Reimann      : Effective Core Potentials
   Marius Retegan         : Local ZFS, SOC
   Christoph Riplinger    : Optimizer, TS searches, QM/MM, DLPNO-CCSD(T), (RO)-DLPNO pert. Triples
   Michael Roemelt        : Original ROCIS implementation
   Masaaki Saitow         : Open-shell DLPNO-CCSD energy and density
   Barbara Sandhoefer     : DKH picture change effects
   Kantharuban Sivalingam : CASSCF convergence/infrastructure, NEVPT2 and variants, FIC-MRCI
   Bernardo de Souza      : ESD, SOC TD-DFT
   Georgi Stoychev        : AutoAux, RI-MP2 NMR, DLPNO-MP2 response, X2C
   Van Anh Tran           : RI-MP2 g-tensors
   Willem Van den Heuvel  : Paramagnetic NMR
   Zikuan Wang            : NOTCH, Electric field optimization 
   Frank Wennmohs         : Technical directorship and infrastructure
   Hang Xu                : AUTO-CI-Response properties 


 We gratefully acknowledge several colleagues who have allowed us to
 interface, adapt or use parts of their codes:
   Stefan Grimme, W. Hujo, H. Kruse, P. Pracht,  : VdW corrections, initial TS optimization,
                  C. Bannwarth, S. Ehlert,         DFT functionals, gCP, sTDA/sTD-DF
                  L. Wittmann, M. Mueller
   Ed Valeev, F. Pavosevic, A. Kumar             : LibInt (2-el integral package), F12 methods
   Garnet Chan, S. Sharma, J. Yang, R. Olivares  : DMRG
   Ulf Ekstrom                                   : XCFun DFT Library
   Mihaly Kallay                                 : mrcc  (arbitrary order and MRCC methods)
   Frank Weinhold                                : gennbo (NPA and NBO analysis)
   Simon Mueller                                 : openCOSMO-RS
   Christopher J. Cramer and Donald G. Truhlar   : smd solvation model
   Lars Goerigk                                  : TD-DFT with DH, B97 family of functionals
   V. Asgeirsson, H. Jonsson                     : NEB implementation
   FAccTs GmbH                                   : IRC, NEB, NEB-TS, DLPNO-Multilevel, CI-OPT
                                                   MM, QMMM, 2- and 3-layer-ONIOM, Crystal-QMMM,
                                                   LR-CPCM, SF, NACMEs, symmetry and pop. for TD-DFT,
                                                   nearIR, NL-DFT gradient (VV10), updates on ESD,
                                                   ML-optimized integration grids, MBIS, APM,
                                                   GOAT, DOCKER, SOLVATOR, interface openCOSMO-RS
   S Lehtola, MJT Oliveira, MAL Marques          : LibXC Library
   Liviu Ungur et al                             : ANISO software


 Your calculation uses the libint2 library for the computation of 2-el integrals
 For citations please refer to: http://libint.valeyev.net

 Your ORCA version has been built with support for libXC version: 6.2.2
 For citations please refer to: https://libxc.gitlab.io

 This ORCA versions uses:
   CBLAS   interface :  Fast vector & matrix operations
   LAPACKE interface :  Fast linear algebra routines
   SCALAPACK package :  Parallel linear algebra routines
   Shared memory     :  Shared parallel matrices
   BLAS/LAPACK       :  OpenBLAS 0.3.27  USE64BITINT DYNAMIC_ARCH NO_AFFINITY SkylakeX SINGLE_THREADED
        Core in use  :  SkylakeX
   Copyright (c) 2011-2014, The OpenBLAS Project


Your calculation utilizes the geometrical counterpoise correction gCP
Please cite in your paper:
H.Kruse, S. Grimme J.Chem.Phys., 136, (2012), 154101 
   

Your calculation utilizes the atom-pairwise dispersion correction
based on EEQ partial charges (D4)


================================================================================

----- Orbital basis set information -----
Your calculation utilizes the basis: def2-mTZVPP
   Stefan Grimme, Andreas Hansen, Sebastian Ehlert, and Jan-Michael Mewes 
   J. Chem. Phys. 154, 064103 (2021). DOI: 10.1063/5.0040021

----- AuxJ basis set information -----
Your calculation utilizes the auxiliary basis: def2/J
   F. Weigend, Phys. Chem. Chem. Phys. 8, 1057 (2006).

================================================================================
                                        WARNINGS
                       Please study these warnings very carefully!
================================================================================

Using LibXC functional ID 497 : Re-regularized SCAN exchange by Furness et al
[ 1]  J. W. Furness, A. D. Kaplan, J. Ning, J. P. Perdew, and J. Sun.,  J. Phys. Chem. Lett. 11, 8208-8215 (2020)
[ 2]  J. W. Furness, A. D. Kaplan, J. Ning, J. P. Perdew, and J. Sun.,  J. Phys. Chem. Lett. 11, 9248-9248 (2020)
Using LibXC functional ID 498 : Re-regularized SCAN correlation by Furness et al
[ 1]  J. W. Furness, A. D. Kaplan, J. Ning, J. P. Perdew, and J. Sun.,  J. Phys. Chem. Lett. 11, 8208-8215 (2020)
[ 2]  J. W. Furness, A. D. Kaplan, J. Ning, J. P. Perdew, and J. Sun.,  J. Phys. Chem. Lett. 11, 9248-9248 (2020)
Using LibXC functional ID 497 : Re-regularized SCAN exchange by Furness et al
[ 1]  J. W. Furness, A. D. Kaplan, J. Ning, J. P. Perdew, and J. Sun.,  J. Phys. Chem. Lett. 11, 8208-8215 (2020)
[ 2]  J. W. Furness, A. D. Kaplan, J. Ning, J. P. Perdew, and J. Sun.,  J. Phys. Chem. Lett. 11, 9248-9248 (2020)
Using LibXC functional ID 498 : Re-regularized SCAN correlation by Furness et al
[ 1]  J. W. Furness, A. D. Kaplan, J. Ning, J. P. Perdew, and J. Sun.,  J. Phys. Chem. Lett. 11, 8208-8215 (2020)
[ 2]  J. W. Furness, A. D. Kaplan, J. Ning, J. P. Perdew, and J. Sun.,  J. Phys. Chem. Lett. 11, 9248-9248 (2020)

================================================================================
                                       INPUT FILE
================================================================================
NAME = sp_gas.inp
|  1> ! r2scan-3c def2/J RI DEFGRID2 scfconv6 printgap
|  2> %output
|  3>     printlevel normal
|  4> end
|  5> * xyz 0 1
|  6> C -3.2505315348 -0.8999548553 -0.3198884185
|  7> C -1.8576906139 -0.627572914 0.2352573122
|  8> C -1.4996082976 0.8548106237 0.1522145186
|  9> C -0.1158589915 1.1435642999 0.7451413469
| 10> C 0.9570459453 0.4829392782 -0.0799986488
| 11> O 1.1564427879 0.690432869 -1.2587534328
| 12> O 1.6669665413 -0.3813182224 0.6369127637
| 13> C 2.720879191 -1.0924403328 -0.0182328763
| 14> H -3.4873628619 -1.9585731705 -0.2533844296
| 15> H -3.997721685 -0.3429892914 0.239969643
| 16> H -3.3084533918 -0.5991561517 -1.3633373152
| 17> H -1.8096393593 -0.9534311362 1.2763430293
| 18> H -1.1222080987 -1.2076445247 -0.3281592151
| 19> H -2.2444115112 1.4393020288 0.6935139992
| 20> H -1.5062478295 1.1735299596 -0.8922400542
| 21> H -0.0455262341 0.7769519815 1.7683457063
| 22> H 0.0662811246 2.2189638059 0.7270231214
| 23> H 2.948379221 -1.9405128272 0.6201396121
| 24> H 3.590401919 -0.4433991354 -0.1249887627
| 25> H 2.3936590225 -1.4176073496 -1.0066429687
| 26> *
| 27> 
| 28>                          ****END OF INPUT****
================================================================================

                       ****************************
                       * Single Point Calculation *
                       ****************************

---------------------------------
CARTESIAN COORDINATES (ANGSTROEM)
---------------------------------
  C     -3.250532   -0.899955   -0.319888
  C     -1.857691   -0.627573    0.235257
  C     -1.499608    0.854811    0.152215
  C     -0.115859    1.143564    0.745141
  C      0.957046    0.482939   -0.079999
  O      1.156443    0.690433   -1.258753
  O      1.666967   -0.381318    0.636913
  C      2.720879   -1.092440   -0.018233
  H     -3.487363   -1.958573   -0.253384
  H     -3.997722   -0.342989    0.239970
  H     -3.308453   -0.599156   -1.363337
  H     -1.809639   -0.953431    1.276343
  H     -1.122208   -1.207645   -0.328159
  H     -2.244412    1.439302    0.693514
  H     -1.506248    1.173530   -0.892240
  H     -0.045526    0.776952    1.768346
  H      0.066281    2.218964    0.727023
  H      2.948379   -1.940513    0.620140
  H      3.590402   -0.443399   -0.124989
  H      2.393659   -1.417607   -1.006643

----------------------------
CARTESIAN COORDINATES (A.U.)
----------------------------
  NO LB      ZA    FRAG     MASS         X           Y           Z
   0 C     6.0000    0    12.011   -6.142614   -1.700668   -0.604502
   1 C     6.0000    0    12.011   -3.510527   -1.185941    0.444572
   2 C     6.0000    0    12.011   -2.833849    1.615358    0.287644
   3 C     6.0000    0    12.011   -0.218942    2.161023    1.408113
   4 C     6.0000    0    12.011    1.808555    0.912623   -0.151176
   5 O     8.0000    0    15.999    2.185360    1.304729   -2.378699
   6 O     8.0000    0    15.999    3.150110   -0.720587    1.203591
   7 C     6.0000    0    12.011    5.141717   -2.064413   -0.034455
   8 H     1.0000    0     1.008   -6.590161   -3.701167   -0.478827
   9 H     1.0000    0     1.008   -7.554599   -0.648156    0.453477
  10 H     1.0000    0     1.008   -6.252071   -1.132241   -2.576334
  11 H     1.0000    0     1.008   -3.419723   -1.801724    2.411939
  12 H     1.0000    0     1.008   -2.120666   -2.282117   -0.620131
  13 H     1.0000    0     1.008   -4.241323    2.719887    1.310552
  14 H     1.0000    0     1.008   -2.846396    2.217650   -1.686089
  15 H     1.0000    0     1.008   -0.086032    1.468226    3.341689
  16 H     1.0000    0     1.008    0.125253    4.193234    1.373875
  17 H     1.0000    0     1.008    5.571629   -3.667038    1.171894
  18 H     1.0000    0     1.008    6.784876   -0.837903   -0.236195
  19 H     1.0000    0     1.008    4.523360   -2.678890   -1.902280

--------------------------------
INTERNAL COORDINATES (ANGSTROEM)
--------------------------------
 C      0   0   0     0.000000000000     0.00000000     0.00000000
 C      1   0   0     1.523937182168     0.00000000     0.00000000
 C      2   1   0     1.527278626728   111.59004634     0.00000000
 C      3   2   1     1.532874114652   111.92875930   178.37705016
 C      4   3   2     1.506122981436   110.39678829    65.60780719
 O      5   4   3     1.213373615942   125.04942578    58.98622904
 O      5   4   3     1.328491721217   111.73881504   239.68188605
 C      7   5   4     1.430259535437   118.03648948   179.68116382
 H      1   2   3     1.086823166533   110.54677898   179.95303414
 H      1   2   3     1.087172851461   110.42577646   300.06358745
 H      1   2   3     1.087483517866   110.41241943    59.94200609
 H      2   1   3     1.091948705019   109.52371088   121.21182205
 H      2   1   3     1.093094591945   109.41146266   239.00742326
 H      3   2   1     1.090581109924   109.45595145    57.57142433
 H      3   2   1     1.092021727395   109.50331590   298.97950405
 H      4   3   2     1.089173287343   110.99370644   304.97412530
 H      4   3   2     1.090865431432   109.26900932   183.90109641
 H      8   7   5     1.085588620682   105.87130549   197.65851912
 H      8   7   5     1.090284857141   109.66609058    78.04871387
 H      8   7   5     1.090761723864   110.01361614   317.99176576

---------------------------
INTERNAL COORDINATES (A.U.)
---------------------------
 C      0   0   0     0.000000000000     0.00000000     0.00000000
 C      1   0   0     2.879823919597     0.00000000     0.00000000
 C      2   1   0     2.886138334707   111.59004634     0.00000000
 C      3   2   1     2.896712274469   111.92875930   178.37705016
 C      4   3   2     2.846159958919   110.39678829    65.60780719
 O      5   4   3     2.292943832257   125.04942578    58.98622904
 O      5   4   3     2.510485524281   111.73881504   239.68188605
 C      7   5   4     2.702798822405   118.03648948   179.68116382
 H      1   2   3     2.053798140748   110.54677898   179.95303414
 H      1   2   3     2.054458949495   110.42577646   300.06358745
 H      1   2   3     2.055046023920   110.41241943    59.94200609
 H      2   1   3     2.063484004777   109.52371088   121.21182205
 H      2   1   3     2.065649417247   109.41146266   239.00742326
 H      3   2   1     2.060899624584   109.45595145    57.57142433
 H      3   2   1     2.063621997069   109.50331590   298.97950405
 H      4   3   2     2.058239225461   110.99370644   304.97412530
 H      4   3   2     2.061436914368   109.26900932   183.90109641
 H      8   7   5     2.051465187190   105.87130549   197.65851912
 H      8   7   5     2.060339787959   109.66609058    78.04871387
 H      8   7   5     2.061240935466   110.01361614   317.99176576

---------------------
BASIS SET INFORMATION
---------------------
There are 3 groups of distinct atoms

 Group   1 Type C   : 11s6p1d contracted to 5s3p1d pattern {62111/411/1}
 Group   2 Type O   : 11s6p2d contracted to 5s3p2d pattern {62111/411/11}
 Group   3 Type H   : 4s1p contracted to 2s1p pattern {31/1}

Atom   0C    basis set group =>   1
Atom   1C    basis set group =>   1
Atom   2C    basis set group =>   1
Atom   3C    basis set group =>   1
Atom   4C    basis set group =>   1
Atom   5O    basis set group =>   2
Atom   6O    basis set group =>   2
Atom   7C    basis set group =>   1
Atom   8H    basis set group =>   3
Atom   9H    basis set group =>   3
Atom  10H    basis set group =>   3
Atom  11H    basis set group =>   3
Atom  12H    basis set group =>   3
Atom  13H    basis set group =>   3
Atom  14H    basis set group =>   3
Atom  15H    basis set group =>   3
Atom  16H    basis set group =>   3
Atom  17H    basis set group =>   3
Atom  18H    basis set group =>   3
Atom  19H    basis set group =>   3
---------------------------------
AUXILIARY/J BASIS SET INFORMATION
---------------------------------
There are 3 groups of distinct atoms

 Group   1 Type C   : 12s5p4d2f1g contracted to 6s4p3d1f1g pattern {711111/2111/211/2/1}
 Group   2 Type O   : 12s5p4d2f1g contracted to 6s4p3d1f1g pattern {711111/2111/211/2/1}
 Group   3 Type H   : 5s2p1d contracted to 3s1p1d pattern {311/2/1}

Atom   0C    basis set group =>   1
Atom   1C    basis set group =>   1
Atom   2C    basis set group =>   1
Atom   3C    basis set group =>   1
Atom   4C    basis set group =>   1
Atom   5O    basis set group =>   2
Atom   6O    basis set group =>   2
Atom   7C    basis set group =>   1
Atom   8H    basis set group =>   3
Atom   9H    basis set group =>   3
Atom  10H    basis set group =>   3
Atom  11H    basis set group =>   3
Atom  12H    basis set group =>   3
Atom  13H    basis set group =>   3
Atom  14H    basis set group =>   3
Atom  15H    basis set group =>   3
Atom  16H    basis set group =>   3
Atom  17H    basis set group =>   3
Atom  18H    basis set group =>   3
Atom  19H    basis set group =>   3

Checking for AutoStart:
The File: sp_gas.gbw exists
Trying to determine its content:
     ... Fine, the file contains calculation information
     ... Fine, the calculation information was read
     ... Fine, the file contains a basis set
     ... Fine, the basis set was read
     ... Fine, the file contains a geometry
     ... Fine, the geometry was read
     ... Fine, the file contains a set of orbitals
     ... Fine, the orbitals can be read
     => possible old guess file was deleted
     => GBW file was renamed to GES file
     => GES file is set as startup file
     => Guess is set to MORead
     ... now leaving AutoStart

------------------------------------------------------------------------------
                             ORCA STARTUP CALCULATIONS
                           -- RI-GTO INTEGRALS CHOSEN --
------------------------------------------------------------------------------
------------------------------------------------------------------------------
                   ___                                                        
                  /   \      - P O W E R E D   B Y -                         
                 /     \                                                     
                 |  |  |   _    _      __       _____    __    __             
                 |  |  |  | |  | |    /  \     |  _  \  |  |  /  |          
                  \  \/   | |  | |   /    \    | | | |  |  | /  /          
                 / \  \   | |__| |  /  /\  \   | |_| |  |  |/  /          
                |  |  |   |  __  | /  /__\  \  |    /   |      \           
                |  |  |   | |  | | |   __   |  |    \   |  |\   \          
                \     /   | |  | | |  |  |  |  | |\  \  |  | \   \       
                 \___/    |_|  |_| |__|  |__|  |_| \__\ |__|  \__/        
                                                                              
                      - O R C A' S   B I G   F R I E N D -                    
                                      &                                       
                       - I N T E G R A L  F E E D E R -                       
                                                                              
 v1 FN, 2020, v2 2021, v3 2022-2024                                           
------------------------------------------------------------------------------


----------------------
SHARK INTEGRAL PACKAGE
----------------------

Number of atoms                             ...     20
Number of basis functions                   ...    222
Number of shells                            ...    110
Maximum angular momentum                    ...      2
Integral batch strategy                     ... SHARK/LIBINT Hybrid
RI-J (if used) integral strategy            ... SPLIT-RIJ (Revised 2003 algorithm where possible)
Printlevel                                  ...      1
Contraction scheme used                     ... SEGMENTED contraction
Prescreening option                         ... SCHWARTZ
   Thresh                                   ... 1.000e-10
   Tcut                                     ... 1.000e-11
   Tpresel                                  ... 1.000e-11 
Coulomb Range Separation                    ... NOT USED
Exchange Range Separation                   ... NOT USED
Multipole approximations                    ... NOT USED
Finite Nucleus Model                        ... NOT USED
CABS basis                                  ... NOT available
Auxiliary Coulomb fitting basis             ... AVAILABLE
   # of basis functions in Aux-J            ...    524
   # of shells in Aux-J                     ...    180
   Maximum angular momentum in Aux-J        ...      4
Auxiliary J/K fitting basis                 ... NOT available
Auxiliary Correlation fitting basis         ... NOT available
Auxiliary 'external' fitting basis          ... NOT available

Checking pre-screening integrals            ... done (  0.0 sec) Dimension = 110
Check shell pair data                       ... done (  0.0 sec)
Shell pair information
Shell pair cut-off parameter TPreSel        ...   1.0e-11
Total number of shell pairs                 ...      6105
Shell pairs after pre-screening             ...      5310
Total number of primitive shell pairs       ...     21533
Primitive shell pairs kept                  ...     13286
          la=0 lb=0:   1782 shell pairs
          la=1 lb=0:   2002 shell pairs
          la=1 lb=1:    585 shell pairs
          la=2 lb=0:    568 shell pairs
          la=2 lb=1:    321 shell pairs
          la=2 lb=2:     52 shell pairs

Calculating one electron integrals          ... done (  0.0 sec)
Calculating RI/J V-Matrix + Cholesky decomp.... done (  0.1 sec)
Calculating Nuclear repulsion               ... done (  0.0 sec) ENN=    391.954697442641 Eh

Diagonalization of the overlap matrix:
Smallest eigenvalue                        ... 1.438e-04
Time for diagonalization                   ...    0.005 sec
Threshold for overlap eigenvalues          ... 1.000e-07
Number of eigenvalues below threshold      ... 0
Time for construction of square roots      ...    0.023 sec
Total time needed                          ...    0.038 sec

-------------------
DFT GRID GENERATION
-------------------

General Integration Accuracy     IntAcc      ... 4.388
Radial Grid Type                 RadialGrid  ... OptM3 with GC (2021)
Angular Grid (max. ang.)         AngularGrid ... 4 (Lebedev-302)
Angular grid pruning method      GridPruning ... 4 (adaptive)
Weight generation scheme         WeightScheme... mBecke (2022)
Basis function cutoff            BFCut       ... 1.0000e-10
Integration weight cutoff        WCut        ... 1.0000e-14
Partially contracted basis set               ... off
Rotationally invariant grid construction     ... off
Angular grids for H and He will be reduced by one unit
Diffuse basis detected: some atoms will have their outermost
                        angular grid increased by 1.

Total number of grid points                  ...    87332
Total number of batches                      ...     1376
Average number of points per batch           ...       63
Average number of grid points per atom       ...     4367
Initializing property integral containers    ... done (  0.0 sec)

SHARK setup successfully completed in   1.3 seconds

Maximum memory used throughout the entire STARTUP-calculation: 39.4 MB
-------------------------------------------------------------------------------
                                 ORCA GUESS
                   Start orbitals & Density for SCF / CASSCF
-------------------------------------------------------------------------------

------------
SCF SETTINGS
------------
Hamiltonian:
 Density Functional     Method          .... DFT(GTOs)
  Functional kind                       .... Exchange
  Functional name                       .... Re-regularized SCAN exchange by Furness et al
  Functional family                     .... MGGA
  Functional refs                              
    [ 0] J. W. Furness, A. D. Kaplan, J. Ning, J. P. Perdew, and J. Sun.,  J. Phys. Chem. Lett. 11, 8208-8215 (2020), doi: 10.1021/acs.jpclett.0c02405
    [ 1] J. W. Furness, A. D. Kaplan, J. Ning, J. P. Perdew, and J. Sun.,  J. Phys. Chem. Lett. 11, 9248-9248 (2020), doi: 10.1021/acs.jpclett.0c03077
  Functional external parameters        .... 6
    Parameter  0 _c1        =  6.670000e-01 : c1 parameter        
    Parameter  1 _c2        =  8.000000e-01 : c2 parameter        
    Parameter  2 _d         =  1.240000e+00 : d parameter         
    Parameter  3 _k1        =  6.500000e-02 : k1 parameter        
    Parameter  4 _eta       =  1.000000e-03 : eta parameter       
    Parameter  5 _dp2       =  3.610000e-01 : dp2 parameter       
  Functional kind                       .... Correlation
  Functional name                       .... Re-regularized SCAN correlation by Furness et al
  Functional family                     .... MGGA
  Functional refs                              
    [ 0] J. W. Furness, A. D. Kaplan, J. Ning, J. P. Perdew, and J. Sun.,  J. Phys. Chem. Lett. 11, 8208-8215 (2020), doi: 10.1021/acs.jpclett.0c02405
    [ 1] J. W. Furness, A. D. Kaplan, J. Ning, J. P. Perdew, and J. Sun.,  J. Phys. Chem. Lett. 11, 9248-9248 (2020), doi: 10.1021/acs.jpclett.0c03077
  Functional external parameters        .... 1
    Parameter  0 _eta       =  1.000000e-03 : Regularization parameter
 Gradients option       PostSCFGGA      .... off
 RI-approximation to the Coulomb term is turned on
   Number of AuxJ basis functions       .... 524


General Settings:
 Integral files         IntName         .... sp_gas
 Hartree-Fock type      HFTyp           .... RHF
 Total Charge           Charge          ....    0
 Multiplicity           Mult            ....    1
 Number of Electrons    NEL             ....   64
 Basis Dimension        Dim             ....  222
 Nuclear Repulsion      ENuc            ....    391.9546974426 Eh

Convergence Acceleration:
 AO-DIIS                CNVDIIS         .... on
   Start iteration      DIISMaxIt       ....    12
   Startup error        DIISStart       ....  0.200000
   # of expansion vecs  DIISMaxEq       ....     5
   Bias factor          DIISBfac        ....   1.050
   Max. coefficient     DIISMaxC        ....  10.000
 MO-DIIS                CNVKDIIS        .... off
 Trust-Rad. Augm. Hess. CNVTRAH         .... auto
   Auto Start mean grad. ratio tolernc. ....  1.125000
   Auto Start start iteration           ....     1
   Auto Start num. interpolation iter.  ....    10
   Max. Number of Micro iterations      ....    24
   Max. Number of Macro iterations      .... Maxiter - #DIIS iter
   Number of Davidson start vectors     ....     2
   Converg. threshold    (grad. norm)   ....   3.330e-04
   Grad. Scal. Fac. for Micro threshold ....   0.100
   Minimum threshold for Micro iter.    ....   1.000e-02
   NR start threshold (gradient norm)   ....   1.000e-04
   Initial trust radius                 ....   0.400
   Minimum AH scaling param. (alpha)    ....   1.000
   Maximum AH scaling param. (alpha)    .... 1000.000
   Quad. conv. algorithm                .... NR
   White noise on init. David. guess    .... on
   Maximum white noise                  ....   0.010
   Pseudo random numbers                .... off
   Inactive MOs                         .... canonical
   Orbital update algorithm             .... Taylor
   Preconditioner                       .... Diag
   Full preconditioner red. dimension   ....   250
   COSX micro iterations for RIJONX calc.... off
 SOSCF                  CNVSOSCF        .... on
   Start iteration      SOSCFMaxIt      ....   150
   Startup grad/error   SOSCFStart      ....  0.003300
   Hessian update       SOSCFHessUp     .... L-BFGS
 Level Shifting         CNVShift        .... on
   Level shift para.    LevelShift      ....    0.2500
   Turn off err/grad.   ShiftErr        ....    0.0010
 Zerner damping         CNVZerner       .... off
 Static damping         CNVDamp         .... on
   Fraction old density DampFac         ....    0.7000
   Max. Damping (<1)    DampMax         ....    0.9800
   Min. Damping (>=0)   DampMin         ....    0.0000
   Turn off err/grad.   DampErr         ....    0.1000

SCF Procedure:
 Maximum # iterations   MaxIter         ....   125
 SCF integral mode      SCFMode         .... Direct
   Integral package                     .... SHARK and LIBINT hybrid scheme
 Reset frequency        DirectResetFreq ....    20
 Integral Threshold     Thresh          ....  1.000e-10 Eh
 Primitive CutOff       TCut            ....  1.000e-11 Eh

Convergence Tolerance:
 Convergence Check Mode ConvCheckMode   .... Total+1el-Energy
 Convergence forced     ConvForced      .... 0
 Energy Change          TolE            ....  1.000e-06 Eh
 1-El. energy change                    ....  1.000e-03 Eh
 Orbital Gradient       TolG            ....  3.330e-04
 Orbital Rotation angle TolX            ....  3.330e-04
 DIIS Error             TolErr          ....  1.000e-06

---------------------
INITIAL GUESS: MOREAD
---------------------
Guess MOs are being read from file: sp_gas.ges
Input Geometry matches current geometry (good)
Atom 0: N(Shells)= 9 and 6 - projection required
Input basis set needs projection
NBasis(read)= 136
NBasis(calc)= 222
Basis set overlap was calculated
Using GuessMode=FMatrix for the initial guess
C*T matrix was formed
Effective Fockian was calculated
Effective Fockian was diagonalized
Initial density was built
                      ------------------
                      INITIAL GUESS DONE (   0.0 sec)
                      ------------------
             **** ENERGY FILE WAS UPDATED (sp_gas.en.tmp) ****
Finished Guess after   0.3 sec
Maximum memory used throughout the entire GUESS-calculation: 15.1 MB

-------------------------------------------------------------------------------------------
                                      ORCA LEAN-SCF
                              memory conserving SCF solver
-------------------------------------------------------------------------------------------

----------------------------------------D-I-I-S--------------------------------------------
Iteration    Energy (Eh)           Delta-E    RMSDP     MaxDP     DIISErr   Damp  Time(sec)
-------------------------------------------------------------------------------------------
               ***  Starting incremental Fock matrix formation  ***
    1    -386.0424751396562897     0.00e+00  3.95e-03  1.55e-01  6.26e-01  0.700   2.8
    2    -386.1005952877796972    -5.81e-02  3.14e-03  9.44e-02  4.40e-01  0.700   2.7
    3    -386.1416732193721373    -4.11e-02  2.29e-03  6.76e-02  3.09e-01  0.700   2.6
    4    -386.1705086513620699    -2.88e-02  1.63e-03  4.79e-02  2.16e-01  0.700   2.6
                               ***Turning on AO-DIIS***
    5    -386.1907319978269015    -2.02e-02  1.17e-03  3.40e-02  1.51e-01  0.700   2.5
    6    -386.2049065522406863    -1.42e-02  8.26e-04  2.39e-02  1.06e-01  0.700   2.5
    7    -386.2148420209281312    -9.94e-03  5.82e-04  1.68e-02  7.41e-02  0.700   2.5
    8    -386.2218025668315704    -6.96e-03  1.36e-03  3.93e-02  5.19e-02  0.000   2.4
                              *** Initializing SOSCF ***
---------------------------------------S-O-S-C-F--------------------------------------
Iteration    Energy (Eh)           Delta-E    RMSDP     MaxDP     MaxGrad    Time(sec)
--------------------------------------------------------------------------------------
    9    -386.2380636073440883    -1.63e-02  7.98e-06  3.81e-04  8.77e-05     2.5
               *** Restarting incremental Fock matrix formation ***
   10    -386.2380637310917564    -1.24e-07  4.87e-06  1.68e-04  4.57e-05     2.8
                  *** Gradient check signals convergence ***

               *****************************************************
               *                     SUCCESS                       *
               *           SCF CONVERGED AFTER  10 CYCLES          *
               *****************************************************

             **** ENERGY FILE WAS UPDATED (sp_gas.en.tmp) ****

----------------
TOTAL SCF ENERGY
----------------

Total Energy       :       -386.23806373109176 Eh          -10510.07204 eV

Components:
Nuclear Repulsion  :        391.95469744264062 Eh           10665.62955 eV
Electronic Energy  :       -778.19276117373238 Eh          -21175.70158 eV
One Electron Energy:      -1301.08460630704622 Eh          -35404.31206 eV
Two Electron Energy:        522.89184513331384 Eh           14228.61047 eV

Virial components:
Potential Energy   :       -770.88175834673768 Eh          -20976.75908 eV
Kinetic Energy     :        384.64369461564593 Eh           10466.68705 eV
Virial Ratio       :          2.00414505459927

DFT components:
N(Alpha)           :       31.999974627173 electrons
N(Beta)            :       31.999974627173 electrons
N(Total)           :       63.999949254347 electrons
E(X)               :      -52.077847324863 Eh       
E(C)               :       -2.037579605172 Eh       
E(XC)              :      -54.115426930034 Eh       

---------------
SCF CONVERGENCE
---------------

  Last Energy change         ...    1.2375e-07  Tolerance :   1.0000e-06
  Last MAX-Density change    ...    1.6802e-04  Tolerance :   1.0000e-05
  Last RMS-Density change    ...    4.8731e-06  Tolerance :   1.0000e-06
  Last DIIS Error            ...    8.7683e-05  Tolerance :   1.0000e-06
  Last Orbital Gradient      ...    4.5652e-05  Tolerance :   3.3300e-04
  Last Orbital Rotation      ...    1.7702e-04  Tolerance :   3.3300e-04


----------------
ORBITAL ENERGIES
----------------

  NO   OCC          E(Eh)            E(eV) 
   0   2.0000     -19.000262      -517.0234 
   1   2.0000     -18.928494      -515.0705 
   2   2.0000     -10.151962      -276.2489 
   3   2.0000     -10.086622      -274.4709 
   4   2.0000     -10.041343      -273.2388 
   5   2.0000     -10.033190      -273.0170 
   6   2.0000     -10.027729      -272.8684 
   7   2.0000     -10.017515      -272.5904 
   8   2.0000      -1.073347       -29.2073 
   9   2.0000      -0.976063       -26.5600 
  10   2.0000      -0.778417       -21.1818 
  11   2.0000      -0.726794       -19.7771 
  12   2.0000      -0.687223       -18.7003 
  13   2.0000      -0.615285       -16.7427 
  14   2.0000      -0.558417       -15.1953 
  15   2.0000      -0.527108       -14.3433 
  16   2.0000      -0.473708       -12.8902 
  17   2.0000      -0.455674       -12.3995 
  18   2.0000      -0.445894       -12.1334 
  19   2.0000      -0.426151       -11.5962 
  20   2.0000      -0.409356       -11.1392 
  21   2.0000      -0.397441       -10.8149 
  22   2.0000      -0.387712       -10.5502 
  23   2.0000      -0.353625        -9.6226 
  24   2.0000      -0.349610        -9.5134 
  25   2.0000      -0.338000        -9.1974 
  26   2.0000      -0.321409        -8.7460 
  27   2.0000      -0.307171        -8.3586 
  28   2.0000      -0.300284        -8.1711 
  29   2.0000      -0.295940        -8.0529 
  30   2.0000      -0.274087        -7.4583 
  31   2.0000      -0.236915        -6.4468 
  32   0.0000      -0.016132        -0.4390 
  33   0.0000       0.064850         1.7646 
  34   0.0000       0.090420         2.4604 
  35   0.0000       0.107867         2.9352 
  36   0.0000       0.113133         3.0785 
  37   0.0000       0.129949         3.5361 
  38   0.0000       0.137194         3.7332 
  39   0.0000       0.142254         3.8709 
  40   0.0000       0.146065         3.9746 
  41   0.0000       0.160416         4.3651 
  42   0.0000       0.165896         4.5143 
*Only the first 10 virtual orbitals were printed.

                    ********************************
                    * MULLIKEN POPULATION ANALYSIS *
                    ********************************

-----------------------
MULLIKEN ATOMIC CHARGES
-----------------------
   0 C :   -0.474382
   1 C :   -0.250057
   2 C :   -0.266879
   3 C :   -0.287891
   4 C :    0.342711
   5 O :   -0.419807
   6 O :   -0.182230
   7 C :   -0.297025
   8 H :    0.147275
   9 H :    0.140772
  10 H :    0.146169
  11 H :    0.140855
  12 H :    0.146640
  13 H :    0.145275
  14 H :    0.165258
  15 H :    0.160586
  16 H :    0.166541
  17 H :    0.150237
  18 H :    0.154570
  19 H :    0.171385
Sum of atomic charges:    0.0000000

--------------------------------
MULLIKEN REDUCED ORBITAL CHARGES
--------------------------------
  0 C s       :     3.333344  s :     3.333344
      pz      :     1.060069  p :     3.113999
      px      :     0.955958
      py      :     1.097972
      dz2     :     0.006939  d :     0.027039
      dxz     :     0.005492
      dyz     :     0.002327
      dx2y2   :     0.006792
      dxy     :     0.005488

  1 C s       :     3.220227  s :     3.220227
      pz      :     1.065519  p :     2.992670
      px      :     0.971281
      py      :     0.955869
      dz2     :     0.007875  d :     0.037161
      dxz     :     0.006027
      dyz     :     0.005956
      dx2y2   :     0.008780
      dxy     :     0.008523

  2 C s       :     3.234831  s :     3.234831
      pz      :     1.080529  p :     2.995333
      px      :     0.951782
      py      :     0.963022
      dz2     :     0.007627  d :     0.036715
      dxz     :     0.005725
      dyz     :     0.006121
      dx2y2   :     0.008677
      dxy     :     0.008566

  3 C s       :     3.220972  s :     3.220972
      pz      :     1.000392  p :     3.032161
      px      :     0.942062
      py      :     1.089707
      dz2     :     0.007633  d :     0.034758
      dxz     :     0.008446
      dyz     :     0.004063
      dx2y2   :     0.007997
      dxy     :     0.006619

  4 C s       :     3.178217  s :     3.178217
      pz      :     0.754477  p :     2.354147
      px      :     0.817381
      py      :     0.782289
      dz2     :     0.026751  d :     0.124925
      dxz     :     0.039001
      dyz     :     0.035243
      dx2y2   :     0.013535
      dxy     :     0.010395

  5 O s       :     3.839299  s :     3.839299
      pz      :     1.305575  p :     4.561449
      px      :     1.652679
      py      :     1.603195
      dz2     :     0.009909  d :     0.019059
      dxz     :     0.002337
      dyz     :     0.005530
      dx2y2   :     0.001222
      dxy     :     0.000060

  6 O s       :     3.705415  s :     3.705415
      pz      :     1.634961  p :     4.449320
      px      :     1.377457
      py      :     1.436902
      dz2     :     0.007410  d :     0.027496
      dxz     :     0.007485
      dyz     :     0.008327
      dx2y2   :     0.003582
      dxy     :     0.000692

  7 C s       :     3.316545  s :     3.316545
      pz      :     1.041727  p :     2.937301
      px      :     0.889410
      py      :     1.006164
      dz2     :     0.007430  d :     0.043180
      dxz     :     0.007668
      dyz     :     0.008707
      dx2y2   :     0.008135
      dxy     :     0.011240

  8 H s       :     0.834383  s :     0.834383
      pz      :     0.003757  p :     0.018342
      px      :     0.004042
      py      :     0.010543

  9 H s       :     0.840928  s :     0.840928
      pz      :     0.005503  p :     0.018301
      px      :     0.007221
      py      :     0.005577

 10 H s       :     0.835569  s :     0.835569
      pz      :     0.010404  p :     0.018262
      px      :     0.003616
      py      :     0.004242

 11 H s       :     0.841325  s :     0.841325
      pz      :     0.010184  p :     0.017820
      px      :     0.003462
      py      :     0.004174

 12 H s       :     0.835524  s :     0.835524
      pz      :     0.005423  p :     0.017836
      px      :     0.006855
      py      :     0.005558

 13 H s       :     0.836772  s :     0.836772
      pz      :     0.005250  p :     0.017953
      px      :     0.007022
      py      :     0.005680

 14 H s       :     0.816902  s :     0.816902
      pz      :     0.010558  p :     0.017839
      px      :     0.003291
      py      :     0.003990

 15 H s       :     0.821605  s :     0.821605
      pz      :     0.010344  p :     0.017809
      px      :     0.003299
      py      :     0.004166

 16 H s       :     0.815348  s :     0.815348
      pz      :     0.003402  p :     0.018111
      px      :     0.003730
      py      :     0.010979

 17 H s       :     0.832055  s :     0.832055
      pz      :     0.005897  p :     0.017708
      px      :     0.003284
      py      :     0.008527

 18 H s       :     0.827741  s :     0.827741
      pz      :     0.003527  p :     0.017689
      px      :     0.008364
      py      :     0.005797

 19 H s       :     0.810550  s :     0.810550
      pz      :     0.010725  p :     0.018065
      px      :     0.003420
      py      :     0.003920


------------------------
MULLIKEN OVERLAP CHARGES
------------------------
B(  0-C ,  1-C ) :   0.4745 B(  0-C ,  2-C ) :  -0.1812 B(  0-C ,  8-H ) :   0.8076 
B(  0-C ,  9-H ) :   0.8531 B(  0-C , 10-H ) :   0.8575 B(  0-C , 11-H ) :  -0.0514 
B(  1-C ,  2-C ) :   0.4147 B(  1-C ,  3-C ) :  -0.1179 B(  1-C ,  8-H ) :  -0.0806 
B(  1-C ,  9-H ) :  -0.0894 B(  1-C , 10-H ) :  -0.0934 B(  1-C , 11-H ) :   0.8419 
B(  1-C , 12-H ) :   0.8317 B(  1-C , 13-H ) :  -0.0660 B(  1-C , 14-H ) :  -0.0794 
B(  2-C ,  3-C ) :   0.3782 B(  2-C ,  4-C ) :  -0.0829 B(  2-C , 11-H ) :  -0.0883 
B(  2-C , 12-H ) :  -0.0789 B(  2-C , 13-H ) :   0.8376 B(  2-C , 14-H ) :   0.8641 
B(  2-C , 15-H ) :  -0.0708 B(  2-C , 16-H ) :  -0.0765 B(  3-C ,  4-C ) :   0.2800 
B(  3-C ,  5-O ) :  -0.1212 B(  3-C ,  6-O ) :  -0.0642 B(  3-C , 12-H ) :  -0.0607 
B(  3-C , 13-H ) :  -0.1155 B(  3-C , 15-H ) :   0.9130 B(  3-C , 16-H ) :   0.7907 
B(  4-C ,  5-O ) :   0.9146 B(  4-C ,  6-O ) :   0.3335 B(  4-C ,  7-C ) :  -0.1944 
B(  4-C , 12-H ) :   0.0698 B(  4-C , 14-H ) :  -0.0505 B(  4-C , 15-H ) :  -0.1786 
B(  5-O ,  6-O ) :  -0.2265 B(  6-O ,  7-C ) :   0.3496 B(  6-O , 17-H ) :  -0.0883 
B(  6-O , 18-H ) :  -0.0654 B(  6-O , 19-H ) :  -0.0592 B(  7-C , 17-H ) :   0.7949 
B(  7-C , 18-H ) :   0.8047 B(  7-C , 19-H ) :   0.8324 B(  9-H , 10-H ) :  -0.0541 
B( 18-H , 19-H ) :  -0.0536 


                     *******************************
                     * LOEWDIN POPULATION ANALYSIS *
                     *******************************

----------------------
LOEWDIN ATOMIC CHARGES
----------------------
   0 C :   -0.422077
   1 C :   -0.309196
   2 C :   -0.285951
   3 C :   -0.229297
   4 C :    0.348357
   5 O :   -0.430189
   6 O :   -0.604112
   7 C :   -0.046051
   8 H :    0.150961
   9 H :    0.149887
  10 H :    0.152062
  11 H :    0.151949
  12 H :    0.157110
  13 H :    0.156013
  14 H :    0.169152
  15 H :    0.177584
  16 H :    0.181237
  17 H :    0.175954
  18 H :    0.173732
  19 H :    0.182875

-------------------------------
LOEWDIN REDUCED ORBITAL CHARGES
-------------------------------
  0 C s       :     2.973200  s :     2.973200
      pz      :     1.147128  p :     3.385479
      px      :     1.086353
      py      :     1.151998
      dz2     :     0.016841  d :     0.063398
      dxz     :     0.012441
      dyz     :     0.005708
      dx2y2   :     0.016212
      dxy     :     0.012197

  1 C s       :     2.936404  s :     2.936404
      pz      :     1.134950  p :     3.292496
      px      :     1.082306
      py      :     1.075240
      dz2     :     0.018207  d :     0.080296
      dxz     :     0.012907
      dyz     :     0.012341
      dx2y2   :     0.019360
      dxy     :     0.017481

  2 C s       :     2.933857  s :     2.933857
      pz      :     1.138112  p :     3.272400
      px      :     1.050877
      py      :     1.083411
      dz2     :     0.017653  d :     0.079694
      dxz     :     0.012760
      dyz     :     0.012391
      dx2y2   :     0.019041
      dxy     :     0.017849

  3 C s       :     2.922230  s :     2.922230
      pz      :     1.088515  p :     3.233151
      px      :     1.033599
      py      :     1.111037
      dz2     :     0.018339  d :     0.073916
      dxz     :     0.016897
      dyz     :     0.008408
      dx2y2   :     0.018178
      dxy     :     0.012092

  4 C s       :     2.739436  s :     2.739436
      pz      :     0.977842  p :     2.640583
      px      :     0.851192
      py      :     0.811550
      dz2     :     0.063096  d :     0.271624
      dxz     :     0.082879
      dyz     :     0.077256
      dx2y2   :     0.025291
      dxy     :     0.023101

  5 O s       :     3.548128  s :     3.548128
      pz      :     1.478299  p :     4.665688
      px      :     1.615567
      py      :     1.571821
      dz2     :     0.076486  d :     0.216373
      dxz     :     0.059327
      dyz     :     0.054326
      dx2y2   :     0.012103
      dxy     :     0.014131

  6 O s       :     3.469915  s :     3.469915
      pz      :     1.646219  p :     4.664461
      px      :     1.485593
      py      :     1.532649
      dz2     :     0.087668  d :     0.469737
      dxz     :     0.087701
      dyz     :     0.083518
      dx2y2   :     0.091278
      dxy     :     0.119572

  7 C s       :     2.906934  s :     2.906934
      pz      :     1.057521  p :     3.035317
      px      :     0.943843
      py      :     1.033953
      dz2     :     0.018671  d :     0.103800
      dxz     :     0.018025
      dyz     :     0.021702
      dx2y2   :     0.018368
      dxy     :     0.027035

  8 H s       :     0.805541  s :     0.805541
      pz      :     0.008191  p :     0.043498
      px      :     0.009085
      py      :     0.026222

  9 H s       :     0.806787  s :     0.806787
      pz      :     0.013069  p :     0.043325
      px      :     0.017135
      py      :     0.013121

 10 H s       :     0.804528  s :     0.804528
      pz      :     0.025852  p :     0.043410
      px      :     0.008022
      py      :     0.009536

 11 H s       :     0.804982  s :     0.804982
      pz      :     0.025203  p :     0.043068
      px      :     0.008043
      py      :     0.009822

 12 H s       :     0.799551  s :     0.799551
      pz      :     0.013097  p :     0.043339
      px      :     0.016703
      py      :     0.013538

 13 H s       :     0.800555  s :     0.800555
      pz      :     0.012795  p :     0.043432
      px      :     0.016869
      py      :     0.013768

 14 H s       :     0.786884  s :     0.786884
      pz      :     0.026866  p :     0.043964
      px      :     0.007391
      py      :     0.009707

 15 H s       :     0.778415  s :     0.778415
      pz      :     0.025993  p :     0.044000
      px      :     0.007781
      py      :     0.010227

 16 H s       :     0.774554  s :     0.774554
      pz      :     0.007752  p :     0.044209
      px      :     0.009182
      py      :     0.027276

 17 H s       :     0.783884  s :     0.783884
      pz      :     0.014816  p :     0.040162
      px      :     0.006542
      py      :     0.018804

 18 H s       :     0.785451  s :     0.785451
      pz      :     0.007617  p :     0.040816
      px      :     0.018754
      py      :     0.014445

 19 H s       :     0.774627  s :     0.774627
      pz      :     0.025351  p :     0.042499
      px      :     0.008724
      py      :     0.008424


---------------------------------
LOEWDIN BOND ORDERS (THRESH 0.050000)
---------------------------------
B(  0-C ,  1-C ) :   1.1456 B(  0-C ,  2-C ) :   0.0755 B(  0-C ,  8-H ) :   0.9300 
B(  0-C ,  9-H ) :   0.9286 B(  0-C , 10-H ) :   0.9290 B(  1-C ,  2-C ) :   1.0996 
B(  1-C ,  3-C ) :   0.0700 B(  1-C , 11-H ) :   0.8948 B(  1-C , 12-H ) :   0.8860 
B(  2-C ,  3-C ) :   1.0815 B(  2-C ,  4-C ) :   0.0718 B(  2-C , 13-H ) :   0.8886 
B(  2-C , 14-H ) :   0.8818 B(  3-C ,  4-C ) :   0.9227 B(  3-C ,  5-O ) :   0.1797 
B(  3-C ,  6-O ) :   0.1839 B(  3-C , 15-H ) :   0.8641 B(  3-C , 16-H ) :   0.8638 
B(  4-C ,  5-O ) :   2.1707 B(  4-C ,  6-O ) :   1.4546 B(  4-C ,  7-C ) :   0.0891 
B(  5-O ,  6-O ) :   0.4635 B(  5-O ,  7-C ) :   0.0700 B(  6-O ,  7-C ) :   1.3552 
B(  6-O , 17-H ) :   0.1002 B(  6-O , 18-H ) :   0.1002 B(  6-O , 19-H ) :   0.0973 
B(  7-C , 17-H ) :   0.8662 B(  7-C , 18-H ) :   0.8627 B(  7-C , 19-H ) :   0.8513 


------------------------------------------
LOEWDIN REDUCED ORBITAL POPULATIONS PER MO
-------------------------------------------
THRESHOLD FOR PRINTING IS 0.1%%
                      0         1         2         3         4         5   
                 -19.00026 -18.92849 -10.15196 -10.08662 -10.04134 -10.03319
                   2.00000   2.00000   2.00000   2.00000   2.00000   2.00000
                  --------  --------  --------  --------  --------  --------
 2 C  s               0.0       0.0       0.0       0.0       0.0      99.7
 3 C  s               0.0       0.0       0.0       0.0      99.7       0.0
 4 C  s               0.0       0.0      98.9       0.0       0.0       0.0
 5 O  s               0.0      99.9       0.0       0.0       0.0       0.0
 5 O  pz              0.0       0.0       0.2       0.0       0.0       0.0
 5 O  dz2             0.0       0.0       0.3       0.0       0.0       0.0
 6 O  s              99.9       0.0       0.0       0.0       0.0       0.0
 6 O  dyz             0.0       0.0       0.1       0.0       0.0       0.0
 6 O  dxy             0.0       0.0       0.1       0.1       0.0       0.0
 7 C  s               0.0       0.0       0.0      99.4       0.0       0.0

                      6         7         8         9        10        11   
                 -10.02773 -10.01752  -1.07335  -0.97606  -0.77842  -0.72679
                   2.00000   2.00000   2.00000   2.00000   2.00000   2.00000
                  --------  --------  --------  --------  --------  --------
 0 C  s               0.0      99.7       0.0       0.0       5.6      12.9
 0 C  pz              0.0       0.0       0.0       0.0       0.2       0.2
 0 C  px              0.1       0.0       0.0       0.0       1.5       1.0
 0 C  py              0.0       0.0       0.0       0.0       0.2       0.0
 1 C  s              99.7       0.0       0.0       0.0      15.3      11.9
 1 C  pz              0.0       0.0       0.0       0.0       0.0       0.2
 1 C  px              0.0       0.1       0.0       0.0       0.0       1.8
 1 C  py              0.0       0.0       0.0       0.0       1.9       0.1
 2 C  s               0.0       0.0       0.1       0.0      21.2       0.5
 2 C  pz              0.0       0.0       0.0       0.0       0.3       0.2
 2 C  px              0.0       0.0       0.2       0.1       0.6       2.9
 2 C  py              0.1       0.0       0.0       0.0       0.9       2.4
 2 C  dx2y2           0.0       0.0       0.0       0.0       0.0       0.1
 3 C  s               0.0       0.0       1.0       0.3      16.8       7.4
 3 C  pz              0.0       0.0       0.4       0.5       0.4       0.0
 3 C  px              0.0       0.0       1.1       0.1       1.3       1.5
 3 C  py              0.0       0.0       0.5       0.0       0.4       0.1
 4 C  s               0.0       0.0      16.1       4.3       1.7       3.5
 4 C  pz              0.0       0.0       0.0      19.1       3.1       5.2
 4 C  px              0.0       0.0       2.9       0.3       3.7       1.1
 4 C  py              0.0       0.0       2.2       3.6       0.5       0.5
 4 C  dz2             0.0       0.0       0.2       1.4       0.0       0.0
 4 C  dxz             0.0       0.0       0.1       0.4       0.0       0.0
 4 C  dyz             0.0       0.0       0.5       0.0       0.0       0.0
 4 C  dxy             0.0       0.0       0.4       0.2       0.0       0.1
 5 O  s               0.0       0.0      11.5      42.8       1.0       1.2
 5 O  pz              0.0       0.0       2.8       3.5       0.2       0.5
 5 O  px              0.0       0.0       0.0       0.2       0.1       0.1
 5 O  py              0.0       0.0       0.2       0.1       0.0       0.0
 5 O  dz2             0.0       0.0       0.9       0.1       0.2       0.5
 5 O  dxz             0.0       0.0       0.0       0.1       0.2       0.2
 5 O  dyz             0.0       0.0       0.5       0.1       0.0       0.0
 6 O  s               0.0       0.0      42.8      15.8       0.1       0.0
 6 O  pz              0.0       0.0       2.4       0.3       0.1       0.2
 6 O  px              0.0       0.0       0.0       0.4       1.4       7.4
 6 O  py              0.0       0.0       0.5       0.4       0.9       5.4
 6 O  dz2             0.0       0.0       0.0       0.3       0.1       0.1
 6 O  dxz             0.0       0.0       0.0       0.3       0.0       0.4
 6 O  dyz             0.0       0.0       0.2       0.7       0.0       0.2
 6 O  dxy             0.0       0.0       0.5       0.0       0.1       0.0
 7 C  s               0.0       0.0       4.7       1.8       1.1       9.5
 7 C  pz              0.0       0.0       0.6       0.7       0.0       0.1
 7 C  px              0.0       0.0       3.2       0.8       0.0       0.1
 7 C  py              0.0       0.0       1.8       0.3       0.0       0.0
 7 C  dxz             0.0       0.0       0.1       0.1       0.0       0.0
 7 C  dxy             0.0       0.0       0.2       0.1       0.0       0.0
 8 H  s               0.0       0.0       0.0       0.0       0.7       2.0
 8 H  py              0.0       0.0       0.0       0.0       0.0       0.2
 9 H  s               0.0       0.0       0.0       0.0       0.7       2.1
10 H  s               0.0       0.0       0.0       0.0       0.7       2.0
10 H  pz              0.0       0.0       0.0       0.0       0.1       0.2
11 H  s               0.0       0.0       0.0       0.0       1.9       1.8
11 H  pz              0.0       0.0       0.0       0.0       0.2       0.2
12 H  s               0.0       0.0       0.0       0.0       2.0       1.8
13 H  s               0.0       0.0       0.0       0.0       2.8       0.1
13 H  px              0.0       0.0       0.0       0.0       0.1       0.0
14 H  s               0.0       0.0       0.0       0.0       2.6       0.1
14 H  pz              0.0       0.0       0.0       0.0       0.2       0.0
15 H  s               0.0       0.0       0.1       0.0       2.4       1.6
15 H  pz              0.0       0.0       0.0       0.0       0.2       0.1
16 H  s               0.0       0.0       0.0       0.0       2.3       1.3
16 H  py              0.0       0.0       0.0       0.0       0.2       0.1
17 H  s               0.0       0.0       0.3       0.2       0.2       2.1
17 H  py              0.0       0.0       0.0       0.0       0.0       0.1
18 H  s               0.0       0.0       0.3       0.1       0.2       1.8
18 H  px              0.0       0.0       0.0       0.0       0.0       0.1
19 H  s               0.0       0.0       0.3       0.1       0.2       1.7
19 H  pz              0.0       0.0       0.0       0.0       0.0       0.1

                     12        13        14        15        16        17   
                  -0.68722  -0.61528  -0.55842  -0.52711  -0.47371  -0.45567
                   2.00000   2.00000   2.00000   2.00000   2.00000   2.00000
                  --------  --------  --------  --------  --------  --------
 0 C  s              10.0      14.0       4.8       0.2       0.0       0.1
 0 C  pz              0.0       0.2       1.0       0.3       1.4       0.0
 0 C  px              0.1       1.9       5.2       0.7       0.0       0.8
 0 C  py              0.0       0.4       0.1       0.3       0.0       0.3
 1 C  s               2.2       2.3      11.3       1.8       0.1       0.3
 1 C  pz              0.2       0.4       1.0       0.5       5.0       0.2
 1 C  px              2.4       4.0       3.7       0.3       0.7       0.5
 1 C  py              1.8       3.3       3.3       2.5       0.1       0.0
 1 C  dx2y2           0.1       0.2       0.0       0.0       0.0       0.0
 2 C  s               4.6       9.8       5.4       2.8       0.1       0.0
 2 C  pz              0.2       0.2       0.2       1.0      11.4       1.3
 2 C  px              1.7       2.0       0.4       1.6       0.6       1.5
 2 C  py              1.5       0.5       8.5       0.7       0.6       0.1
 3 C  s               6.7       7.2       0.0       2.4       1.5       0.2
 3 C  pz              0.1       0.3       0.1       1.3      15.9       1.4
 3 C  px              1.6       5.5       3.8       0.1       2.1       2.7
 3 C  py              0.4       0.3       1.8       0.8       2.8       3.1
 3 C  dyz             0.0       0.0       0.0       0.0       0.2       0.0
 4 C  s               0.8       1.3       1.5       2.5       1.6       0.4
 4 C  pz              0.6       1.3       0.8       0.9       0.0       0.6
 4 C  px              1.6       1.9       0.3       1.3      10.0       3.4
 4 C  py              1.7       2.2       0.1       2.6       1.1      10.8
 4 C  dxz             0.1       0.1       0.0       0.0       0.0       0.0
 4 C  dyz             0.2       0.1       0.0       0.0       0.0       0.0
 5 O  s               0.0       0.3       0.5       1.7       1.3       0.7
 5 O  pz              0.0       0.3       0.5       1.5       1.9       3.3
 5 O  px              0.1       0.1       0.0       0.3       6.7       0.6
 5 O  py              0.0       0.1       0.0       1.2       0.4       4.1
 5 O  dz2             0.1       0.1       0.1       0.1       0.1       0.4
 5 O  dxz             0.0       0.1       0.0       0.0       1.0       0.1
 5 O  dyz             0.1       0.1       0.0       0.3       0.0       0.5
 5 O  dx2y2           0.0       0.0       0.0       0.0       0.1       0.1
 6 O  s               0.8       1.1       1.6       3.8       0.4       0.0
 6 O  pz              0.1       0.1       0.4       6.8       3.1       1.7
 6 O  px              7.8       0.0       1.5       7.9       0.3      12.6
 6 O  py              5.9       0.0       1.2      10.0       3.8      12.9
 6 O  dz2             0.1       0.3       0.1       0.0       0.5       0.3
 6 O  dxz             0.7       0.1       0.0       0.1       0.6       0.1
 6 O  dyz             0.4       0.1       0.0       0.1       0.0       0.6
 6 O  dx2y2           0.1       0.0       0.0       0.0       0.0       0.0
 6 O  dxy             0.8       1.0       0.4       0.1       0.3       0.0
 7 C  s              17.9       4.0       2.4       3.4       0.0       0.0
 7 C  pz              0.0       0.2       1.5       9.9       3.4       2.3
 7 C  px              0.3       0.8       1.9       5.0       0.1       8.1
 7 C  py              0.2       0.4       0.7       0.9       2.4      10.0
 7 C  dxz             0.0       0.0       0.1       0.3       0.0       0.0
 7 C  dxy             0.0       0.0       0.1       0.2       0.0       0.0
 8 H  s               2.0       4.6       1.7       0.0       0.0       0.3
 8 H  py              0.2       0.4       0.1       0.0       0.0       0.0
 9 H  s               1.9       3.9       2.8       0.3       0.1       0.1
 9 H  px              0.1       0.1       0.1       0.0       0.0       0.0
 9 H  py              0.0       0.1       0.1       0.0       0.0       0.0
10 H  s               1.9       3.9       2.7       0.3       0.4       0.1
10 H  pz              0.2       0.3       0.2       0.0       0.0       0.0
11 H  s               0.4       0.6       5.7       1.6       1.7       0.0
11 H  pz              0.0       0.0       0.4       0.1       0.0       0.0
12 H  s               0.4       0.6       6.2       1.1       0.4       0.0
12 H  pz              0.0       0.0       0.2       0.0       0.0       0.0
12 H  px              0.0       0.0       0.2       0.0       0.0       0.0
12 H  py              0.0       0.0       0.1       0.0       0.0       0.0
13 H  s               0.9       2.9       3.8       1.7       1.4       0.1
13 H  px              0.1       0.1       0.1       0.0       0.1       0.0
14 H  s               0.9       2.5       3.0       2.0       2.8       0.5
14 H  pz              0.1       0.2       0.2       0.1       0.1       0.0
15 H  s               0.9       2.1       0.1       1.6       5.6       1.4
15 H  pz              0.1       0.2       0.0       0.1       0.1       0.1
15 H  py              0.0       0.0       0.0       0.0       0.1       0.0
16 H  s               1.6       2.9       0.2       1.9       2.2       0.7
16 H  py              0.1       0.2       0.0       0.1       0.1       0.0
17 H  s               4.8       1.5       1.0       0.6       1.6       0.3
17 H  pz              0.1       0.1       0.1       0.1       0.0       0.0
17 H  py              0.2       0.1       0.0       0.0       0.0       0.0
18 H  s               4.1       1.5       1.5       3.5       0.5       5.4
18 H  px              0.2       0.0       0.0       0.1       0.0       0.1
18 H  py              0.1       0.1       0.1       0.1       0.0       0.0
19 H  s               3.7       1.2       1.7       5.2       0.4       3.5
19 H  pz              0.3       0.1       0.1       0.2       0.0       0.2
19 H  px              0.0       0.0       0.0       0.1       0.0       0.0

                     18        19        20        21        22        23   
                  -0.44589  -0.42615  -0.40936  -0.39744  -0.38771  -0.35362
                   2.00000   2.00000   2.00000   2.00000   2.00000   2.00000
                  --------  --------  --------  --------  --------  --------
 0 C  s               0.0       0.0       0.2       0.0       0.0       0.0
 0 C  pz              0.2      10.2       0.6       4.0       7.8       3.2
 0 C  px              0.3       2.0       5.3       0.6       1.1       0.1
 0 C  py              1.0       1.0       0.5      23.5       2.4       9.8
 0 C  dx2y2           0.0       0.0       0.1       0.1       0.0       0.1
 1 C  s               0.1       0.0       0.6       0.2       0.0       0.1
 1 C  pz              0.9      15.7       0.6       4.1       2.6       0.2
 1 C  px              0.5       3.6       3.5       0.4       1.2       1.2
 1 C  py              2.0       1.3       1.0      11.0       0.7       0.2
 1 C  dx2y2           0.0       0.0       0.0       0.0       0.0       0.1
 2 C  s               0.1       0.0       0.2       0.3       0.0       0.6
 2 C  pz              0.6       6.0       2.0       0.0       2.1       1.2
 2 C  px              2.5       2.7       6.2       3.1       0.1       0.8
 2 C  py              0.2       0.0       3.7       8.6       0.5       0.2
 3 C  s               0.4       0.3       0.1       0.2       0.0       0.2
 3 C  pz              2.1       0.7       0.1       6.0       6.2       0.0
 3 C  px              0.4       0.2       4.0       3.3       2.3       0.6
 3 C  py              4.1       0.4      19.7       0.9       0.1       6.1
 3 C  dxz             0.0       0.1       0.0       0.0       0.0       0.0
 3 C  dx2y2           0.0       0.0       0.1       0.0       0.0       0.2
 4 C  s               0.5       2.0       0.0       0.0       0.4       0.1
 4 C  pz              3.1       1.6       0.4       0.2       3.8       1.4
 4 C  px              0.2       0.5       1.3       0.0       3.5       1.3
 4 C  py              0.0       0.7       1.0       0.4       0.8       9.9
 4 C  dz2             0.4       0.0       0.0       0.0       0.1       0.0
 4 C  dxz             0.0       0.0       0.0       0.1       0.0       0.1
 4 C  dyz             0.2       0.0       0.0       0.1       0.0       0.1
 4 C  dx2y2           0.0       0.0       0.2       0.0       0.0       0.0
 5 O  s               7.2       4.8       0.1       0.2       2.5       0.0
 5 O  pz             12.2      16.0       0.2       1.1      14.6       0.7
 5 O  px              0.0       1.5       0.6       0.1       0.3       3.8
 5 O  py              1.9       0.0       1.0       0.0       1.8      12.7
 5 O  dz2             0.1       0.3       0.0       0.0       0.1       0.1
 5 O  dxz             0.0       0.1       0.0       0.0       0.1       0.1
 5 O  dyz             0.1       0.0       0.1       0.0       0.1       0.4
 5 O  dx2y2           0.0       0.0       0.1       0.0       0.0       0.0
 5 O  dxy             0.1       0.0       0.0       0.0       0.2       0.1
 6 O  s               1.4       0.1       0.1       0.2       0.1       0.0
 6 O  pz             21.1       0.1       0.1       0.7       0.2       0.6
 6 O  px              3.6       0.1       3.5       1.0       0.3       2.7
 6 O  py              1.3       1.3       0.5       0.8       0.3       0.5
 6 O  dz2             0.6       0.1       0.0       0.0       0.1       0.0
 6 O  dxz             0.0       0.3       0.0       0.1       0.3       0.4
 6 O  dyz             0.0       0.1       0.1       0.0       0.4       0.1
 6 O  dx2y2           0.0       0.1       1.6       0.1       0.1       1.3
 6 O  dxy             0.3       0.2       0.1       0.1       0.1       0.1
 7 C  s               0.5       0.0       0.0       0.0       0.0       0.0
 7 C  pz              3.4       1.6       0.3       0.2      10.3       4.3
 7 C  px              7.8       0.6       2.7       2.3       2.0       7.6
 7 C  py              4.5       1.4      12.5       0.1       5.4       1.3
 7 C  dz2             0.0       0.0       0.1       0.0       0.0       0.2
 7 C  dyz             0.1       0.0       0.0       0.0       0.2       0.1
 8 H  s               0.2       0.1       0.9      10.6       0.6       4.8
 8 H  py              0.0       0.0       0.0       0.2       0.0       0.1
 9 H  s               0.4       3.3       0.6       0.3       3.5       2.9
 9 H  px              0.0       0.1       0.0       0.0       0.1       0.1
10 H  s               0.0       2.6       0.4       3.7       2.0       0.3
10 H  pz              0.0       0.0       0.0       0.1       0.0       0.0
11 H  s               0.0       3.6       0.0       2.7       0.7       0.0
12 H  s               1.2       5.0       0.1       0.3       1.4       0.0
12 H  px              0.0       0.1       0.0       0.0       0.0       0.0
13 H  s               0.8       2.1       1.2       0.4       1.0       1.2
14 H  s               0.1       1.8       1.0       0.6       0.4       0.1
15 H  s               1.0       0.4       1.1       3.9       2.0       0.1
15 H  pz              0.0       0.0       0.1       0.1       0.0       0.0
16 H  s               2.2       0.5       9.1       0.0       0.0       4.3
16 H  py              0.1       0.0       0.2       0.0       0.0       0.1
17 H  s               5.7       0.9       2.3       0.4       8.3       0.4
17 H  py              0.1       0.0       0.0       0.0       0.1       0.0
18 H  s               0.7       0.8       4.6       0.6       0.2       4.3
18 H  px              0.0       0.0       0.1       0.0       0.0       0.0
19 H  s               0.5       0.2       2.1       0.2       3.4       5.4
19 H  pz              0.0       0.0       0.1       0.0       0.0       0.1
19 H  py              0.1       0.0       0.0       0.0       0.1       0.0

                     24        25        26        27        28        29   
                  -0.34961  -0.33800  -0.32141  -0.30717  -0.30028  -0.29594
                   2.00000   2.00000   2.00000   2.00000   2.00000   2.00000
                  --------  --------  --------  --------  --------  --------
 0 C  s               0.1       0.0       0.1       0.7       0.0       0.1
 0 C  pz              0.0      17.9       0.4       1.8       7.7       0.4
 0 C  px             12.0       0.0       6.7      12.2       1.0       1.6
 0 C  py              3.4       2.9       0.8       0.1       0.0      10.7
 0 C  dz2             0.0       0.3       0.0       0.0       0.3       0.0
 0 C  dxz             0.1       0.0       0.1       0.1       0.2       0.0
 0 C  dx2y2           0.0       0.0       0.0       0.0       0.0       0.3
 0 C  dxy             0.1       0.0       0.1       0.1       0.0       0.3
 1 C  s               0.0       0.0       0.1       0.5       0.0       0.2
 1 C  pz              1.0       2.4       0.0       1.9      19.2       0.5
 1 C  px              7.6       1.3       5.6      11.9       2.8       1.1
 1 C  py              0.9       0.1       0.9       1.9       0.1      20.3
 1 C  dz2             0.0       0.1       0.0       0.1       0.5       0.0
 1 C  dxz             0.0       0.0       0.1       0.1       0.2       0.0
 1 C  dyz             0.0       0.0       0.0       0.0       0.4       0.0
 1 C  dx2y2           0.0       0.0       0.0       0.1       0.0       0.4
 1 C  dxy             0.0       0.1       0.1       0.3       0.1       0.1
 2 C  s               0.1       0.1       0.1       0.4       0.0       0.3
 2 C  pz              0.4      15.0       1.8       1.6      11.2       0.1
 2 C  px              9.4       0.1       0.0      11.7       1.2       2.4
 2 C  py              3.5       0.4       0.3       1.9       0.3      19.2
 2 C  dz2             0.0       0.2       0.1       0.1       0.3       0.0
 2 C  dxz             0.1       0.0       0.0       0.2       0.0       0.0
 2 C  dyz             0.0       0.0       0.0       0.0       0.4       0.0
 2 C  dx2y2           0.0       0.0       0.0       0.1       0.0       0.3
 2 C  dxy             0.1       0.0       0.0       0.4       0.1       0.1
 3 C  s               0.0       0.1       0.4       0.4       0.0       0.1
 3 C  pz              1.9       7.6       3.0       1.9       0.7       0.1
 3 C  px              2.6       0.8       0.1      11.7       0.0       2.9
 3 C  py              1.5       2.8       1.1       0.0       0.1       7.5
 3 C  dz2             0.1       0.3       0.1       0.0       0.1       0.1
 3 C  dx2y2           0.0       0.0       0.0       0.0       0.0       0.3
 3 C  dxy             0.1       0.0       0.0       0.1       0.0       0.1
 4 C  s               0.2       0.0       0.3       0.4       0.1       0.1
 4 C  pz              0.3       0.1       4.1       0.8       0.3       0.2
 4 C  px              5.9       0.9       0.3       0.6       0.2       0.0
 4 C  py              0.5       0.0       0.5       0.0       0.1       0.3
 4 C  dz2             0.1       0.0       0.5       0.0       0.0       0.0
 4 C  dxz             0.0       0.1       0.0       0.0       0.0       0.0
 4 C  dyz             0.0       0.1       0.1       0.2       0.0       0.0
 4 C  dx2y2           0.0       0.0       0.0       0.0       0.0       0.1
 4 C  dxy             0.0       0.0       0.2       0.0       0.0       0.0
 5 O  s               0.1       0.0       1.1       0.2       0.0       0.0
 5 O  pz              0.0       0.3       9.4       1.9       0.3       0.0
 5 O  px              8.0       1.4       0.5       0.5       0.0       0.4
 5 O  py              1.4       0.4       0.0       0.1       0.6       1.3
 5 O  dz2             0.0       0.0       0.3       0.0       0.0       0.0
 5 O  dxz             0.2       0.1       0.0       0.0       0.0       0.0
 6 O  s               0.1       0.6       2.7       1.3       0.0       0.1
 6 O  pz              1.1       1.1      25.2       7.9       0.2       0.1
 6 O  px              0.4       1.3       1.4       0.3       0.0       1.7
 6 O  py              3.1       0.2       0.3       0.7       0.0       1.2
 6 O  dz2             0.0       0.0       0.8       0.4       0.1       0.0
 6 O  dxz             0.0       0.0       0.2       0.0       0.0       0.0
 6 O  dyz             0.1       0.0       0.1       0.0       0.0       0.0
 6 O  dx2y2           0.8       0.1       0.0       0.1       0.0       0.0
 6 O  dxy             0.0       0.2       0.8       0.2       0.0       0.1
 7 C  s               0.0       0.0       0.2       0.1       0.0       0.0
 7 C  pz              1.5       1.1       8.8       2.2       0.0       0.0
 7 C  px              0.2       0.4       0.4       0.1       0.0       0.6
 7 C  py              5.9       0.3       0.1       0.6       0.0       0.2
 7 C  dz2             0.0       0.0       0.2       0.1       0.0       0.0
 7 C  dyz             0.0       0.0       0.1       0.0       0.0       0.0
 7 C  dx2y2           0.1       0.0       0.0       0.0       0.0       0.0
 7 C  dxy             0.1       0.0       0.2       0.0       0.0       0.0
 8 H  s               0.6       2.2       0.1       0.1       0.3       8.3
 8 H  pz              0.0       0.1       0.0       0.0       0.1       0.0
 8 H  px              0.1       0.0       0.1       0.1       0.0       0.0
 9 H  s               6.0       0.8       3.9       1.4       3.9       1.7
 9 H  pz              0.1       0.1       0.0       0.1       0.0       0.0
10 H  s               0.3      11.5       0.1       0.8       6.4       0.2
10 H  pz              0.0       0.2       0.0       0.0       0.0       0.0
10 H  px              0.1       0.0       0.1       0.1       0.0       0.0
11 H  s               0.4       1.7       0.1       2.3      14.7       0.1
11 H  px              0.1       0.0       0.1       0.1       0.0       0.0
11 H  py              0.0       0.0       0.0       0.0       0.0       0.2
12 H  s               0.3       0.1       3.1       4.0       9.3       2.5
12 H  pz              0.0       0.0       0.0       0.1       0.0       0.0
12 H  px              0.0       0.0       0.0       0.0       0.0       0.1
12 H  py              0.0       0.0       0.0       0.0       0.1       0.1
13 H  s               6.0       2.7       0.0       4.5       4.8       1.1
13 H  pz              0.1       0.0       0.0       0.1       0.0       0.0
13 H  py              0.0       0.0       0.0       0.0       0.1       0.1
14 H  s               0.0       7.8       1.3       1.9       9.2       0.3
14 H  pz              0.0       0.1       0.0       0.0       0.1       0.0
14 H  px              0.1       0.0       0.0       0.1       0.0       0.0
14 H  py              0.0       0.1       0.0       0.0       0.0       0.2
15 H  s               1.7       7.6       1.1       0.8       1.4       0.6
15 H  pz              0.0       0.1       0.0       0.0       0.0       0.0
16 H  s               1.0       1.2       0.3       0.0       0.1       6.9
16 H  px              0.0       0.0       0.0       0.1       0.0       0.0
17 H  s               4.3       0.6       3.0       0.1       0.0       0.1
18 H  s               2.7       0.7       0.6       0.0       0.0       0.7
19 H  s               0.1       0.2       4.5       1.6       0.0       0.1

                     30        31        32        33        34        35   
                  -0.27409  -0.23691  -0.01613   0.06485   0.09042   0.10787
                   2.00000   2.00000   0.00000   0.00000   0.00000   0.00000
                  --------  --------  --------  --------  --------  --------
 0 C  s               0.0       0.0       0.0       0.2       5.2      23.3
 0 C  pz              0.0       0.0       0.0       0.2       0.1       0.1
 0 C  px              0.1       0.0       0.0       1.0       1.3       0.9
 0 C  py              0.0       0.0       0.0       0.0       0.0       0.4
 0 C  dxz             0.0       0.0       0.0       0.0       0.1       0.1
 0 C  dx2y2           0.0       0.0       0.0       0.1       0.2       0.1
 1 C  s               0.0       0.0       0.2       2.9       8.2       4.6
 1 C  pz              0.0       0.0       0.1       0.2       0.0       0.4
 1 C  px              0.1       0.0       0.2       2.9       0.5       3.6
 1 C  py              0.0       0.1       0.1       0.9       0.6       4.0
 1 C  dxz             0.0       0.0       0.0       0.0       0.1       0.2
 1 C  dx2y2           0.0       0.0       0.0       0.1       0.0       0.5
 2 C  s               0.0       0.0       1.5       0.9       3.2       0.4
[...]
 4 C  py              0.2       0.4       3.0       0.3       0.0       0.0
 4 C  dz2             1.5       0.0       0.2       5.5       0.0       0.0
 4 C  dxz             2.4       0.5       4.3       0.5       0.0       0.0
 4 C  dyz             2.7       0.6       4.9       0.5       0.0       0.0
 4 C  dx2y2           0.5       0.0       0.3       0.0       0.0       0.0
 4 C  dxy             1.5       0.4       2.9       0.0       0.0       0.0
 5 O  s               1.0       1.0       0.7      18.8       0.0       0.0
 5 O  pz              0.5       0.8       0.3      20.7       0.0       0.0
 5 O  px              2.2       0.1       0.2       0.8       0.0       0.0
 5 O  py              2.0       0.2       0.0       0.7       0.0       0.0
 5 O  dz2             0.0       1.5       0.0      28.1       0.0       0.0
 5 O  dxz             5.8       0.0       1.2       2.5       0.0       0.0
 5 O  dyz             4.7       0.4       0.5       3.0       0.0       0.0
 5 O  dx2y2           0.5       0.0       0.1       0.0       0.0       0.0
 5 O  dxy             0.7       0.1       0.4       0.1       0.0       0.0
 6 O  s               1.9      24.7       7.2       1.1       0.0       0.1
 6 O  pz              4.5       7.2       1.9       0.2       0.0       0.0
 6 O  px              0.2       5.3      14.7       0.3       0.0       0.0
 6 O  py              0.4       1.4      14.0       0.2       0.0       0.0
 6 O  dz2             5.4       1.1       0.0       0.1       0.0       0.0
 6 O  dxz             0.0       3.5      11.8       0.5       0.0       0.0
 6 O  dyz             1.3       0.4      12.7       0.2       0.0       0.0
 6 O  dx2y2           0.2       1.2       0.8       0.1       0.0       0.0
 6 O  dxy             0.0      20.3       4.2       1.0       0.0       0.0
 7 C  s               0.1       1.8       0.6       0.2       1.3      73.3
 7 C  pz              0.0       1.3       0.4       0.0       0.0       0.0
 7 C  px              0.0       4.7       0.9       0.2       0.0       0.0
 7 C  py              0.0       1.9       0.5       0.1       0.0       0.0
 7 C  dz2             0.2       0.3       0.2       0.0       0.0       0.0
 7 C  dxz             0.2       4.4       0.8       0.3       0.0       0.0
 7 C  dyz             0.1       2.1       0.5       0.1       0.0       0.0
 7 C  dx2y2           0.0       0.7       0.2       0.1       0.0       0.0
 7 C  dxy             0.2       6.2       0.8       0.1       0.0       0.0
 9 H  s               0.2       0.0       0.0       0.0       0.0       0.0
 9 H  pz              0.2       0.0       0.0       0.0       0.0       0.0
 9 H  px              0.2       0.0       0.0       0.0       0.0       0.0
 9 H  py              0.1       0.0       0.0       0.0       0.0       0.0
11 H  s               0.5       0.0       0.0       0.0       0.0       0.0
11 H  pz              0.8       0.0       0.0       0.0       0.0       0.0
11 H  px              0.2       0.0       0.0       0.0       0.0       0.0
11 H  py              0.3       0.0       0.0       0.0       0.0       0.0
12 H  s               2.7       0.0       0.0       0.0       0.0       0.0
12 H  pz              2.2       0.0       0.0       0.0       0.0       0.0
12 H  px              2.3       0.0       0.0       0.0       0.0       0.0
12 H  py              2.6       0.0       0.0       0.0       0.0       0.0
13 H  s               1.2       0.0       0.0       0.0       0.0       0.0
13 H  pz              1.0       0.0       0.0       0.0       0.0       0.0
13 H  px              1.4       0.0       0.0       0.0       0.0       0.0
13 H  py              0.8       0.0       0.0       0.0       0.0       0.0
14 H  s               0.3       0.0       0.0       0.0       0.0       0.0
14 H  pz              0.6       0.0       0.0       0.0       0.0       0.0
14 H  py              0.2       0.0       0.0       0.0       0.0       0.0
15 H  s               2.4       0.0       0.1       0.0       0.0       0.0
15 H  pz              5.4       0.1       0.1       0.0       0.0       0.0
15 H  px              0.3       0.0       0.1       0.0       0.0       0.0
15 H  py              0.2       0.0       0.0       0.0       0.0       0.0
16 H  s               0.6       0.0       0.0       0.0       0.0       0.0
16 H  py              1.0       0.0       0.0       0.0       0.0       0.0
17 H  s               0.0       0.3       0.1       0.0       0.0       0.0
17 H  pz              0.1       0.7       0.1       0.0       0.0       0.0
17 H  px              0.0       0.1       0.0       0.0       0.0       0.0
17 H  py              0.0       0.1       0.0       0.0       0.0       0.0
18 H  s               0.0       0.4       0.0       0.0       0.0       0.0
18 H  px              0.0       0.1       0.0       0.0       0.0       0.0
18 H  py              0.0       0.9       0.0       0.0       0.0       0.0
19 H  s               0.0       0.2       0.1       0.0       0.0       0.0
19 H  pz              0.0       0.2       0.0       0.0       0.0       0.0
19 H  px              0.2       0.4       0.1       0.0       0.0       0.0

                    216       217       218       219       220       221   
                  21.99362  22.04398  22.08360  22.30030  43.68814  43.74110
                   0.00000   0.00000   0.00000   0.00000   0.00000   0.00000
                  --------  --------  --------  --------  --------  --------
 0 C  s               8.6      14.7       0.2       0.3       0.0       0.0
 1 C  s              79.4       0.1       0.4       0.0       0.0       0.0
 2 C  s               1.3      76.8       1.6       6.2       0.0       0.0
 3 C  s               3.3       1.2      79.9       0.9       0.0       0.0
 4 C  s               0.0       6.6       0.2      91.5       0.0       0.0
 5 O  s               0.0       0.0       0.0       0.2      95.3       4.6
 5 O  pz              0.0       0.0       0.0       0.1       0.0       0.0
 6 O  s               0.0       0.0       0.0       0.1       4.6      95.3
 7 C  s               7.1       0.2      17.4       0.2       0.0       0.0



                      *****************************
                      * MAYER POPULATION ANALYSIS *
                      *****************************

  NA   - Mulliken gross atomic population
  ZA   - Total nuclear charge
  QA   - Mulliken gross atomic charge
  VA   - Mayer's total valence
  BVA  - Mayer's bonded valence
  FA   - Mayer's free valence

  ATOM       NA         ZA         QA         VA         BVA        FA
  0 C      6.4744     6.0000    -0.4744     3.8123     3.8123    -0.0000
  1 C      6.2501     6.0000    -0.2501     3.6862     3.6862    -0.0000
  2 C      6.2669     6.0000    -0.2669     3.6747     3.6747     0.0000
  3 C      6.2879     6.0000    -0.2879     3.7110     3.7110    -0.0000
  4 C      5.6573     6.0000     0.3427     3.7912     3.7912     0.0000
  5 O      8.4198     8.0000    -0.4198     1.9295     1.9295     0.0000
  6 O      8.1822     8.0000    -0.1822     1.9439     1.9439    -0.0000
  7 C      6.2970     6.0000    -0.2970     3.7852     3.7852    -0.0000
  8 H      0.8527     1.0000     0.1473     0.9622     0.9622     0.0000
  9 H      0.8592     1.0000     0.1408     0.9645     0.9645     0.0000
 10 H      0.8538     1.0000     0.1462     0.9636     0.9636     0.0000
 11 H      0.8591     1.0000     0.1409     0.9602     0.9602    -0.0000
 12 H      0.8534     1.0000     0.1466     0.9619     0.9619     0.0000
 13 H      0.8547     1.0000     0.1453     0.9612     0.9612     0.0000
 14 H      0.8347     1.0000     0.1653     0.9610     0.9610     0.0000
 15 H      0.8394     1.0000     0.1606     0.9629     0.9629     0.0000
 16 H      0.8335     1.0000     0.1665     0.9569     0.9569    -0.0000
 17 H      0.8498     1.0000     0.1502     0.9559     0.9559    -0.0000
 18 H      0.8454     1.0000     0.1546     0.9561     0.9561     0.0000
 19 H      0.8286     1.0000     0.1714     0.9577     0.9577    -0.0000

  Mayer bond orders larger than 0.100000
B(  0-C ,  1-C ) :   0.9029 B(  0-C ,  8-H ) :   0.9741 B(  0-C ,  9-H ) :   0.9822 
B(  0-C , 10-H ) :   0.9832 B(  1-C ,  2-C ) :   0.9222 B(  1-C , 11-H ) :   0.9695 
B(  1-C , 12-H ) :   0.9590 B(  2-C ,  3-C ) :   0.8884 B(  2-C , 13-H ) :   0.9702 
B(  2-C , 14-H ) :   0.9753 B(  3-C ,  4-C ) :   0.9399 B(  3-C , 15-H ) :   1.0028 
B(  3-C , 16-H ) :   0.9450 B(  4-C ,  5-O ) :   1.8221 B(  4-C ,  6-O ) :   1.0504 
B(  6-O ,  7-C ) :   0.8498 B(  7-C , 17-H ) :   0.9694 B(  7-C , 18-H ) :   0.9601 
B(  7-C , 19-H ) :   0.9643 

-------
TIMINGS
-------

Total SCF time: 0 days 0 hours 0 min 26 sec 

Total time                  ....      26.317 sec
Sum of individual times     ....      25.811 sec  ( 98.1%)

SCF preparation             ....       0.206 sec  (  0.8%)
Fock matrix formation       ....      24.526 sec  ( 93.2%)
  Startup                   ....       0.065 sec  (  0.3% of F)
  Split-RI-J                ....       4.693 sec  ( 19.1% of F)
  XC integration            ....      19.144 sec  ( 78.1% of F)
    XC Preparation          ....       0.000 sec  (  0.0% of XC)
    Basis function eval.    ....       3.468 sec  ( 18.1% of XC)
    Density eval.           ....       5.890 sec  ( 30.8% of XC)
    XC-Functional eval.     ....       2.458 sec  ( 12.8% of XC)
    XC-Potential eval.      ....       6.224 sec  ( 32.5% of XC)
Diagonalization             ....       0.000 sec  (  0.0%)
Density matrix formation    ....       0.265 sec  (  1.0%)
Total Energy calculation    ....       0.042 sec  (  0.2%)
Population analysis         ....       0.127 sec  (  0.5%)
Orbital Transformation      ....       0.071 sec  (  0.3%)
Orbital Orthonormalization  ....       0.000 sec  (  0.0%)
DIIS solution               ....       0.510 sec  (  1.9%)
  MO trafo                  ....       0.000 sec  (  0.0 % of DIIS)
  Orb grad                  ....       0.000 sec  (  0.0 % of DIIS)
  Energy W gradient         ....       0.000 sec  (  0.0 % of DIIS)
  DIIS error                ....       0.015 sec  (  3.0 % of DIIS)
  DIIS work                 ....       0.426 sec  ( 83.5 % of DIIS)
  Form Q                    ....       0.000 sec  (  0.0 % of DIIS)
  Form QpQm                 ....       0.000 sec  (  0.0 % of DIIS)
  Exp/Cayley                ....       0.000 sec  (  0.0 % of DIIS)
  Orb update                ....       0.000 sec  (  0.0 % of DIIS)
  Wake-sleep                ....       0.028 sec  (  5.5 % of DIIS)
SOSCF solution              ....       0.063 sec  (  0.2%)
  MO trafo                  ....       0.049 sec  ( 76.6 % of SOSCF)
  Orb grad                  ....       0.003 sec  (  4.6 % of SOSCF)
  Rot update                ....       0.000 sec  (  0.1 % of SOSCF)
  Step                      ....       0.012 sec  ( 18.6 % of SOSCF)
Finished LeanSCF after  26.4 sec

Maximum memory used throughout the entire LEANSCF-calculation: 23.8 MB


-------------------------------------------------------------------------------
                          DFT DISPERSION CORRECTION                            
                                                                               
                                DFTD4 V3.4.0                                   
-------------------------------------------------------------------------------
The R2SCAN3C composite method is recognized
Using three-body term ABC
Active option DFTDOPT                   ...         5   

-------------------------   ----------------
Dispersion correction           -0.005140823
-------------------------   ----------------

------------------   -----------------
gCP correction             0.011954671
------------------   -----------------

-------------------------   --------------------
FINAL SINGLE POINT ENERGY      -386.231249883088
-------------------------   --------------------


------------------------------------------------------------------------------
                              ORCA PROPERTY CALCULATIONS
------------------------------------------------------------------------------

GBWName                                 ... sp_gas.gbw
Number of atoms                         ...     20
Number of basis functions               ...    222
Max core memory                         ...   1024 MB

Electric properties:
Dipole moment                           ... YES
Quadrupole moment                       ...  NO
Static polarizability (Dipole/Dipole)   ...  NO
Static polarizability (Dipole/Quad.)    ...  NO
Static polarizability (Quad./Quad.)     ...  NO
Static polarizability (Velocity)        ...  NO

Atomic electric properties:
Dipole moment                           ...  NO
Quadrupole moment                       ...  NO
Static polarizability                   ...  NO

Choice of electric origin               ... Center of mass
Position of electric origin             ...    -0.000032    -0.000007     0.000006

General magnetic properties:
Magnetizability                         ...  NO

EPR properties:
g-Tensor (aka g-matrix)                 ...  NO
Zero-Field splitting spin-orbit         ...  NO
Zero-field splitting spin-spin          ...  NO
Hyperfine couplings                     ...  NO (   0 nuclei)
Quadrupole couplings                    ...  NO (   0 nuclei)
Contact density                         ...  NO (   0 nuclei)

NMR properties:
Chemical shifts                         ...  NO (   0 nuclei)
Spin-rotation constants                 ...  NO (   0 nuclei)
Spin-spin couplings                     ...  NO (   0 nuclei,    0 pairs)

Choice of magnetic origin               ... GIAO
Position of magnetic origin             ...     0.000000     0.000000     0.000000

Properties with geometric perturbations:
SCF Hessian                             ...  NO
IR spectrum                             ...  NO
VCD spectrum                            ...  NO
X-ray spectroscopy properties:
SCF XES/XAS/RIXS spectra                ...  NO


-------------
DIPOLE MOMENT
-------------

Method             : SCF
Type of density    : Electron Density
Multiplicity       :   1
Irrep              :   0
Energy             :  -386.2380637310917564 Eh
Relativity type    : 
Basis              : AO
                                X                 Y                 Z
Electronic contribution:      7.962571505       2.693788492      -0.598796743
Nuclear contribution   :     -7.953987768      -3.048741660       1.263479642
                        -----------------------------------------
Total Dipole Moment    :      0.008583736      -0.354953167       0.664682900
                        -----------------------------------------
Magnitude (a.u.)       :      0.753570693
Magnitude (Debye)      :      1.915424479



--------------------
Rotational spectrum 
--------------------
 
Rotational constants in cm-1:             0.121542             0.034328             0.031924 
Rotational constants in MHz :          3643.744214          1029.116894           957.054286 

Dipole components along the rotational axes: 
x,y,z [a.u.] :     0.000950     0.370301     0.656311 
x,y,z [Debye]:     0.002415     0.941231     1.668211 

 

Dipole moment calculation done in   0.0 sec 

Maximum memory used throughout the entire PROP-calculation: 13.8 MB

--------------------------------
SUGGESTED CITATIONS FOR THIS RUN
--------------------------------

Below you find a list of papers that are relevant to this ORCA run
We neither can nor want to force you to cite these papers, but we appreciate if you do
You receive ORCA, which is the product of decades of hard work by many enthusiastic individuals, for free
The only thing we kindly ask in return is that you cite our papers,
We deeply appreciate it, if you show your appreciation for ORCA by not just citing the generic ORCA reference.

Please note that relegating all ORCA citations to the supporting information does *not* help us.
SI sections are not indexed - citations you put there will not count into any citation statistics
But we need these citations in order to attract the funding resources that allow us to do what we are doing

Therefore, if you are a happy ORCA user, please consider citing a few of the papers listed below in the main body of your paper

In addition to the list printed below, the program has created the file sp_gas.bibtex that contains the list in bibtex format
You can import this file easily into all common literature databanks and citation aid programs


List of essential papers. We consider these as the minimum necessary citations

  1. Neese,F.
     Software update: the ORCA program system, version 5.0
     WIRES Comput. Molec. Sci., 2022 12(1)e1606
     doi.org/10.1002/wcms.1606
  2. Grimme,S.; Hansen,A.; Ehlert,S.; Mewes,J.
     r2SCAN-3c: A 'Swiss army knife' composite electronic-structure method
     J. Chem. Phys., 2021 154 064103
     doi.org/10.1063/5.0040021

List of papers to cite with high priority. The work reported in these papers was absolutely
necessary for this run to complete.
Our perspective: the developers of density functionals and basis sets usually get cited in chemistry papers
Good! But without the algorithms to do something with them, the functionals or basis sets would not do anything.
Hence, in our opinion, the algorithm design and method developments papers are equally worthy of getting cited

  1. Neese,F.
     An improvement of the resolution of the identity approximation for the formation of the Coulomb matrix
     J. Comp. Chem., 2003 24(14)1740-1747
     doi.org/10.1002/jcc.10318
  2. Neese,F.
     The SHARK Integral Generation and Digestion System
     J. Comp. Chem., 2022  1-16
     doi.org/10.1002/jcc.26942
  3. Lehtola,S.; Steigemann,C.; Oliveira,M.; Marques,M.
     Recent developments in Libxc - A comprehensive library of functionals for density functional theory
     Software X, 2018 7 
     doi.org/10.1016/j.softx.2017.11.002
  4. Caldeweyher,E.; Bannwarth,C.; Grimme,S.
     Extension of the D3 dispersion coefficient model
     J. Chem. Phys., 2017 147 034112-XXXX
     doi.org/10.1063/1.4993215
  5. Caldeweyher,E.; Ehlert,S.; Hansen,A.; Neugebauer,H.; Spicher,S.; Bannwarth,C.; Grimme,S.
     A generally applicable atomic-charge dependent London dispersion correction
     J. Chem. Phys., 2019 150 154122-XXXX
     doi.org/10.1063/1.5090222
  6. Caldeweyher,E.; Mewes,J.; Ehlert,S.; Grimme,S.
     Extension and evaluation of the D4 London-dispersion model for periodic systems
     Phys. Chem. Chem. Phys., 2020 22(16)8499-8512
     doi.org/10.1039/D0CP00502A

List of suggested additional citations. These are papers that are important in the 'surrounding' of 
of this run, or papers that preceded the highly important papers. If you like your results we are grateful for a citation.

  1. Neese,F.
     The ORCA program system
     WIRES Comput. Molec. Sci., 2012 2(1)73-78
     doi.org/10.1002/wcms.81
  2. Neese,F.
     Software update: the ORCA program system, version 4.0
     WIRES Comput. Molec. Sci., 2018 8(1)1-6
     doi.org/10.1002/wcms.1327
  3. Neese,F.; Wennmohs,F.; Becker,U.; Riplinger,C.
     The ORCA quantum chemistry program package
     J. Chem. Phys., 2020 152 Art. No. L224108
     doi.org/10.1063/5.0004608

List of optional additional citations

  1. Neese,F.
     Approximate second-order SCF convergence for spin unrestricted wavefunctions
     Chem. Phys. Lett., 2000 325(1-3)93-98
     doi.org/10.1016/s0009-2614(00)00662-x

Timings for individual modules:

Sum of individual times          ...       28.241 sec (=   0.471 min)
Startup calculation              ...        1.335 sec (=   0.022 min)   4.7 %
SCF iterations                   ...       26.784 sec (=   0.446 min)  94.8 %
Property calculations            ...        0.122 sec (=   0.002 min)   0.4 %
                             ****ORCA TERMINATED NORMALLY****
TOTAL RUN TIME: 0 days 0 hours 0 minutes 29 seconds 97 msec
