      -----------------------------------------------------------      
     |                   =====================                   |     
     |                           x T B                           |     
     |                   =====================                   |     
     |                         S. Grimme                         |     
     |          Mulliken Center for Theoretical Chemistry        |     
     |                    University of Bonn                     |     
      -----------------------------------------------------------      

   * xtb version 6.7.1 (edcfbbe) compiled by 'albert@albert-system' on 2024-07-22

   xtb is free software: you can redistribute it and/or modify it under
   the terms of the GNU Lesser General Public License as published by
   the Free Software Foundation, either version 3 of the License, or
   (at your option) any later version.
   
   xtb is distributed in the hope that it will be useful,
   but WITHOUT ANY WARRANTY; without even the implied warranty of
   MERCHANTABILITY or FITNESS FOR A PARTICULAR PURPOSE.  See the
   GNU Lesser General Public License for more details.
   
   Cite this work as:
   * C. Bannwarth, E. Caldeweyher, S. Ehlert, A. Hansen, P. Pracht,
     J. Seibert, S. Spicher, S. Grimme, WIREs Comput. Mol. Sci., 2020, 11,
     e01493. DOI: 10.1002/wcms.1493
   
   for GFN2-xTB:
   * C. Bannwarth, S. Ehlert and S. Grimme., J. Chem. Theory Comput., 2019,
     15, 1652-1671. DOI: 10.1021/acs.jctc.8b01176
   for GFN1-xTB:
   * S. Grimme, C. Bannwarth, P. Shushkov, J. Chem. Theory Comput., 2017,
     13, 1989-2009. DOI: 10.1021/acs.jctc.7b00118
   for GFN0-xTB:
   * P. Pracht, E. Caldeweyher, S. Ehlert, S. Grimme, ChemRxiv, 2019, preprint.
     DOI: 10.26434/chemrxiv.8326202.v1
   for GFN-FF:
   * S. Spicher and S. Grimme, Angew. Chem. Int. Ed., 2020, 59, 15665-15673.
     DOI: 10.1002/anie.202004239
   
   for ALPB and GBSA implicit solvation:
   * S. Ehlert, M. Stahn, S. Spicher, S. Grimme, J. Chem. Theory Comput.,
     2021, 17, 4250-4261. DOI: 10.1021/acs.jctc.1c00471
   
   for ddCOSMO and CPCM-X implicit solvation:
   * M. Stahn, S. Ehlert, S. Grimme, J. Phys. Chem. A,
     2023, XX, XXXX-XXXX. DOI: 10.1021/acs.jpca.3c04382
   
   for DFT-D4:
   * E. Caldeweyher, C. Bannwarth and S. Grimme, J. Chem. Phys., 2017,
     147, 034112. DOI: 10.1063/1.4993215
   * E. Caldeweyher, S. Ehlert, A. Hansen, H. Neugebauer, S. Spicher,
     C. Bannwarth and S. Grimme, J. Chem. Phys., 2019, 150, 154122.
     DOI: 10.1063/1.5090222
   * E. Caldeweyher, J.-M. Mewes, S. Ehlert and S. Grimme, Phys. Chem. Chem. Phys.
     2020, 22, 8499-8512. DOI: 10.1039/D0CP00502A
   
   for sTDA-xTB:
   * S. Grimme and C. Bannwarth, J. Chem. Phys., 2016, 145, 054103.
     DOI: 10.1063/1.4959605
   
   in the mass-spec context:
   * V. Asgeirsson, C. Bauer and S. Grimme, Chem. Sci., 2017, 8, 4879.
     DOI: 10.1039/c7sc00601b
   * J. Koopman and S. Grimme, ACS Omega 2019, 4, 12, 15120-15133.
     DOI: 10.1021/acsomega.9b02011
   
   for metadynamics refer to:
   * S. Grimme, J. Chem. Theory Comput., 2019, 155, 2847-2862
     DOI: 10.1021/acs.jctc.9b00143
   
   for SPH calculations refer to:
   * S. Spicher and S. Grimme, J. Chem. Theory Comput., 2021, 17, 1701-1714
     DOI: 10.1021/acs.jctc.0c01306
   
   for ONIOM refer to:
   * C. Plett, A. Katbashev, S. Ehlert, S. Grimme, M. Bursch,
     Phys. Chem. Chem. Phys., 2023, 25, 17860-17868. DOI: 10.1039/D3CP02178E
   
   for DIPRO refer to:
   * J. Kohn, N. Gildemeister, S. Grimme, D. Fazzi, A. Hansen,
     J. Chem. Phys., 2023, just accepted.
   
   for PTB refer to:
   * S. Grimme, M. Mueller, A. Hansen, J. Chem. Phys., 2023, 158, 124111.
     DOI: 10.1063/5.0137838
   
   with help from (in alphabetical order)
   P. Atkinson, C. Bannwarth, F. Bohle, G. Brandenburg, E. Caldeweyher
   M. Checinski, S. Dohm, S. Ehlert, S. Ehrlich, I. Gerasimov, C. Hölzer
   A. Katbashev, J. Kohn, J. Koopman, C. Lavigne, S. Lehtola, F. März, M. Müller,
   F. Musil, H. Neugebauer, J. Pisarek, C. Plett, P. Pracht, F. Pultar,
   J. Seibert, P. Shushkov, S. Spicher, M. Stahn, M. Steiner, T. Strunk,
   J. Stückrath, T. Rose, and J. Unsleber
   
 * started run on 2025/04/11 at 15:53:53.633     
   ID    Z sym.   atoms
    1    6 C      1-4, 7, 8
    2    8 O      5, 6
    3    1 H      9-20

           -------------------------------------------------
          |                Calculation Setup                |
           -------------------------------------------------

          program call               : /srv/scratch/z5358697/.xtb/bin/xtb solv.coord --gfn2 --sp --chrg 0 --norestart --parallel 1 --alpb water reference -I xtb_sp-xcontrol-inp
          hostname                   : k061
          coordinate file            : solv.coord
          omp threads                :                     1


           -------------------------------------------------
          |                 G F N 2 - x T B                 |
           -------------------------------------------------

        Reference                      10.1021/acs.jctc.8b01176
      * Hamiltonian:
        H0-scaling (s, p, d)           1.850000    2.230000    2.230000
        zeta-weighting                 0.500000
      * Dispersion:
        s8                             2.700000
        a1                             0.520000
        a2                             5.000000
        s9                             5.000000
      * Repulsion:
        kExp                           1.500000    1.000000
        rExp                           1.000000
      * Coulomb:
        alpha                          2.000000
        third order                    shell-resolved
        anisotropic                    true
        a3                             3.000000
        a5                             4.000000
        cn-shift                       1.200000
        cn-exp                         4.000000
        max-rad                        5.000000

      * Solvation model:               ALPB
        Solvent                        water
        Parameter file                 internal GFN2-xTB/ALPB
        Dielectric constant                8.0200E+01
        Reference state                gsolv=reference [X=1]
        Free energy shift                  2.8945E-03 Eh       1.8164E+00 kcal/mol
        Temperature                        2.9815E+02 K
        Density                            1.0000E+00 kg/L
        Solvent mass                       1.8000E+01 g/mol
        Interaction kernel             P16
        Born radius scaling (c1)           1.4744E+00
        Born radii integrator          GBOBC
        Born offset                        0.0000E+00 a0       0.0000E+00 AA
        H-bond correction              true
        Ion screening                  false
        Surface tension                    1.0000E-05 Eh       1.5569E+01 dyn/cm
        Grid points                               974 per atom

          ...................................................
          :                      SETUP                      :
          :.................................................:
          :  # basis functions                  44          :
          :  # atomic orbitals                  44          :
          :  # shells                           28          :
          :  # electrons                        48          :
          :  max. iterations                   250          :
          :  Hamiltonian                  GFN2-xTB          :
          :  restarted?                      false          :
          :  GBSA solvation                   true          :
          :  PC potential                    false          :
          :  electronic temp.          300.0000000     K    :
          :  accuracy                    1.0000000          :
          :  -> integral cutoff          0.2500000E+02      :
          :  -> integral neglect         0.1000000E-07      :
          :  -> SCF convergence          0.1000000E-05 Eh   :
          :  -> wf. convergence          0.1000000E-03 e    :
          :  Broyden damping             0.4000000          :
          :  net charge                          0          :
          :  unpaired electrons                  0          :
          ...................................................

 iter      E             dE          RMSdq      gap      omega  full diag
   1    -27.3731859 -0.273732E+02  0.400E+00    5.72       0.0  T
   2    -27.4341245 -0.609386E-01  0.201E+00    4.79       1.0  T
   3    -27.4358540 -0.172950E-02  0.102E+00    5.10       1.0  T
   4    -27.4372939 -0.143989E-02  0.157E-01    4.87       1.0  T
   5    -27.4374875 -0.193550E-03  0.675E-02    4.92       1.0  T
   6    -27.4374894 -0.191229E-05  0.224E-02    4.91       1.0  T
   7    -27.4374903 -0.961121E-06  0.427E-03    4.92       5.2  T
   8    -27.4374904 -0.301649E-07  0.243E-03    4.92       9.2  T
   9    -27.4374904 -0.108310E-07  0.418E-04    4.92      53.5  T
  10    -27.4374904 -0.506336E-09  0.222E-04    4.92     100.6  T

   *** convergence criteria satisfied after 10 iterations ***

         #    Occupation            Energy/Eh            Energy/eV
      -------------------------------------------------------------
         1        2.0000           -0.7495281             -20.3957
       ...           ...                  ...                  ...
        18        2.0000           -0.4690769             -12.7642
        19        2.0000           -0.4504665             -12.2578
        20        2.0000           -0.4486829             -12.2093
        21        2.0000           -0.4470678             -12.1653
        22        2.0000           -0.4460469             -12.1376
        23        2.0000           -0.4379847             -11.9182
        24        2.0000           -0.4186458             -11.3919 (HOMO)
        25                         -0.2379710              -6.4755 (LUMO)
        26                         -0.0030730              -0.0836
        27                          0.0952756               2.5926
        28                          0.1119272               3.0457
        29                          0.1187315               3.2308
       ...                                ...                  ...
        44                          0.6171789              16.7943
      -------------------------------------------------------------
                  HL-Gap            0.1806748 Eh            4.9164 eV
             Fermi-level           -0.3283084 Eh           -8.9337 eV

 SCC (total)                   0 d,  0 h,  0 min,  0.021 sec
 SCC setup                      ...        0 min,  0.001 sec (  6.646%)
 Dispersion                     ...        0 min,  0.000 sec (  0.630%)
 classical contributions        ...        0 min,  0.000 sec (  0.119%)
 integral evaluation            ...        0 min,  0.002 sec (  8.592%)
 iterations                     ...        0 min,  0.012 sec ( 59.196%)
 molecular gradient             ...        0 min,  0.005 sec ( 23.745%)
 printout                       ...        0 min,  0.000 sec (  0.985%)

         :::::::::::::::::::::::::::::::::::::::::::::::::::::
         ::                     SUMMARY                     ::
         :::::::::::::::::::::::::::::::::::::::::::::::::::::
         :: total energy             -27.121150931037 Eh    ::
         :: total w/o Gsasa/hb       -27.123060672332 Eh    ::
         :: gradient norm              0.000096823735 Eh/a0 ::
         :: HOMO-LUMO gap              4.916410541302 eV    ::
         ::.................................................::
         :: SCC energy               -27.437417998862 Eh    ::
         :: -> isotropic ES            0.058778109403 Eh    ::
         :: -> anisotropic ES          0.001126909126 Eh    ::
         :: -> anisotropic XC          0.008179747064 Eh    ::
         :: -> dispersion             -0.012177658304 Eh    ::
         :: -> Gsolv                  -0.006938770370 Eh    ::
         ::    -> Gelec               -0.008848511665 Eh    ::
         ::    -> Gsasa                0.001170506549 Eh    ::
         ::    -> Ghb                 -0.002155314415 Eh    ::
         ::    -> Gshift               0.002894549160 Eh    ::
         :: repulsion energy           0.316267067825 Eh    ::
         :: add. restraining           0.000000000000 Eh    ::
         :: total charge               0.000000000000 e     ::
         :::::::::::::::::::::::::::::::::::::::::::::::::::::

           -------------------------------------------------
          |                Property Printout                |
           -------------------------------------------------

    * Orbital Energies and Occupations

         #    Occupation            Energy/Eh            Energy/eV
      -------------------------------------------------------------
         1        2.0000           -0.7495281             -20.3957
       ...           ...                  ...                  ...
        12        2.0000           -0.5192603             -14.1298
        13        2.0000           -0.5150467             -14.0151
        14        2.0000           -0.5013636             -13.6428
        15        2.0000           -0.4995223             -13.5927
        16        2.0000           -0.4889686             -13.3055
        17        2.0000           -0.4798522             -13.0574
        18        2.0000           -0.4690769             -12.7642
        19        2.0000           -0.4504665             -12.2578
        20        2.0000           -0.4486829             -12.2093
        21        2.0000           -0.4470678             -12.1653
        22        2.0000           -0.4460469             -12.1376
        23        2.0000           -0.4379847             -11.9182
        24        2.0000           -0.4186458             -11.3919 (HOMO)
        25                         -0.2379710              -6.4755 (LUMO)
        26                         -0.0030730              -0.0836
        27                          0.0952756               2.5926
        28                          0.1119272               3.0457
        29                          0.1187315               3.2308
        30                          0.1260867               3.4310
        31                          0.1488900               4.0515
        32                          0.1522777               4.1437
        33                          0.1587694               4.3203
        34                          0.1634738               4.4483
        35                          0.1774936               4.8298
       ...                                ...                  ...
        44                          0.6171789              16.7943
      -------------------------------------------------------------
                  HL-Gap            0.1806748 Eh            4.9164 eV
             Fermi-level           -0.3283084 Eh           -8.9337 eV

     #   Z          covCN         q      C6AA      α(0)
     1   6 C        3.752    -0.113    22.718     6.797
     2   6 C        3.802    -0.055    21.566     6.612
     3   6 C        3.804    -0.101    22.433     6.743
     4   6 C        2.713     0.369    20.751     7.457
     5   8 O        0.856    -0.488    23.521     6.502
     6   8 O        1.703    -0.272    18.504     5.808
     7   6 C        3.693     0.068    19.609     6.336
     8   6 C        3.750    -0.124    22.938     6.830
     9   1 H        0.925     0.050     2.321     2.382
    10   1 H        0.925     0.030     2.589     2.516
    11   1 H        0.925     0.049     2.333     2.389
    12   1 H        0.924     0.045     2.385     2.415
    13   1 H        0.924     0.058     2.217     2.329
    14   1 H        0.924     0.082     1.958     2.188
    15   1 H        0.925     0.078     2.000     2.212
    16   1 H        0.924     0.081     1.966     2.192
    17   1 H        0.924     0.057     2.229     2.335
    18   1 H        0.925     0.051     2.312     2.378
    19   1 H        0.925     0.065     2.145     2.290
    20   1 H        0.925     0.070     2.083     2.257

 Mol. C6AA /au·bohr⁶  :       2998.964671
 Mol. C8AA /au·bohr⁸  :      63845.118503
 Mol. α(0) /au        :         80.967887


Wiberg/Mayer (AO) data.
largest (>0.10) Wiberg bond orders for each atom

 ---------------------------------------------------------------------------
     #   Z sym  total        # sym  WBO       # sym  WBO       # sym  WBO
 ---------------------------------------------------------------------------
     1   6 C    3.995 --     2 C    1.021    10 H    0.987     9 H    0.986
                            11 H    0.986
     2   6 C    3.992 --     1 C    1.021     3 C    0.982    12 H    0.978
                            13 H    0.975
     3   6 C    3.989 --     2 C    0.982     4 C    0.978    15 H    0.973
                            14 H    0.953
     4   6 C    3.903 --     5 O    1.694     6 O    1.167     3 C    0.978
     5   8 O    1.973 --     4 C    1.694     6 O    0.171
     6   8 O    2.319 --     4 C    1.167     7 C    0.920     5 O    0.171
     7   6 C    3.913 --     8 C    1.013    17 H    0.970    16 H    0.969
                             6 O    0.920
     8   6 C    3.989 --     7 C    1.013    18 H    0.986    19 H    0.985
                            20 H    0.980
     9   1 H    0.998 --     1 C    0.986
    10   1 H    0.999 --     1 C    0.987
    11   1 H    0.998 --     1 C    0.986
    12   1 H    0.998 --     2 C    0.978
    13   1 H    0.996 --     2 C    0.975
    14   1 H    0.993 --     3 C    0.953
    15   1 H    0.994 --     3 C    0.973
    16   1 H    0.993 --     7 C    0.969
    17   1 H    0.997 --     7 C    0.970
    18   1 H    0.997 --     8 C    0.986
    19   1 H    0.996 --     8 C    0.985
    20   1 H    0.994 --     8 C    0.980
 ---------------------------------------------------------------------------

Topologies differ in total number of bonds
Writing topology from bond orders to xtbtopo.mol

molecular dipole:
                 x           y           z       tot (Debye)
 q only:        0.020      -0.689      -0.903
   full:        0.044      -0.606      -0.930       2.824
molecular quadrupole (traceless):
                xx          xy          yy          xz          yz          zz
 q only:        9.018      -2.441      -3.021      -0.074      -3.723      -5.997
  q+dip:        7.910      -1.914      -2.662      -0.252      -3.702      -5.248
   full:        8.040      -1.861      -2.042      -0.308      -4.399      -5.999


           -------------------------------------------------
          | TOTAL ENERGY              -27.121150931037 Eh   |
          | GRADIENT NORM               0.000096823735 Eh/α |
          | HOMO-LUMO GAP               4.916410541302 eV   |
           -------------------------------------------------

------------------------------------------------------------------------
 * finished run on 2025/04/11 at 15:53:53.697     
------------------------------------------------------------------------
 total:
 * wall-time:     0 d,  0 h,  0 min,  0.063 sec
 *  cpu-time:     0 d,  0 h,  0 min,  0.023 sec
 * ratio c/w:     0.366 speedup
 SCF:
 * wall-time:     0 d,  0 h,  0 min,  0.021 sec
 *  cpu-time:     0 d,  0 h,  0 min,  0.015 sec
 * ratio c/w:     0.690 speedup

