      -----------------------------------------------------------      
     |                   =====================                   |     
     |                           x T B                           |     
     |                   =====================                   |     
     |                         S. Grimme                         |     
     |          Mulliken Center for Theoretical Chemistry        |     
     |                    University of Bonn                     |     
      -----------------------------------------------------------      

   * xtb version 6.7.1 (edcfbbe) compiled by 'albert@albert-system' on 2024-07-22

   xtb is free software: you can redistribute it and/or modify it under
   the terms of the GNU Lesser General Public License as published by
   the Free Software Foundation, either version 3 of the License, or
   (at your option) any later version.
   
   xtb is distributed in the hope that it will be useful,
   but WITHOUT ANY WARRANTY; without even the implied warranty of
   MERCHANTABILITY or FITNESS FOR A PARTICULAR PURPOSE.  See the
   GNU Lesser General Public License for more details.
   
   Cite this work as:
   * C. Bannwarth, E. Caldeweyher, S. Ehlert, A. Hansen, P. Pracht,
     J. Seibert, S. Spicher, S. Grimme, WIREs Comput. Mol. Sci., 2020, 11,
     e01493. DOI: 10.1002/wcms.1493
   
   for GFN2-xTB:
   * C. Bannwarth, S. Ehlert and S. Grimme., J. Chem. Theory Comput., 2019,
     15, 1652-1671. DOI: 10.1021/acs.jctc.8b01176
   for GFN1-xTB:
   * S. Grimme, C. Bannwarth, P. Shushkov, J. Chem. Theory Comput., 2017,
     13, 1989-2009. DOI: 10.1021/acs.jctc.7b00118
   for GFN0-xTB:
   * P. Pracht, E. Caldeweyher, S. Ehlert, S. Grimme, ChemRxiv, 2019, preprint.
     DOI: 10.26434/chemrxiv.8326202.v1
   for GFN-FF:
   * S. Spicher and S. Grimme, Angew. Chem. Int. Ed., 2020, 59, 15665-15673.
     DOI: 10.1002/anie.202004239
   
   for ALPB and GBSA implicit solvation:
   * S. Ehlert, M. Stahn, S. Spicher, S. Grimme, J. Chem. Theory Comput.,
     2021, 17, 4250-4261. DOI: 10.1021/acs.jctc.1c00471
   
   for ddCOSMO and CPCM-X implicit solvation:
   * M. Stahn, S. Ehlert, S. Grimme, J. Phys. Chem. A,
     2023, XX, XXXX-XXXX. DOI: 10.1021/acs.jpca.3c04382
   
   for DFT-D4:
   * E. Caldeweyher, C. Bannwarth and S. Grimme, J. Chem. Phys., 2017,
     147, 034112. DOI: 10.1063/1.4993215
   * E. Caldeweyher, S. Ehlert, A. Hansen, H. Neugebauer, S. Spicher,
     C. Bannwarth and S. Grimme, J. Chem. Phys., 2019, 150, 154122.
     DOI: 10.1063/1.5090222
   * E. Caldeweyher, J.-M. Mewes, S. Ehlert and S. Grimme, Phys. Chem. Chem. Phys.
     2020, 22, 8499-8512. DOI: 10.1039/D0CP00502A
   
   for sTDA-xTB:
   * S. Grimme and C. Bannwarth, J. Chem. Phys., 2016, 145, 054103.
     DOI: 10.1063/1.4959605
   
   in the mass-spec context:
   * V. Asgeirsson, C. Bauer and S. Grimme, Chem. Sci., 2017, 8, 4879.
     DOI: 10.1039/c7sc00601b
   * J. Koopman and S. Grimme, ACS Omega 2019, 4, 12, 15120-15133.
     DOI: 10.1021/acsomega.9b02011
   
   for metadynamics refer to:
   * S. Grimme, J. Chem. Theory Comput., 2019, 155, 2847-2862
     DOI: 10.1021/acs.jctc.9b00143
   
   for SPH calculations refer to:
   * S. Spicher and S. Grimme, J. Chem. Theory Comput., 2021, 17, 1701-1714
     DOI: 10.1021/acs.jctc.0c01306
   
   for ONIOM refer to:
   * C. Plett, A. Katbashev, S. Ehlert, S. Grimme, M. Bursch,
     Phys. Chem. Chem. Phys., 2023, 25, 17860-17868. DOI: 10.1039/D3CP02178E
   
   for DIPRO refer to:
   * J. Kohn, N. Gildemeister, S. Grimme, D. Fazzi, A. Hansen,
     J. Chem. Phys., 2023, just accepted.
   
   for PTB refer to:
   * S. Grimme, M. Mueller, A. Hansen, J. Chem. Phys., 2023, 158, 124111.
     DOI: 10.1063/5.0137838
   
   with help from (in alphabetical order)
   P. Atkinson, C. Bannwarth, F. Bohle, G. Brandenburg, E. Caldeweyher
   M. Checinski, S. Dohm, S. Ehlert, S. Ehrlich, I. Gerasimov, C. Hölzer
   A. Katbashev, J. Kohn, J. Koopman, C. Lavigne, S. Lehtola, F. März, M. Müller,
   F. Musil, H. Neugebauer, J. Pisarek, C. Plett, P. Pracht, F. Pultar,
   J. Seibert, P. Shushkov, S. Spicher, M. Stahn, M. Steiner, T. Strunk,
   J. Stückrath, T. Rose, and J. Unsleber
   
 * started run on 2025/04/11 at 15:59:01.647     
   ID    Z sym.   atoms
    1    6 C      1-5, 8
    2    8 O      6, 7
    3    1 H      9-20

           -------------------------------------------------
          |                Calculation Setup                |
           -------------------------------------------------

          program call               : /srv/scratch/z5358697/.xtb/bin/xtb gas.coord --gfn2 --sp --chrg 0 --norestart --parallel 1
          hostname                   : k068
          coordinate file            : gas.coord
          omp threads                :                     1


           -------------------------------------------------
          |                 G F N 2 - x T B                 |
           -------------------------------------------------

        Reference                      10.1021/acs.jctc.8b01176
      * Hamiltonian:
        H0-scaling (s, p, d)           1.850000    2.230000    2.230000
        zeta-weighting                 0.500000
      * Dispersion:
        s8                             2.700000
        a1                             0.520000
        a2                             5.000000
        s9                             5.000000
      * Repulsion:
        kExp                           1.500000    1.000000
        rExp                           1.000000
      * Coulomb:
        alpha                          2.000000
        third order                    shell-resolved
        anisotropic                    true
        a3                             3.000000
        a5                             4.000000
        cn-shift                       1.200000
        cn-exp                         4.000000
        max-rad                        5.000000


          ...................................................
          :                      SETUP                      :
          :.................................................:
          :  # basis functions                  44          :
          :  # atomic orbitals                  44          :
          :  # shells                           28          :
          :  # electrons                        48          :
          :  max. iterations                   250          :
          :  Hamiltonian                  GFN2-xTB          :
          :  restarted?                      false          :
          :  GBSA solvation                  false          :
          :  PC potential                    false          :
          :  electronic temp.          300.0000000     K    :
          :  accuracy                    1.0000000          :
          :  -> integral cutoff          0.2500000E+02      :
          :  -> integral neglect         0.1000000E-07      :
          :  -> SCF convergence          0.1000000E-05 Eh   :
          :  -> wf. convergence          0.1000000E-03 e    :
          :  Broyden damping             0.4000000          :
          :  net charge                          0          :
          :  unpaired electrons                  0          :
          ...................................................

 iter      E             dE          RMSdq      gap      omega  full diag
   1    -27.3534010 -0.273534E+02  0.383E+00    6.01       0.0  T
   2    -27.4220339 -0.686329E-01  0.198E+00    4.77       1.0  T
   3    -27.4251668 -0.313288E-02  0.111E+00    5.25       1.0  T
   4    -27.4275089 -0.234205E-02  0.181E-01    4.95       1.0  T
   5    -27.4278029 -0.294035E-03  0.731E-02    5.02       1.0  T
   6    -27.4278074 -0.445358E-05  0.189E-02    5.02       1.2  T
   7    -27.4278082 -0.880343E-06  0.694E-03    5.02       3.2  T
   8    -27.4278084 -0.123861E-06  0.194E-03    5.02      11.5  T
   9    -27.4278084 -0.781578E-08  0.958E-04    5.02      23.4  T
  10    -27.4278084 -0.270179E-08  0.222E-04    5.02     100.7  T

   *** convergence criteria satisfied after 10 iterations ***

         #    Occupation            Energy/Eh            Energy/eV
      -------------------------------------------------------------
         1        2.0000           -0.7444948             -20.2587
       ...           ...                  ...                  ...
        18        2.0000           -0.4668159             -12.7027
        19        2.0000           -0.4548042             -12.3759
        20        2.0000           -0.4482596             -12.1978
        21        2.0000           -0.4457295             -12.1289
        22        2.0000           -0.4347130             -11.8291
        23        2.0000           -0.4275934             -11.6354
        24        2.0000           -0.4115088             -11.1977 (HOMO)
        25                         -0.2269784              -6.1764 (LUMO)
        26                          0.0023493               0.0639
        27                          0.0759770               2.0674
        28                          0.1168109               3.1786
        29                          0.1170778               3.1858
       ...                                ...                  ...
        44                          0.6300601              17.1448
      -------------------------------------------------------------
                  HL-Gap            0.1845304 Eh            5.0213 eV
             Fermi-level           -0.3192436 Eh           -8.6871 eV

 SCC (total)                   0 d,  0 h,  0 min,  0.027 sec
 SCC setup                      ...        0 min,  0.000 sec (  0.655%)
 Dispersion                     ...        0 min,  0.000 sec (  0.437%)
 classical contributions        ...        0 min,  0.000 sec (  0.088%)
 integral evaluation            ...        0 min,  0.002 sec (  5.828%)
 iterations                     ...        0 min,  0.020 sec ( 74.353%)
 molecular gradient             ...        0 min,  0.005 sec ( 17.998%)
 printout                       ...        0 min,  0.000 sec (  0.580%)

         :::::::::::::::::::::::::::::::::::::::::::::::::::::
         ::                     SUMMARY                     ::
         :::::::::::::::::::::::::::::::::::::::::::::::::::::
         :: total energy             -27.112583700320 Eh    ::
         :: gradient norm              0.026694007091 Eh/a0 ::
         :: HOMO-LUMO gap              5.021327099814 eV    ::
         ::.................................................::
         :: SCC energy               -27.427782282724 Eh    ::
         :: -> isotropic ES            0.046982818301 Eh    ::
         :: -> anisotropic ES          0.003306230877 Eh    ::
         :: -> anisotropic XC          0.007725756255 Eh    ::
         :: -> dispersion             -0.011746924570 Eh    ::
         :: repulsion energy           0.315198582405 Eh    ::
         :: add. restraining           0.000000000000 Eh    ::
         :: total charge              -0.000000000000 e     ::
         :::::::::::::::::::::::::::::::::::::::::::::::::::::

           -------------------------------------------------
          |                Property Printout                |
           -------------------------------------------------

    * Orbital Energies and Occupations

         #    Occupation            Energy/Eh            Energy/eV
      -------------------------------------------------------------
         1        2.0000           -0.7444948             -20.2587
       ...           ...                  ...                  ...
        12        2.0000           -0.5202353             -14.1563
        13        2.0000           -0.5173249             -14.0771
        14        2.0000           -0.5012013             -13.6384
        15        2.0000           -0.4967779             -13.5180
        16        2.0000           -0.4908161             -13.3558
        17        2.0000           -0.4766826             -12.9712
        18        2.0000           -0.4668159             -12.7027
        19        2.0000           -0.4548042             -12.3759
        20        2.0000           -0.4482596             -12.1978
        21        2.0000           -0.4457295             -12.1289
        22        2.0000           -0.4347130             -11.8291
        23        2.0000           -0.4275934             -11.6354
        24        2.0000           -0.4115088             -11.1977 (HOMO)
        25                         -0.2269784              -6.1764 (LUMO)
        26                          0.0023493               0.0639
        27                          0.0759770               2.0674
        28                          0.1168109               3.1786
        29                          0.1170778               3.1858
        30                          0.1305226               3.5517
        31                          0.1468588               3.9962
        32                          0.1493055               4.0628
        33                          0.1590504               4.3280
        34                          0.1744123               4.7460
        35                          0.1834143               4.9910
       ...                                ...                  ...
        44                          0.6300601              17.1448
      -------------------------------------------------------------
                  HL-Gap            0.1845304 Eh            5.0213 eV
             Fermi-level           -0.3192436 Eh           -8.6871 eV

     #   Z          covCN         q      C6AA      α(0)
     1   6 C        3.752    -0.104    22.550     6.772
     2   6 C        3.801    -0.053    21.520     6.605
     3   6 C        3.804    -0.057    21.603     6.617
     4   6 C        3.804    -0.091    22.223     6.711
     5   6 C        2.715     0.357    20.941     7.491
     6   8 O        0.856    -0.419    22.060     6.297
     7   8 O        1.704    -0.262    18.345     5.783
     8   6 C        3.648     0.029    20.404     6.490
     9   1 H        0.925     0.039     2.467     2.456
    10   1 H        0.925     0.035     2.518     2.482
    11   1 H        0.925     0.036     2.499     2.472
    12   1 H        0.924     0.033     2.550     2.497
    13   1 H        0.924     0.031     2.575     2.510
    14   1 H        0.924     0.056     2.246     2.344
    15   1 H        0.924     0.040     2.442     2.444
    16   1 H        0.924     0.068     2.105     2.269
    17   1 H        0.925     0.060     2.200     2.319
    18   1 H        0.924     0.063     2.168     2.303
    19   1 H        0.924     0.069     2.095     2.263
    20   1 H        0.925     0.070     2.090     2.261

 Mol. C6AA /au·bohr⁶  :       3023.280965
 Mol. C8AA /au·bohr⁸  :      64072.759074
 Mol. α(0) /au        :         81.384338


Wiberg/Mayer (AO) data.
largest (>0.10) Wiberg bond orders for each atom

 ---------------------------------------------------------------------------
     #   Z sym  total        # sym  WBO       # sym  WBO       # sym  WBO
 ---------------------------------------------------------------------------
     1   6 C    3.997 --     2 C    1.019     9 H    0.988    10 H    0.988
                            11 H    0.987
     2   6 C    3.998 --     1 C    1.019     3 C    1.009    13 H    0.978
                            12 H    0.978
     3   6 C    3.993 --     2 C    1.009     4 C    0.995    15 H    0.977
                            14 H    0.975
     4   6 C    3.994 --     3 C    0.995     5 C    0.974    17 H    0.972
                            16 H    0.949
     5   6 C    3.914 --     6 O    1.743     7 O    1.140     4 C    0.974
     6   8 O    2.024 --     5 C    1.743     7 O    0.172
     7   8 O    2.308 --     5 C    1.140     8 C    0.952     6 O    0.172
     8   6 C    3.925 --    20 H    0.982    19 H    0.978    18 H    0.978
                             7 O    0.952
     9   1 H    0.999 --     1 C    0.988
    10   1 H    0.999 --     1 C    0.988
    11   1 H    0.998 --     1 C    0.987
    12   1 H    0.999 --     2 C    0.978
    13   1 H    0.999 --     2 C    0.978
    14   1 H    0.997 --     3 C    0.975
    15   1 H    0.998 --     3 C    0.977
    16   1 H    0.995 --     4 C    0.949
    17   1 H    0.996 --     4 C    0.972
    18   1 H    0.996 --     8 C    0.978
    19   1 H    0.995 --     8 C    0.978
    20   1 H    0.995 --     8 C    0.982
 ---------------------------------------------------------------------------

Topologies differ in total number of bonds
Writing topology from bond orders to xtbtopo.mol

molecular dipole:
                 x           y           z       tot (Debye)
 q only:        0.083      -0.031      -0.714
   full:        0.147      -0.004      -0.815       2.106
molecular quadrupole (traceless):
                xx          xy          yy          xz          yz          zz
 q only:        5.965      -3.327       0.567      -1.760      -0.549      -6.532
  q+dip:        4.567      -2.712       1.819      -1.393      -0.397      -6.386
   full:        5.340      -2.470       2.028      -1.490      -0.395      -7.368


           -------------------------------------------------
          | TOTAL ENERGY              -27.112583700320 Eh   |
          | GRADIENT NORM               0.026694007091 Eh/α |
          | HOMO-LUMO GAP               5.021327099814 eV   |
           -------------------------------------------------

------------------------------------------------------------------------
 * finished run on 2025/04/11 at 15:59:01.735     
------------------------------------------------------------------------
 total:
 * wall-time:     0 d,  0 h,  0 min,  0.087 sec
 *  cpu-time:     0 d,  0 h,  0 min,  0.022 sec
 * ratio c/w:     0.252 speedup
 SCF:
 * wall-time:     0 d,  0 h,  0 min,  0.027 sec
 *  cpu-time:     0 d,  0 h,  0 min,  0.014 sec
 * ratio c/w:     0.511 speedup

