
                                 *****************
                                 * O   R   C   A *
                                 *****************

                                            #,                                       
                                            ###                                      
                                            ####                                     
                                            #####                                    
                                            ######                                   
                                           ########,                                 
                                     ,,################,,,,,                         
                               ,,#################################,,                 
                          ,,##########################################,,             
                       ,#########################################, ''#####,          
                    ,#############################################,,   '####,        
                  ,##################################################,,,,####,       
                ,###########''''           ''''###############################       
              ,#####''   ,,,,##########,,,,          '''####'''          '####       
            ,##' ,,,,###########################,,,                        '##       
           ' ,,###''''                  '''############,,,                           
         ,,##''                                '''############,,,,        ,,,,,,###''
      ,#''                                            '''#######################'''  
     '                                                          ''''####''''         
             ,#######,   #######,   ,#######,      ##                                
            ,#'     '#,  ##    ##  ,#'     '#,    #''#        ,####,   ,####,        
            ##       ##  ##   ,#'  ##            #'  '#       #'       #'  '#        
            ##       ##  #######   ##           ,######,      #####,   #    #        
            '#,     ,#'  ##    ##  '#,     ,#' ,#      #,     #,   #   #,  ,#        
             '#######'   ##     ##  '#######'  #'      '#     '####' # '####'        



                #########################################################
                #                        -***-                          #
                #          Department of theory and spectroscopy        #
                #                                                       #
                #                      Frank Neese                      #
                #                                                       #
                #     Directorship, Architecture, Infrastructure        #
                #                    SHARK, DRIVERS                     #
                #        Core code/Algorithms in most modules           #
                #                                                       #
                #        Max Planck Institute fuer Kohlenforschung      #
                #                Kaiser Wilhelm Platz 1                 #
                #                 D-45470 Muelheim/Ruhr                 #
                #                      Germany                          #
                #                                                       #
                #                  All rights reserved                  #
                #                        -***-                          #
                #########################################################


                         Program Version 6.0.0  -   RELEASE  -


 With contributions from (in alphabetic order):
   Daniel Aravena         : Magnetic Suceptibility
   Michael Atanasov       : Ab Initio Ligand Field Theory (pilot matlab implementation)
   Alexander A. Auer      : GIAO ZORA, VPT2 properties, NMR spectrum
   Ute Becker             : All parallelization in ORCA, NUMFREQ, NUMCALC
   Giovanni Bistoni       : ED, misc. LED, open-shell LED, HFLD
   Martin Brehm           : Molecular dynamics
   Dmytro Bykov           : pre 5.0 version of the SCF Hessian
   Marcos Casanova-Páez   : Triplet and SCS-CIS(D). UHF-(DLPNO)-IP/EA/STEOM-CCSD. UHF-CVS-IP/STEOM-CCSD
   Vijay G. Chilkuri      : MRCI spin determinant printing, contributions to CSF-ICE
   Pauline Colinet        : FMM embedding
   Dipayan Datta          : RHF DLPNO-CCSD density
   Achintya Kumar Dutta   : EOM-CC, STEOM-CC
   Nicolas Foglia         : Exact transition moments, OPA infrastructure, MCD improvements
   Dmitry Ganyushin       : Spin-Orbit,Spin-Spin,Magnetic field MRCI
   Miquel Garcia          : C-PCM and meta-GGA Hessian, CCSD/C-PCM, Gaussian charge scheme
   Tiago L. C. Gouveia    : GS-ROHF, GS-ROCIS
   Yang Guo               : DLPNO-NEVPT2, F12-NEVPT2, CIM, IAO-localization
   Andreas Hansen         : Spin unrestricted coupled pair/coupled cluster methods
   Ingolf Harden          : AUTO-CI MPn and infrastructure 
   Benjamin Helmich-Paris : MC-RPA, TRAH-(SCF,CASSCF), AVAS, COSX integrals, SCF dyn. polar.
   Lee Huntington         : MR-EOM, pCC
   Robert Izsak           : Overlap fitted RIJCOSX, COSX-SCS-MP3, EOM
   Riya Kayal             : Wick's Theorem for AUTO-CI, AUTO-CI UHF-CCSDT
   Emily Kempfer          : AUTO-CI, RHF CISDT and CCSDT
   Christian Kollmar      : KDIIS, OOCD, Brueckner-CCSD(T), CCSD density, CASPT2, CASPT2-K, improved NEVPT2
   Axel Koslowski         : Symmetry handling
   Simone Kossmann        : Meta GGA functionals, TD-DFT gradient, OOMP2, (MP2 Hessian; deprecated post 5.0)
   Lucas Lang             : DCDCAS
   Marvin Lechner         : AUTO-CI (C++ implementation), FIC-MRCC
   Spencer Leger          : CASSCF response
   Dagmar Lenk            : GEPOL surface, SMD, ORCA-2-JSON
   Dimitrios Liakos       : Extrapolation schemes; Compound Job, initial MDCI parallelization
   Dimitrios Manganas     : Further ROCIS development; embedding schemes. LFT, Crystal Embedding
   Dimitrios Pantazis     : SARC Basis sets
   Anastasios Papadopoulos: AUTO-CI, single reference methods and gradients
   Taras Petrenko         : pre 6.0 DFT Hessian and TD-DFT gradient, (ASA, deprecated), ECA, 1-Electron XAS/XES, NRVS
   Peter Pinski           : DLPNO-MP2, DLPNO-MP2 Gradient
   Christoph Reimann      : Effective Core Potentials
   Marius Retegan         : Local ZFS, SOC
   Christoph Riplinger    : Optimizer, TS searches, QM/MM, DLPNO-CCSD(T), (RO)-DLPNO pert. Triples
   Michael Roemelt        : Original ROCIS implementation
   Masaaki Saitow         : Open-shell DLPNO-CCSD energy and density
   Barbara Sandhoefer     : DKH picture change effects
   Kantharuban Sivalingam : CASSCF convergence/infrastructure, NEVPT2 and variants, FIC-MRCI
   Bernardo de Souza      : ESD, SOC TD-DFT
   Georgi Stoychev        : AutoAux, RI-MP2 NMR, DLPNO-MP2 response, X2C
   Van Anh Tran           : RI-MP2 g-tensors
   Willem Van den Heuvel  : Paramagnetic NMR
   Zikuan Wang            : NOTCH, Electric field optimization 
   Frank Wennmohs         : Technical directorship and infrastructure
   Hang Xu                : AUTO-CI-Response properties 


 We gratefully acknowledge several colleagues who have allowed us to
 interface, adapt or use parts of their codes:
   Stefan Grimme, W. Hujo, H. Kruse, P. Pracht,  : VdW corrections, initial TS optimization,
                  C. Bannwarth, S. Ehlert,         DFT functionals, gCP, sTDA/sTD-DF
                  L. Wittmann, M. Mueller
   Ed Valeev, F. Pavosevic, A. Kumar             : LibInt (2-el integral package), F12 methods
   Garnet Chan, S. Sharma, J. Yang, R. Olivares  : DMRG
   Ulf Ekstrom                                   : XCFun DFT Library
   Mihaly Kallay                                 : mrcc  (arbitrary order and MRCC methods)
   Frank Weinhold                                : gennbo (NPA and NBO analysis)
   Simon Mueller                                 : openCOSMO-RS
   Christopher J. Cramer and Donald G. Truhlar   : smd solvation model
   Lars Goerigk                                  : TD-DFT with DH, B97 family of functionals
   V. Asgeirsson, H. Jonsson                     : NEB implementation
   FAccTs GmbH                                   : IRC, NEB, NEB-TS, DLPNO-Multilevel, CI-OPT
                                                   MM, QMMM, 2- and 3-layer-ONIOM, Crystal-QMMM,
                                                   LR-CPCM, SF, NACMEs, symmetry and pop. for TD-DFT,
                                                   nearIR, NL-DFT gradient (VV10), updates on ESD,
                                                   ML-optimized integration grids, MBIS, APM,
                                                   GOAT, DOCKER, SOLVATOR, interface openCOSMO-RS
   S Lehtola, MJT Oliveira, MAL Marques          : LibXC Library
   Liviu Ungur et al                             : ANISO software


 Your calculation uses the libint2 library for the computation of 2-el integrals
 For citations please refer to: http://libint.valeyev.net

 Your ORCA version has been built with support for libXC version: 6.2.2
 For citations please refer to: https://libxc.gitlab.io

 This ORCA versions uses:
   CBLAS   interface :  Fast vector & matrix operations
   LAPACKE interface :  Fast linear algebra routines
   SCALAPACK package :  Parallel linear algebra routines
   Shared memory     :  Shared parallel matrices
   BLAS/LAPACK       :  OpenBLAS 0.3.27  USE64BITINT DYNAMIC_ARCH NO_AFFINITY SkylakeX SINGLE_THREADED
        Core in use  :  SkylakeX
   Copyright (c) 2011-2014, The OpenBLAS Project


Your calculation utilizes the geometrical counterpoise correction gCP
Please cite in your paper:
H.Kruse, S. Grimme J.Chem.Phys., 136, (2012), 154101 
   

Your calculation utilizes the atom-pairwise dispersion correction
based on EEQ partial charges (D4)


================================================================================

----- Orbital basis set information -----
Your calculation utilizes the basis: def2-mTZVPP
   Stefan Grimme, Andreas Hansen, Sebastian Ehlert, and Jan-Michael Mewes 
   J. Chem. Phys. 154, 064103 (2021). DOI: 10.1063/5.0040021

----- AuxJ basis set information -----
Your calculation utilizes the auxiliary basis: def2/J
   F. Weigend, Phys. Chem. Chem. Phys. 8, 1057 (2006).

================================================================================
                                        WARNINGS
                       Please study these warnings very carefully!
================================================================================

Using LibXC functional ID 497 : Re-regularized SCAN exchange by Furness et al
[ 1]  J. W. Furness, A. D. Kaplan, J. Ning, J. P. Perdew, and J. Sun.,  J. Phys. Chem. Lett. 11, 8208-8215 (2020)
[ 2]  J. W. Furness, A. D. Kaplan, J. Ning, J. P. Perdew, and J. Sun.,  J. Phys. Chem. Lett. 11, 9248-9248 (2020)
Using LibXC functional ID 498 : Re-regularized SCAN correlation by Furness et al
[ 1]  J. W. Furness, A. D. Kaplan, J. Ning, J. P. Perdew, and J. Sun.,  J. Phys. Chem. Lett. 11, 8208-8215 (2020)
[ 2]  J. W. Furness, A. D. Kaplan, J. Ning, J. P. Perdew, and J. Sun.,  J. Phys. Chem. Lett. 11, 9248-9248 (2020)
Using LibXC functional ID 497 : Re-regularized SCAN exchange by Furness et al
[ 1]  J. W. Furness, A. D. Kaplan, J. Ning, J. P. Perdew, and J. Sun.,  J. Phys. Chem. Lett. 11, 8208-8215 (2020)
[ 2]  J. W. Furness, A. D. Kaplan, J. Ning, J. P. Perdew, and J. Sun.,  J. Phys. Chem. Lett. 11, 9248-9248 (2020)
Using LibXC functional ID 498 : Re-regularized SCAN correlation by Furness et al
[ 1]  J. W. Furness, A. D. Kaplan, J. Ning, J. P. Perdew, and J. Sun.,  J. Phys. Chem. Lett. 11, 8208-8215 (2020)
[ 2]  J. W. Furness, A. D. Kaplan, J. Ning, J. P. Perdew, and J. Sun.,  J. Phys. Chem. Lett. 11, 9248-9248 (2020)

================================================================================
                                       INPUT FILE
================================================================================
NAME = sp_gas.inp
|  1> ! r2scan-3c def2/J RI DEFGRID2 scfconv6 printgap
|  2> %output
|  3>     printlevel normal
|  4> end
|  5> * xyz 0 1
|  6> C -2.3257449468 -1.388714109 0.3921039171
|  7> C -2.5131408775 0.050335514 -0.0731977077
|  8> C -1.3103743856 0.5413194003 -0.8824350168
|  9> C -0.0788627046 0.6552121445 -0.0197390312
| 10> O -0.0516342774 1.1472990136 1.0896207576
| 11> O 0.985495152 0.1569927634 -0.6337381305
| 12> C 2.2602550241 0.1676614521 0.0323300868
| 13> C 2.8495714316 -1.2326846808 0.0108500739
| 14> H -3.2002475045 -1.7262622184 0.941763724
| 15> H -2.173406501 -2.0496359468 -0.4578574028
| 16> H -1.4603933299 -1.4635541373 1.0481010417
| 17> H -2.6387587156 0.7011902926 0.7940195459
| 18> H -3.4080496262 0.1228363431 -0.691557034
| 19> H -1.5180643258 1.5381743714 -1.2765154323
| 20> H -1.0907881392 -0.1281337675 -1.7134364373
| 21> H 2.8946059436 0.8684613431 -0.5165553602
| 22> H 2.1148021618 0.5304674566 1.0545188753
| 23> H 2.2152382963 -1.9189070324 0.5658264225
| 24> H 2.9327325173 -1.5827838518 -1.0139328122
| 25> H 3.834804756 -1.2140742425 0.4650936626
| 26> *
| 27> 
| 28>                          ****END OF INPUT****
================================================================================

                       ****************************
                       * Single Point Calculation *
                       ****************************

---------------------------------
CARTESIAN COORDINATES (ANGSTROEM)
---------------------------------
  C     -2.325745   -1.388714    0.392104
  C     -2.513141    0.050336   -0.073198
  C     -1.310374    0.541319   -0.882435
  C     -0.078863    0.655212   -0.019739
  O     -0.051634    1.147299    1.089621
  O      0.985495    0.156993   -0.633738
  C      2.260255    0.167661    0.032330
  C      2.849571   -1.232685    0.010850
  H     -3.200248   -1.726262    0.941764
  H     -2.173407   -2.049636   -0.457857
  H     -1.460393   -1.463554    1.048101
  H     -2.638759    0.701190    0.794020
  H     -3.408050    0.122836   -0.691557
  H     -1.518064    1.538174   -1.276515
  H     -1.090788   -0.128134   -1.713436
  H      2.894606    0.868461   -0.516555
  H      2.114802    0.530467    1.054519
  H      2.215238   -1.918907    0.565826
  H      2.932733   -1.582784   -1.013933
  H      3.834805   -1.214074    0.465094

----------------------------
CARTESIAN COORDINATES (A.U.)
----------------------------
  NO LB      ZA    FRAG     MASS         X           Y           Z
   0 C     6.0000    0    12.011   -4.395021   -2.624289    0.740969
   1 C     6.0000    0    12.011   -4.749148    0.095120   -0.138324
   2 C     6.0000    0    12.011   -2.476249    1.022945   -1.667561
   3 C     6.0000    0    12.011   -0.149029    1.238172   -0.037301
   4 O     8.0000    0    15.999   -0.097575    2.168081    2.059085
   5 O     8.0000    0    15.999    1.862316    0.296673   -1.197592
   6 C     6.0000    0    12.011    4.271263    0.316834    0.061095
   7 C     6.0000    0    12.011    5.384910   -2.329436    0.020504
   8 H     1.0000    0     1.008   -6.047591   -3.262163    1.779676
   9 H     1.0000    0     1.008   -4.107143   -3.873251   -0.865225
  10 H     1.0000    0     1.008   -2.759743   -2.765717    1.980624
  11 H     1.0000    0     1.008   -4.986531    1.325058    1.500479
  12 H     1.0000    0     1.008   -6.440280    0.232127   -1.306853
  13 H     1.0000    0     1.008   -2.868726    2.906728   -2.412265
  14 H     1.0000    0     1.008   -2.061291   -0.242138   -3.237926
  15 H     1.0000    0     1.008    5.470012    1.641154   -0.976148
  16 H     1.0000    0     1.008    3.996397    1.002438    1.992752
  17 H     1.0000    0     1.008    4.186194   -3.626209    1.069257
  18 H     1.0000    0     1.008    5.542061   -2.991028   -1.916055
  19 H     1.0000    0     1.008    7.246731   -2.294268    0.878900

--------------------------------
INTERNAL COORDINATES (ANGSTROEM)
--------------------------------
 C      0   0   0     0.000000000000     0.00000000     0.00000000
 C      1   0   0     1.523970686838     0.00000000     0.00000000
 C      2   1   0     1.530548082578   111.57468498     0.00000000
 C      3   2   1     1.507924713370   111.31728240   292.92540390
 O      4   3   2     1.213906921883   124.87389050   315.31365026
 O      4   3   2     1.325924240879   111.23999487   135.88756335
 C      6   4   3     1.438323128693   119.61796246   180.31451534
 C      7   6   4     1.519448752354   109.29068022   127.62387924
 H      1   2   3     1.086655121418   110.41409788   181.47214380
 H      1   2   3     1.087409271193   110.64040044   301.75549435
 H      1   2   3     1.088469879322   110.28537545    61.84872168
 H      2   1   3     1.091539073518   109.54955914   239.68960032
 H      2   1   3     1.090177185205   109.68933118   120.75536113
 H      3   2   1     1.091858195256   109.52558283   174.76396551
 H      3   2   1     1.089471901592   111.38042485    54.22883496
 H      7   6   4     1.093067614663   106.65217278   247.71360574
 H      7   6   4     1.094374091153   108.49397226     5.56790191
 H      8   7   6     1.086866316472   110.38371319   296.91895387
 H      8   7   6     1.086123915285   109.88334543    56.96872030
 H      8   7   6     1.085066030155   109.29543918   176.93879207

---------------------------
INTERNAL COORDINATES (A.U.)
---------------------------
 C      0   0   0     0.000000000000     0.00000000     0.00000000
 C      1   0   0     2.879887234247     0.00000000     0.00000000
 C      2   1   0     2.892316710871   111.57468498     0.00000000
 C      3   2   1     2.849564738841   111.31728240   292.92540390
 O      4   3   2     2.293951634430   124.87389050   315.31365026
 O      4   3   2     2.505633689589   111.23999487   135.88756335
 C      6   4   3     2.718036805314   119.61796246   180.31451534
 C      7   6   4     2.871342016478   109.29068022   127.62387924
 H      1   2   3     2.053480581504   110.41409788   181.47214380
 H      1   2   3     2.054905718041   110.64040044   301.75549435
 H      1   2   3     2.056909976941   110.28537545    61.84872168
 H      2   1   3     2.062709913423   109.54955914   239.68960032
 H      2   1   3     2.060136317487   109.68933118   120.75536113
 H      3   2   1     2.063312966111   109.52558283   174.76396551
 H      3   2   1     2.058803524611   111.38042485    54.22883496
 H      7   6   4     2.065598437571   106.65217278   247.71360574
 H      7   6   4     2.068067320339   108.49397226     5.56790191
 H      8   7   6     2.053879682315   110.38371319   296.91895387
 H      8   7   6     2.052476747390   109.88334543    56.96872030
 H      8   7   6     2.050477634215   109.29543918   176.93879207

---------------------
BASIS SET INFORMATION
---------------------
There are 3 groups of distinct atoms

 Group   1 Type C   : 11s6p1d contracted to 5s3p1d pattern {62111/411/1}
 Group   2 Type O   : 11s6p2d contracted to 5s3p2d pattern {62111/411/11}
 Group   3 Type H   : 4s1p contracted to 2s1p pattern {31/1}

Atom   0C    basis set group =>   1
Atom   1C    basis set group =>   1
Atom   2C    basis set group =>   1
Atom   3C    basis set group =>   1
Atom   4O    basis set group =>   2
Atom   5O    basis set group =>   2
Atom   6C    basis set group =>   1
Atom   7C    basis set group =>   1
Atom   8H    basis set group =>   3
Atom   9H    basis set group =>   3
Atom  10H    basis set group =>   3
Atom  11H    basis set group =>   3
Atom  12H    basis set group =>   3
Atom  13H    basis set group =>   3
Atom  14H    basis set group =>   3
Atom  15H    basis set group =>   3
Atom  16H    basis set group =>   3
Atom  17H    basis set group =>   3
Atom  18H    basis set group =>   3
Atom  19H    basis set group =>   3
---------------------------------
AUXILIARY/J BASIS SET INFORMATION
---------------------------------
There are 3 groups of distinct atoms

 Group   1 Type C   : 12s5p4d2f1g contracted to 6s4p3d1f1g pattern {711111/2111/211/2/1}
 Group   2 Type O   : 12s5p4d2f1g contracted to 6s4p3d1f1g pattern {711111/2111/211/2/1}
 Group   3 Type H   : 5s2p1d contracted to 3s1p1d pattern {311/2/1}

Atom   0C    basis set group =>   1
Atom   1C    basis set group =>   1
Atom   2C    basis set group =>   1
Atom   3C    basis set group =>   1
Atom   4O    basis set group =>   2
Atom   5O    basis set group =>   2
Atom   6C    basis set group =>   1
Atom   7C    basis set group =>   1
Atom   8H    basis set group =>   3
Atom   9H    basis set group =>   3
Atom  10H    basis set group =>   3
Atom  11H    basis set group =>   3
Atom  12H    basis set group =>   3
Atom  13H    basis set group =>   3
Atom  14H    basis set group =>   3
Atom  15H    basis set group =>   3
Atom  16H    basis set group =>   3
Atom  17H    basis set group =>   3
Atom  18H    basis set group =>   3
Atom  19H    basis set group =>   3

Checking for AutoStart:
The File: sp_gas.gbw exists
Trying to determine its content:
     ... Fine, the file contains calculation information
     ... Fine, the calculation information was read
     ... Fine, the file contains a basis set
     ... Fine, the basis set was read
     ... Fine, the file contains a geometry
     ... Fine, the geometry was read
     ... Fine, the file contains a set of orbitals
     ... Fine, the orbitals can be read
     => possible old guess file was deleted
     => GBW file was renamed to GES file
     => GES file is set as startup file
     => Guess is set to MORead
     ... now leaving AutoStart

------------------------------------------------------------------------------
                             ORCA STARTUP CALCULATIONS
                           -- RI-GTO INTEGRALS CHOSEN --
------------------------------------------------------------------------------
------------------------------------------------------------------------------
                   ___                                                        
                  /   \      - P O W E R E D   B Y -                         
                 /     \                                                     
                 |  |  |   _    _      __       _____    __    __             
                 |  |  |  | |  | |    /  \     |  _  \  |  |  /  |          
                  \  \/   | |  | |   /    \    | | | |  |  | /  /          
                 / \  \   | |__| |  /  /\  \   | |_| |  |  |/  /          
                |  |  |   |  __  | /  /__\  \  |    /   |      \           
                |  |  |   | |  | | |   __   |  |    \   |  |\   \          
                \     /   | |  | | |  |  |  |  | |\  \  |  | \   \       
                 \___/    |_|  |_| |__|  |__|  |_| \__\ |__|  \__/        
                                                                              
                      - O R C A' S   B I G   F R I E N D -                    
                                      &                                       
                       - I N T E G R A L  F E E D E R -                       
                                                                              
 v1 FN, 2020, v2 2021, v3 2022-2024                                           
------------------------------------------------------------------------------


----------------------
SHARK INTEGRAL PACKAGE
----------------------

Number of atoms                             ...     20
Number of basis functions                   ...    222
Number of shells                            ...    110
Maximum angular momentum                    ...      2
Integral batch strategy                     ... SHARK/LIBINT Hybrid
RI-J (if used) integral strategy            ... SPLIT-RIJ (Revised 2003 algorithm where possible)
Printlevel                                  ...      1
Contraction scheme used                     ... SEGMENTED contraction
Prescreening option                         ... SCHWARTZ
   Thresh                                   ... 1.000e-10
   Tcut                                     ... 1.000e-11
   Tpresel                                  ... 1.000e-11 
Coulomb Range Separation                    ... NOT USED
Exchange Range Separation                   ... NOT USED
Multipole approximations                    ... NOT USED
Finite Nucleus Model                        ... NOT USED
CABS basis                                  ... NOT available
Auxiliary Coulomb fitting basis             ... AVAILABLE
   # of basis functions in Aux-J            ...    524
   # of shells in Aux-J                     ...    180
   Maximum angular momentum in Aux-J        ...      4
Auxiliary J/K fitting basis                 ... NOT available
Auxiliary Correlation fitting basis         ... NOT available
Auxiliary 'external' fitting basis          ... NOT available

Checking pre-screening integrals            ... done (  0.0 sec) Dimension = 110
Check shell pair data                       ... done (  0.0 sec)
Shell pair information
Shell pair cut-off parameter TPreSel        ...   1.0e-11
Total number of shell pairs                 ...      6105
Shell pairs after pre-screening             ...      5319
Total number of primitive shell pairs       ...     21533
Primitive shell pairs kept                  ...     13241
          la=0 lb=0:   1792 shell pairs
          la=1 lb=0:   2005 shell pairs
          la=1 lb=1:    585 shell pairs
          la=2 lb=0:    566 shell pairs
          la=2 lb=1:    320 shell pairs
          la=2 lb=2:     51 shell pairs

Calculating one electron integrals          ... done (  0.0 sec)
Calculating RI/J V-Matrix + Cholesky decomp.... done (  0.1 sec)
Calculating Nuclear repulsion               ... done (  0.0 sec) ENN=    393.913875378412 Eh

Diagonalization of the overlap matrix:
Smallest eigenvalue                        ... 1.814e-04
Time for diagonalization                   ...    0.013 sec
Threshold for overlap eigenvalues          ... 1.000e-07
Number of eigenvalues below threshold      ... 0
Time for construction of square roots      ...    0.053 sec
Total time needed                          ...    0.117 sec

-------------------
DFT GRID GENERATION
-------------------

General Integration Accuracy     IntAcc      ... 4.388
Radial Grid Type                 RadialGrid  ... OptM3 with GC (2021)
Angular Grid (max. ang.)         AngularGrid ... 4 (Lebedev-302)
Angular grid pruning method      GridPruning ... 4 (adaptive)
Weight generation scheme         WeightScheme... mBecke (2022)
Basis function cutoff            BFCut       ... 1.0000e-10
Integration weight cutoff        WCut        ... 1.0000e-14
Partially contracted basis set               ... off
Rotationally invariant grid construction     ... off
Angular grids for H and He will be reduced by one unit
Diffuse basis detected: some atoms will have their outermost
                        angular grid increased by 1.

Total number of grid points                  ...    87408
Total number of batches                      ...     1375
Average number of points per batch           ...       63
Average number of grid points per atom       ...     4370
Initializing property integral containers    ... done (  0.1 sec)

SHARK setup successfully completed in   1.5 seconds

Maximum memory used throughout the entire STARTUP-calculation: 39.3 MB
-------------------------------------------------------------------------------
                                 ORCA GUESS
                   Start orbitals & Density for SCF / CASSCF
-------------------------------------------------------------------------------

------------
SCF SETTINGS
------------
Hamiltonian:
 Density Functional     Method          .... DFT(GTOs)
  Functional kind                       .... Exchange
  Functional name                       .... Re-regularized SCAN exchange by Furness et al
  Functional family                     .... MGGA
  Functional refs                              
    [ 0] J. W. Furness, A. D. Kaplan, J. Ning, J. P. Perdew, and J. Sun.,  J. Phys. Chem. Lett. 11, 8208-8215 (2020), doi: 10.1021/acs.jpclett.0c02405
    [ 1] J. W. Furness, A. D. Kaplan, J. Ning, J. P. Perdew, and J. Sun.,  J. Phys. Chem. Lett. 11, 9248-9248 (2020), doi: 10.1021/acs.jpclett.0c03077
  Functional external parameters        .... 6
    Parameter  0 _c1        =  6.670000e-01 : c1 parameter        
    Parameter  1 _c2        =  8.000000e-01 : c2 parameter        
    Parameter  2 _d         =  1.240000e+00 : d parameter         
    Parameter  3 _k1        =  6.500000e-02 : k1 parameter        
    Parameter  4 _eta       =  1.000000e-03 : eta parameter       
    Parameter  5 _dp2       =  3.610000e-01 : dp2 parameter       
  Functional kind                       .... Correlation
  Functional name                       .... Re-regularized SCAN correlation by Furness et al
  Functional family                     .... MGGA
  Functional refs                              
    [ 0] J. W. Furness, A. D. Kaplan, J. Ning, J. P. Perdew, and J. Sun.,  J. Phys. Chem. Lett. 11, 8208-8215 (2020), doi: 10.1021/acs.jpclett.0c02405
    [ 1] J. W. Furness, A. D. Kaplan, J. Ning, J. P. Perdew, and J. Sun.,  J. Phys. Chem. Lett. 11, 9248-9248 (2020), doi: 10.1021/acs.jpclett.0c03077
  Functional external parameters        .... 1
    Parameter  0 _eta       =  1.000000e-03 : Regularization parameter
 Gradients option       PostSCFGGA      .... off
 RI-approximation to the Coulomb term is turned on
   Number of AuxJ basis functions       .... 524


General Settings:
 Integral files         IntName         .... sp_gas
 Hartree-Fock type      HFTyp           .... RHF
 Total Charge           Charge          ....    0
 Multiplicity           Mult            ....    1
 Number of Electrons    NEL             ....   64
 Basis Dimension        Dim             ....  222
 Nuclear Repulsion      ENuc            ....    393.9138753784 Eh

Convergence Acceleration:
 AO-DIIS                CNVDIIS         .... on
   Start iteration      DIISMaxIt       ....    12
   Startup error        DIISStart       ....  0.200000
   # of expansion vecs  DIISMaxEq       ....     5
   Bias factor          DIISBfac        ....   1.050
   Max. coefficient     DIISMaxC        ....  10.000
 MO-DIIS                CNVKDIIS        .... off
 Trust-Rad. Augm. Hess. CNVTRAH         .... auto
   Auto Start mean grad. ratio tolernc. ....  1.125000
   Auto Start start iteration           ....     1
   Auto Start num. interpolation iter.  ....    10
   Max. Number of Micro iterations      ....    24
   Max. Number of Macro iterations      .... Maxiter - #DIIS iter
   Number of Davidson start vectors     ....     2
   Converg. threshold    (grad. norm)   ....   3.330e-04
   Grad. Scal. Fac. for Micro threshold ....   0.100
   Minimum threshold for Micro iter.    ....   1.000e-02
   NR start threshold (gradient norm)   ....   1.000e-04
   Initial trust radius                 ....   0.400
   Minimum AH scaling param. (alpha)    ....   1.000
   Maximum AH scaling param. (alpha)    .... 1000.000
   Quad. conv. algorithm                .... NR
   White noise on init. David. guess    .... on
   Maximum white noise                  ....   0.010
   Pseudo random numbers                .... off
   Inactive MOs                         .... canonical
   Orbital update algorithm             .... Taylor
   Preconditioner                       .... Diag
   Full preconditioner red. dimension   ....   250
   COSX micro iterations for RIJONX calc.... off
 SOSCF                  CNVSOSCF        .... on
   Start iteration      SOSCFMaxIt      ....   150
   Startup grad/error   SOSCFStart      ....  0.003300
   Hessian update       SOSCFHessUp     .... L-BFGS
 Level Shifting         CNVShift        .... on
   Level shift para.    LevelShift      ....    0.2500
   Turn off err/grad.   ShiftErr        ....    0.0010
 Zerner damping         CNVZerner       .... off
 Static damping         CNVDamp         .... on
   Fraction old density DampFac         ....    0.7000
   Max. Damping (<1)    DampMax         ....    0.9800
   Min. Damping (>=0)   DampMin         ....    0.0000
   Turn off err/grad.   DampErr         ....    0.1000

SCF Procedure:
 Maximum # iterations   MaxIter         ....   125
 SCF integral mode      SCFMode         .... Direct
   Integral package                     .... SHARK and LIBINT hybrid scheme
 Reset frequency        DirectResetFreq ....    20
 Integral Threshold     Thresh          ....  1.000e-10 Eh
 Primitive CutOff       TCut            ....  1.000e-11 Eh

Convergence Tolerance:
 Convergence Check Mode ConvCheckMode   .... Total+1el-Energy
 Convergence forced     ConvForced      .... 0
 Energy Change          TolE            ....  1.000e-06 Eh
 1-El. energy change                    ....  1.000e-03 Eh
 Orbital Gradient       TolG            ....  3.330e-04
 Orbital Rotation angle TolX            ....  3.330e-04
 DIIS Error             TolErr          ....  1.000e-06

---------------------
INITIAL GUESS: MOREAD
---------------------
Guess MOs are being read from file: sp_gas.ges
Input Geometry matches current geometry (good)
Atom 0: N(Shells)= 9 and 6 - projection required
Input basis set needs projection
NBasis(read)= 136
NBasis(calc)= 222
Basis set overlap was calculated
Using GuessMode=FMatrix for the initial guess
C*T matrix was formed
Effective Fockian was calculated
Effective Fockian was diagonalized
Initial density was built
                      ------------------
                      INITIAL GUESS DONE (   0.3 sec)
                      ------------------
             **** ENERGY FILE WAS UPDATED (sp_gas.en.tmp) ****
Finished Guess after   0.7 sec
Maximum memory used throughout the entire GUESS-calculation: 15.1 MB

-------------------------------------------------------------------------------------------
                                      ORCA LEAN-SCF
                              memory conserving SCF solver
-------------------------------------------------------------------------------------------

----------------------------------------D-I-I-S--------------------------------------------
Iteration    Energy (Eh)           Delta-E    RMSDP     MaxDP     DIISErr   Damp  Time(sec)
-------------------------------------------------------------------------------------------
               ***  Starting incremental Fock matrix formation  ***
    1    -386.0466594513042082     0.00e+00  3.68e-03  1.23e-01  6.26e-01  0.700   3.0
    2    -386.1047697987340825    -5.81e-02  3.00e-03  9.13e-02  4.40e-01  0.700   2.9
    3    -386.1458328080758520    -4.11e-02  2.21e-03  6.47e-02  3.08e-01  0.700   2.7
    4    -386.1746565351342042    -2.88e-02  1.58e-03  4.57e-02  2.16e-01  0.700   2.6
                               ***Turning on AO-DIIS***
    5    -386.1948716031845379    -2.02e-02  1.14e-03  3.28e-02  1.51e-01  0.700   2.6
    6    -386.2090402928309913    -1.42e-02  8.11e-04  2.31e-02  1.06e-01  0.700   2.6
    7    -386.2189717669857600    -9.93e-03  5.72e-04  1.62e-02  7.41e-02  0.700   2.7
    8    -386.2259295382673372    -6.96e-03  1.34e-03  3.77e-02  5.19e-02  0.000   2.5
                              *** Initializing SOSCF ***
---------------------------------------S-O-S-C-F--------------------------------------
Iteration    Energy (Eh)           Delta-E    RMSDP     MaxDP     MaxGrad    Time(sec)
--------------------------------------------------------------------------------------
    9    -386.2421842406801034    -1.63e-02  8.11e-06  3.45e-04  9.44e-05     2.6
               *** Restarting incremental Fock matrix formation ***
   10    -386.2421843203533172    -7.97e-08  5.09e-06  1.89e-04  3.90e-05     3.0
                  *** Gradient check signals convergence ***

               *****************************************************
               *                     SUCCESS                       *
               *           SCF CONVERGED AFTER  10 CYCLES          *
               *****************************************************

             **** ENERGY FILE WAS UPDATED (sp_gas.en.tmp) ****

----------------
TOTAL SCF ENERGY
----------------

Total Energy       :       -386.24218432035332 Eh          -10510.18416 eV

Components:
Nuclear Repulsion  :        393.91387537841240 Eh           10718.94149 eV
Electronic Energy  :       -780.15605969876572 Eh          -21229.12565 eV
One Electron Energy:      -1305.00643852138160 Eh          -35511.03054 eV
Two Electron Energy:        524.85037882261588 Eh           14281.90489 eV

Virial components:
Potential Energy   :       -770.88474114243547 Eh          -20976.84025 eV
Kinetic Energy     :        384.64255682208216 Eh           10466.65609 eV
Virial Ratio       :          2.00415873769010

DFT components:
N(Alpha)           :       32.000040646124 electrons
N(Beta)            :       32.000040646124 electrons
N(Total)           :       64.000081292247 electrons
E(X)               :      -52.078303354138 Eh       
E(C)               :       -2.037712336713 Eh       
E(XC)              :      -54.116015690851 Eh       

---------------
SCF CONVERGENCE
---------------

  Last Energy change         ...    7.9673e-08  Tolerance :   1.0000e-06
  Last MAX-Density change    ...    1.8874e-04  Tolerance :   1.0000e-05
  Last RMS-Density change    ...    5.0932e-06  Tolerance :   1.0000e-06
  Last DIIS Error            ...    9.4427e-05  Tolerance :   1.0000e-06
  Last Orbital Gradient      ...    3.9020e-05  Tolerance :   3.3300e-04
  Last Orbital Rotation      ...    1.5241e-04  Tolerance :   3.3300e-04


----------------
ORBITAL ENERGIES
----------------

  NO   OCC          E(Eh)            E(eV) 
   0   2.0000     -18.996728      -516.9273 
   1   2.0000     -18.926891      -515.0269 
   2   2.0000     -10.151801      -276.2446 
   3   2.0000     -10.089618      -274.5525 
   4   2.0000     -10.040306      -273.2106 
   5   2.0000     -10.031877      -272.9812 
   6   2.0000     -10.031744      -272.9776 
   7   2.0000     -10.018060      -272.6053 
   8   2.0000      -1.070631       -29.1333 
   9   2.0000      -0.975116       -26.5343 
  10   2.0000      -0.772236       -21.0136 
  11   2.0000      -0.741994       -20.1907 
  12   2.0000      -0.677410       -18.4333 
  13   2.0000      -0.620998       -16.8982 
  14   2.0000      -0.564397       -15.3580 
  15   2.0000      -0.524839       -14.2816 
  16   2.0000      -0.471270       -12.8239 
  17   2.0000      -0.460148       -12.5213 
  18   2.0000      -0.441731       -12.0201 
  19   2.0000      -0.420468       -11.4415 
  20   2.0000      -0.404994       -11.0204 
  21   2.0000      -0.388643       -10.5755 
  22   2.0000      -0.376005       -10.2316 
  23   2.0000      -0.368256       -10.0208 
  24   2.0000      -0.353626        -9.6226 
  25   2.0000      -0.342958        -9.3324 
  26   2.0000      -0.315736        -8.5916 
  27   2.0000      -0.309777        -8.4295 
  28   2.0000      -0.307499        -8.3675 
  29   2.0000      -0.303211        -8.2508 
  30   2.0000      -0.269862        -7.3433 
  31   2.0000      -0.236551        -6.4369 
  32   0.0000      -0.013770        -0.3747 
  33   0.0000       0.075876         2.0647 
  34   0.0000       0.091986         2.5031 
  35   0.0000       0.107793         2.9332 
  36   0.0000       0.123048         3.3483 
  37   0.0000       0.128146         3.4870 
  38   0.0000       0.134739         3.6664 
  39   0.0000       0.141640         3.8542 
  40   0.0000       0.147503         4.0138 
  41   0.0000       0.150592         4.0978 
  42   0.0000       0.164158         4.4670 
*Only the first 10 virtual orbitals were printed.

                    ********************************
                    * MULLIKEN POPULATION ANALYSIS *
                    ********************************

-----------------------
MULLIKEN ATOMIC CHARGES
-----------------------
   0 C :   -0.498796
   1 C :   -0.207395
   2 C :   -0.304131
   3 C :    0.355009
   4 O :   -0.434441
   5 O :   -0.165986
   6 C :   -0.168457
   7 C :   -0.443164
   8 H :    0.148201
   9 H :    0.144805
  10 H :    0.157678
  11 H :    0.160177
  12 H :    0.142675
  13 H :    0.167846
  14 H :    0.164306
  15 H :    0.142322
  16 H :    0.187565
  17 H :    0.151393
  18 H :    0.153595
  19 H :    0.146798
Sum of atomic charges:   -0.0000000

--------------------------------
MULLIKEN REDUCED ORBITAL CHARGES
--------------------------------
  0 C s       :     3.336301  s :     3.336301
      pz      :     1.076817  p :     3.135422
      px      :     1.103956
      py      :     0.954649
      dz2     :     0.002068  d :     0.027074
      dxz     :     0.006591
      dyz     :     0.007651
      dx2y2   :     0.007022
      dxy     :     0.003742

  1 C s       :     3.180024  s :     3.180024
      pz      :     1.048737  p :     2.990619
      px      :     0.986321
      py      :     0.955561
      dz2     :     0.003916  d :     0.036752
      dxz     :     0.008613
      dyz     :     0.009158
      dx2y2   :     0.009640
      dxy     :     0.005425

  2 C s       :     3.221777  s :     3.221777
      pz      :     0.981239  p :     3.047392
      px      :     0.953262
      py      :     1.112891
      dz2     :     0.004231  d :     0.034961
      dxz     :     0.010472
      dyz     :     0.007003
      dx2y2   :     0.009120
      dxy     :     0.004135

  3 C s       :     3.167240  s :     3.167240
      pz      :     0.754127  p :     2.352354
      px      :     0.839923
      py      :     0.758304
      dz2     :     0.026904  d :     0.125396
      dxz     :     0.045706
      dyz     :     0.020076
      dx2y2   :     0.014707
      dxy     :     0.018004

  4 O s       :     3.840485  s :     3.840485
      pz      :     1.327652  p :     4.573097
      px      :     1.802866
      py      :     1.442580
      dz2     :     0.008170  d :     0.020859
      dxz     :    -0.000229
      dyz     :     0.009391
      dx2y2   :     0.001967
      dxy     :     0.001560

  5 O s       :     3.698184  s :     3.698184
      pz      :     1.646887  p :     4.443762
      px      :     1.099184
      py      :     1.697692
      dz2     :     0.003554  d :     0.024040
      dxz     :     0.001689
      dyz     :     0.006842
      dx2y2   :     0.001923
      dxy     :     0.010032

  6 C s       :     3.289565  s :     3.289565
      pz      :     1.055872  p :     2.825790
      px      :     0.786950
      py      :     0.982968
      dz2     :     0.008777  d :     0.053101
      dxz     :     0.011491
      dyz     :     0.007574
      dx2y2   :     0.012275
      dxy     :     0.012984

  7 C s       :     3.310776  s :     3.310776
      pz      :     1.096086  p :     3.106580
      px      :     1.062753
      py      :     0.947741
      dz2     :     0.005294  d :     0.025807
      dxz     :     0.003684
      dyz     :     0.005554
      dx2y2   :     0.005840
      dxy     :     0.005437

  8 H s       :     0.833478  s :     0.833478
      pz      :     0.005611  p :     0.018321
      px      :     0.008314
      py      :     0.004397

  9 H s       :     0.836972  s :     0.836972
      pz      :     0.007935  p :     0.018222
      px      :     0.003870
      py      :     0.006418

 10 H s       :     0.824117  s :     0.824117
      pz      :     0.006370  p :     0.018205
      px      :     0.008219
      py      :     0.003617

 11 H s       :     0.821894  s :     0.821894
      pz      :     0.008410  p :     0.017929
      px      :     0.003384
      py      :     0.006135

 12 H s       :     0.839378  s :     0.839378
      pz      :     0.005763  p :     0.017947
      px      :     0.008650
      py      :     0.003534

 13 H s       :     0.813956  s :     0.813956
      pz      :     0.004590  p :     0.018198
      px      :     0.003868
      py      :     0.009740

 14 H s       :     0.817889  s :     0.817889
      pz      :     0.007973  p :     0.017805
      px      :     0.003576
      py      :     0.006257

 15 H s       :     0.840251  s :     0.840251
      pz      :     0.005079  p :     0.017428
      px      :     0.005450
      py      :     0.006899

 16 H s       :     0.794068  s :     0.794068
      pz      :     0.010905  p :     0.018367
      px      :     0.002977
      py      :     0.004484

 17 H s       :     0.830393  s :     0.830393
      pz      :     0.005526  p :     0.018213
      px      :     0.006031
      py      :     0.006656

 18 H s       :     0.828154  s :     0.828154
      pz      :     0.010204  p :     0.018252
      px      :     0.003646
      py      :     0.004401

 19 H s       :     0.834752  s :     0.834752
      pz      :     0.005041  p :     0.018450
      px      :     0.009861
      py      :     0.003549


------------------------
MULLIKEN OVERLAP CHARGES
------------------------
B(  0-C ,  1-C ) :   0.4454 B(  0-C ,  2-C ) :  -0.2000 B(  0-C ,  8-H ) :   0.7870 
B(  0-C ,  9-H ) :   0.8548 B(  0-C , 10-H ) :   0.8450 B(  0-C , 12-H ) :  -0.0510 
B(  1-C ,  2-C ) :   0.3759 B(  1-C ,  3-C ) :  -0.0837 B(  1-C ,  8-H ) :  -0.0660 
B(  1-C ,  9-H ) :  -0.1010 B(  1-C , 10-H ) :  -0.0874 B(  1-C , 11-H ) :   0.8259 
B(  1-C , 12-H ) :   0.8243 B(  1-C , 13-H ) :  -0.0586 B(  1-C , 14-H ) :  -0.0917 
B(  2-C ,  3-C ) :   0.2953 B(  2-C ,  4-O ) :  -0.1647 B(  2-C ,  5-O ) :  -0.1072 
B(  2-C , 10-H ) :  -0.0509 B(  2-C , 12-H ) :  -0.1112 B(  2-C , 13-H ) :   0.7553 
B(  2-C , 14-H ) :   0.9022 B(  3-C ,  4-O ) :   0.9624 B(  3-C ,  5-O ) :   0.3678 
B(  3-C ,  6-C ) :  -0.2566 B(  3-C , 10-H ) :   0.0566 B(  3-C , 14-H ) :  -0.1558 
B(  3-C , 16-H ) :  -0.0566 B(  4-O ,  5-O ) :  -0.2100 B(  5-O ,  6-C ) :   0.2574 
B(  5-O ,  7-C ) :  -0.0738 B(  5-O , 15-H ) :  -0.0826 B(  5-O , 16-H ) :  -0.0682 
B(  6-C ,  7-C ) :   0.5095 B(  6-C , 15-H ) :   0.7684 B(  6-C , 16-H ) :   0.8708 
B(  6-C , 17-H ) :  -0.0757 B(  6-C , 18-H ) :  -0.0514 B(  6-C , 19-H ) :  -0.0814 
B(  7-C , 15-H ) :  -0.0521 B(  7-C , 16-H ) :  -0.0625 B(  7-C , 17-H ) :   0.8271 
B(  7-C , 18-H ) :   0.8247 B(  7-C , 19-H ) :   0.8210 B(  9-H , 10-H ) :  -0.0506 



                     *******************************
                     * LOEWDIN POPULATION ANALYSIS *
                     *******************************

----------------------
LOEWDIN ATOMIC CHARGES
----------------------
   0 C :   -0.417291
   1 C :   -0.295562
   2 C :   -0.232079
   3 C :    0.359259
   4 O :   -0.446671
   5 O :   -0.596652
   6 C :    0.029745
   7 C :   -0.387126
   8 H :    0.152884
   9 H :    0.149668
  10 H :    0.156526
  11 H :    0.168693
  12 H :    0.152554
  13 H :    0.182500
  14 H :    0.177784
  15 H :    0.174968
  16 H :    0.195544
  17 H :    0.158195
  18 H :    0.158092
  19 H :    0.158970

-------------------------------
LOEWDIN REDUCED ORBITAL CHARGES
-------------------------------
  0 C s       :     2.970671  s :     2.970671
      pz      :     1.148080  p :     3.383444
      px      :     1.155009
      py      :     1.080354
      dz2     :     0.004657  d :     0.063177
      dxz     :     0.016408
      dyz     :     0.017669
      dx2y2   :     0.016851
      dxy     :     0.007591

  1 C s       :     2.934559  s :     2.934559
      pz      :     1.120862  p :     3.281440
      px      :     1.077296
      py      :     1.083283
      dz2     :     0.007921  d :     0.079563
      dxz     :     0.020048
      dyz     :     0.019911
      dx2y2   :     0.021518
      dxy     :     0.010165

  2 C s       :     2.922928  s :     2.922928
      pz      :     1.079414  p :     3.235099
      px      :     1.028503
      py      :     1.127182
      dz2     :     0.008243  d :     0.074052
      dxz     :     0.021857
      dyz     :     0.016856
      dx2y2   :     0.019116
      dxy     :     0.007981

  3 C s       :     2.737020  s :     2.737020
      pz      :     0.954166  p :     2.630812
      px      :     0.919517
      py      :     0.757130
      dz2     :     0.058965  d :     0.272909
      dxz     :     0.101035
      dyz     :     0.044852
      dx2y2   :     0.030308
      dxy     :     0.037750

  4 O s       :     3.548723  s :     3.548723
      pz      :     1.477572  p :     4.673364
      px      :     1.739554
      py      :     1.456238
      dz2     :     0.068486  d :     0.224584
      dxz     :     0.059231
      dyz     :     0.053315
      dx2y2   :     0.025430
      dxy     :     0.018123

  5 O s       :     3.464188  s :     3.464188
      pz      :     1.653889  p :     4.658205
      px      :     1.329112
      py      :     1.675205
      dz2     :     0.085135  d :     0.474259
      dxz     :     0.122379
      dyz     :     0.043534
      dx2y2   :     0.110849
      dxy     :     0.112361

  6 C s       :     2.869017  s :     2.869017
      pz      :     1.059518  p :     2.981972
      px      :     0.864699
      py      :     1.057755
      dz2     :     0.021974  d :     0.119267
      dxz     :     0.026645
      dyz     :     0.014768
      dx2y2   :     0.026099
      dxy     :     0.029781

  7 C s       :     2.974366  s :     2.974366
      pz      :     1.154950  p :     3.351845
      px      :     1.126056
      py      :     1.070839
      dz2     :     0.012985  d :     0.060915
      dxz     :     0.009252
      dyz     :     0.012663
      dx2y2   :     0.014038
      dxy     :     0.011979

  8 H s       :     0.803629  s :     0.803629
      pz      :     0.013108  p :     0.043486
      px      :     0.020457
      py      :     0.009922

  9 H s       :     0.806958  s :     0.806958
      pz      :     0.019584  p :     0.043374
      px      :     0.008574
      py      :     0.015217

 10 H s       :     0.799617  s :     0.799617
      pz      :     0.015289  p :     0.043856
      px      :     0.020430
      py      :     0.008137

 11 H s       :     0.787272  s :     0.787272
      pz      :     0.021180  p :     0.044035
      px      :     0.007707
      py      :     0.015149

 12 H s       :     0.804142  s :     0.804142
      pz      :     0.014206  p :     0.043304
      px      :     0.020837
      py      :     0.008262

 13 H s       :     0.773108  s :     0.773108
      pz      :     0.010556  p :     0.044392
      px      :     0.009360
      py      :     0.024475

 14 H s       :     0.778180  s :     0.778180
      pz      :     0.019904  p :     0.044036
      px      :     0.008499
      py      :     0.015633

 15 H s       :     0.784759  s :     0.784759
      pz      :     0.012718  p :     0.040273
      px      :     0.011352
      py      :     0.016204

 16 H s       :     0.759189  s :     0.759189
      pz      :     0.026831  p :     0.045267
      px      :     0.007787
      py      :     0.010649

 17 H s       :     0.798447  s :     0.798447
      pz      :     0.012985  p :     0.043358
      px      :     0.014618
      py      :     0.015754

 18 H s       :     0.798456  s :     0.798456
      pz      :     0.025708  p :     0.043452
      px      :     0.007838
      py      :     0.009905

 19 H s       :     0.797137  s :     0.797137
      pz      :     0.011623  p :     0.043893
      px      :     0.024309
      py      :     0.007961


---------------------------------
LOEWDIN BOND ORDERS (THRESH 0.050000)
---------------------------------
B(  0-C ,  1-C ) :   1.1412 B(  0-C ,  2-C ) :   0.0671 B(  0-C ,  8-H ) :   0.9296 
B(  0-C ,  9-H ) :   0.9298 B(  0-C , 10-H ) :   0.9210 B(  1-C ,  2-C ) :   1.0886 
B(  1-C ,  3-C ) :   0.0690 B(  1-C , 11-H ) :   0.8851 B(  1-C , 12-H ) :   0.8943 
B(  2-C ,  3-C ) :   0.9201 B(  2-C ,  4-O ) :   0.1790 B(  2-C ,  5-O ) :   0.1883 
B(  2-C , 13-H ) :   0.8622 B(  2-C , 14-H ) :   0.8638 B(  3-C ,  4-O ) :   2.1645 
B(  3-C ,  5-O ) :   1.4560 B(  3-C ,  6-C ) :   0.0846 B(  4-O ,  5-O ) :   0.4601 
B(  4-O ,  6-C ) :   0.0733 B(  5-O ,  6-C ) :   1.2934 B(  5-O ,  7-C ) :   0.1669 
B(  5-O , 15-H ) :   0.0956 B(  5-O , 16-H ) :   0.0889 B(  6-C ,  7-C ) :   1.0889 
B(  6-C , 15-H ) :   0.8335 B(  6-C , 16-H ) :   0.8101 B(  7-C , 17-H ) :   0.9249 
B(  7-C , 18-H ) :   0.9230 B(  7-C , 19-H ) :   0.9194 

------------------------------------------
LOEWDIN REDUCED ORBITAL POPULATIONS PER MO
-------------------------------------------
THRESHOLD FOR PRINTING IS 0.1%%
                      0         1         2         3         4         5   
                 -18.99673 -18.92689 -10.15180 -10.08962 -10.04031 -10.03188
                   2.00000   2.00000   2.00000   2.00000   2.00000   2.00000
                  --------  --------  --------  --------  --------  --------
 1 C  s               0.0       0.0       0.0       0.0       0.0      99.7
 2 C  s               0.0       0.0       0.0       0.0      99.7       0.0
 3 C  s               0.0       0.0      98.9       0.0       0.0       0.0
 4 O  s               0.0      99.9       0.0       0.0       0.0       0.0
 4 O  pz              0.0       0.0       0.2       0.0       0.0       0.0
 4 O  dz2             0.0       0.0       0.2       0.0       0.0       0.0
 4 O  dyz             0.0       0.0       0.1       0.0       0.0       0.0
 5 O  s              99.9       0.0       0.0       0.0       0.0       0.0
 5 O  dxz             0.0       0.0       0.1       0.1       0.0       0.0
 5 O  dx2y2           0.0       0.0       0.1       0.1       0.0       0.0
 6 C  s               0.0       0.0       0.0      99.4       0.0       0.0

                      6         7         8         9        10        11   
                 -10.03174 -10.01806  -1.07063  -0.97512  -0.77224  -0.74199
                   2.00000   2.00000   2.00000   2.00000   2.00000   2.00000
                  --------  --------  --------  --------  --------  --------
 0 C  s               0.0      99.7       0.0       0.0       7.9       5.7
 0 C  pz              0.0       0.0       0.0       0.0       0.3       0.1
 0 C  py              0.0       0.0       0.0       0.0       1.9       0.8
 1 C  s               0.0       0.0       0.1       0.1      17.8       8.1
 1 C  pz              0.0       0.0       0.0       0.0       0.3       0.0
 1 C  px              0.0       0.0       0.2       0.1       1.6       0.1
 1 C  py              0.0       0.1       0.0       0.0       0.1       0.3
 2 C  s               0.0       0.0       1.0       0.3      19.9       1.7
 2 C  pz              0.0       0.0       0.5       0.5       0.7       0.3
 2 C  px              0.0       0.0       1.5       0.0       0.3       2.2
 2 C  py              0.0       0.0       0.0       0.1       0.3       0.1
 3 C  s               0.0       0.0      16.2       4.2       2.7       0.8
 3 C  pz              0.0       0.0       0.1      16.1       5.0       0.8
 3 C  px              0.0       0.0       4.8       2.5       4.2       1.3
 3 C  py              0.0       0.0       0.1       4.5       0.6       0.3
 3 C  dz2             0.0       0.0       0.1       1.1       0.0       0.0
 3 C  dxz             0.0       0.0       0.2       0.2       0.0       0.1
 3 C  dyz             0.0       0.0       0.4       0.4       0.0       0.0
 3 C  dx2y2           0.0       0.0       0.1       0.2       0.1       0.0
 3 C  dxy             0.0       0.0       0.2       0.1       0.0       0.0
 4 O  s               0.0       0.0      11.6      42.6       1.7       0.1
 4 O  pz              0.0       0.0       2.5       3.1       0.3       0.1
 4 O  px              0.0       0.0       0.0       0.0       0.1       0.0
 4 O  py              0.0       0.0       0.6       0.6       0.0       0.0
 4 O  dz2             0.0       0.0       0.5       0.1       0.2       0.1
 4 O  dxz             0.0       0.0       0.2       0.2       0.2       0.0
 4 O  dyz             0.0       0.0       0.6       0.0       0.1       0.0
 5 O  s               0.0       0.0      42.4      15.7       0.0       1.0
 5 O  pz              0.0       0.0       1.9       0.3       0.2       0.2
 5 O  px              0.0       0.0       0.3       0.7       5.8       8.9
 5 O  py              0.0       0.0       0.5       0.1       0.1       0.5
 5 O  dz2             0.0       0.0       0.0       0.1       0.1       0.1
 5 O  dxz             0.0       0.0       0.1       0.8       0.2       1.0
 5 O  dyz             0.0       0.0       0.2       0.3       0.0       0.0
 5 O  dx2y2           0.0       0.0       0.3       0.0       0.0       0.5
 5 O  dxy             0.0       0.0       0.2       0.2       0.0       0.0
 6 C  s               0.0       0.0       4.4       1.9       4.9      16.8
 6 C  pz              0.0       0.0       0.7       0.6       0.0       0.0
 6 C  px              0.0       0.0       4.8       1.0       0.1       1.3
 6 C  py              0.1       0.0       0.0       0.1       0.3       2.1
 6 C  dxz             0.0       0.0       0.2       0.1       0.0       0.0
 6 C  dx2y2           0.0       0.0       0.2       0.1       0.0       0.1
 7 C  s              99.7       0.0       0.3       0.2       3.1      19.9
 7 C  px              0.0       0.0       0.3       0.1       0.1       0.2
 7 C  py              0.0       0.0       0.4       0.2       0.5       1.6
 8 H  s               0.0       0.0       0.0       0.0       1.0       0.9
 9 H  s               0.0       0.0       0.0       0.0       1.0       0.8
10 H  s               0.0       0.0       0.0       0.0       1.1       0.8
11 H  s               0.0       0.0       0.0       0.0       2.2       1.2
11 H  pz              0.0       0.0       0.0       0.0       0.1       0.1
12 H  s               0.0       0.0       0.0       0.0       2.4       1.2
12 H  px              0.0       0.0       0.0       0.0       0.1       0.1
13 H  s               0.0       0.0       0.0       0.0       2.8       0.3
13 H  py              0.0       0.0       0.0       0.0       0.2       0.0
14 H  s               0.0       0.0       0.1       0.0       3.0       0.1
14 H  pz              0.0       0.0       0.0       0.0       0.2       0.0
14 H  py              0.0       0.0       0.0       0.0       0.1       0.0
15 H  s               0.0       0.0       0.3       0.1       0.8       2.9
15 H  py              0.0       0.0       0.0       0.0       0.0       0.1
16 H  s               0.0       0.0       0.4       0.1       0.7       2.5
16 H  pz              0.0       0.0       0.0       0.0       0.1       0.2
17 H  s               0.0       0.0       0.0       0.0       0.4       3.1
17 H  py              0.0       0.0       0.0       0.0       0.0       0.1
18 H  s               0.0       0.0       0.0       0.0       0.4       3.2
18 H  pz              0.0       0.0       0.0       0.0       0.0       0.2
19 H  s               0.0       0.0       0.0       0.0       0.4       3.3
19 H  px              0.0       0.0       0.0       0.0       0.0       0.2

                     12        13        14        15        16        17   
                  -0.67741  -0.62100  -0.56440  -0.52484  -0.47127  -0.46015
                   2.00000   2.00000   2.00000   2.00000   2.00000   2.00000
                  --------  --------  --------  --------  --------  --------
 0 C  s              19.6       6.5       7.1       0.6       0.1       0.1
 0 C  pz              0.0       0.2       0.4       0.0       2.0       0.0
 0 C  px              0.1       0.0       0.7       0.2       0.1       2.4
 0 C  py              0.1       0.9       6.1       1.3       1.3       0.3
 1 C  s               2.9       1.6      13.0       2.0       0.2       0.1
 1 C  pz              2.1       1.1       0.0       0.3      10.2       0.3
 1 C  px              1.6       0.1       3.2       1.3       0.2       4.1
 1 C  py              5.4       3.3       3.3       0.1       0.6       0.0
 1 C  dx2y2           0.2       0.1       0.0       0.0       0.0       0.0
 2 C  s              11.7       3.3       2.0       1.7       2.0       0.1
 2 C  pz              0.3       0.0       0.8       1.2      17.4       3.3
 2 C  px              2.1       2.5       6.7       0.0       4.2       0.0
 2 C  py              0.7       0.3       0.2       0.1       0.7       2.8
 2 C  dxz             0.1       0.0       0.2       0.0       0.1       0.0
 2 C  dx2y2           0.0       0.0       0.0       0.1       0.1       0.0
 3 C  s               2.6       1.6       0.9       2.1       2.3       0.2
 3 C  pz              3.3       0.8       1.0       0.6       0.3       2.6
 3 C  px              3.2       1.5       2.3       3.4       8.6       1.9
 3 C  py              0.1       0.9       0.1       0.5       0.2       7.8
 3 C  dxz             0.1       0.1       0.1       0.0       0.0       0.1
 4 O  s               0.7       0.2       0.3       1.8       2.2       1.4
 4 O  pz              0.4       0.2       0.3       1.1       4.3       0.2
 4 O  px              0.2       0.1       0.1       1.5       6.3       0.3
 4 O  py              0.0       0.1       0.0       0.6       0.2       5.9
 4 O  dz2             0.3       0.1       0.1       0.0       0.2       0.3
 4 O  dxz             0.2       0.0       0.1       0.2       0.6       0.1
 4 O  dyz             0.1       0.1       0.0       0.1       0.1       0.5
 4 O  dx2y2           0.0       0.1       0.0       0.0       0.0       0.0
 4 O  dxy             0.0       0.0       0.0       0.1       0.3       0.0
 5 O  s               0.9       0.0       1.4       4.1       0.2       0.4
 5 O  pz              0.1       0.0       0.1       5.9       3.8      10.2
 5 O  px              2.3      16.7       0.2      12.6       0.5       0.3
 5 O  py              0.0       0.1       0.3       5.3       0.1      12.5
 5 O  dz2             0.4       0.0       0.2       0.1       0.8       0.4
 5 O  dxz             0.0       0.5       0.3       0.2       0.5       0.0
 5 O  dyz             0.0       0.0       0.0       0.1       0.0       0.2
 5 O  dx2y2           0.5       0.2       1.0       0.2       0.3       0.0
 5 O  dxy             0.3       0.4       0.0       0.1       0.1       0.0
 6 C  s               0.3       4.7       4.5       4.4       0.1       0.1
 6 C  pz              0.2       0.5       0.3      10.5       5.6       6.3
 6 C  px              1.7       1.6       0.8       5.1       1.4       6.2
 6 C  py              1.3       4.7       2.3       4.1       0.0       5.3
 6 C  dxz             0.0       0.1       0.0       0.4       0.0       0.0
 6 C  dx2y2           0.1       0.1       0.0       0.1       0.0       0.0
 7 C  s               7.4      14.0       2.1       0.4       0.0       0.1
 7 C  pz              0.0       0.0       0.0       1.7       1.7       1.8
 7 C  px              0.1       0.7       0.1       0.4       0.1       6.5
 7 C  py              0.0       2.6       2.7       2.9       0.6       0.1
 8 H  s               4.3       2.0       2.7       0.2       0.0       0.7
 8 H  px              0.2       0.1       0.2       0.0       0.0       0.0
 9 H  s               3.9       1.8       3.5       0.6       1.1       0.1
 9 H  pz              0.2       0.1       0.2       0.0       0.0       0.0
 9 H  py              0.1       0.0       0.0       0.0       0.0       0.0
10 H  s               3.8       1.9       3.5       0.4       0.2       0.3
10 H  pz              0.1       0.1       0.1       0.0       0.0       0.0
10 H  px              0.2       0.1       0.2       0.0       0.0       0.0
11 H  s               0.5       0.5       5.5       1.2       3.0       0.0
11 H  pz              0.0       0.0       0.3       0.1       0.1       0.0
11 H  py              0.0       0.0       0.1       0.0       0.1       0.0
12 H  s               0.7       0.6       6.5       1.2       0.7       1.4
12 H  pz              0.0       0.0       0.2       0.0       0.0       0.0
12 H  px              0.0       0.0       0.3       0.0       0.0       0.0
13 H  s               3.1       1.4       0.8       1.3       2.2       1.3
13 H  py              0.2       0.1       0.0       0.1       0.2       0.0
14 H  s               2.6       0.5       1.3       1.2       6.8       0.0
14 H  pz              0.1       0.0       0.1       0.0       0.1       0.0
14 H  px              0.0       0.0       0.0       0.0       0.1       0.0
14 H  py              0.1       0.0       0.1       0.0       0.2       0.0
15 H  s               0.0       2.0       2.9       3.1       1.7       5.2
15 H  pz              0.0       0.0       0.1       0.2       0.0       0.0
15 H  px              0.0       0.1       0.0       0.0       0.0       0.1
16 H  s               0.0       1.2       2.2       8.2       1.5       1.1
16 H  pz              0.0       0.1       0.2       0.4       0.0       0.0
17 H  s               1.6       4.3       1.2       0.5       0.7       0.9
17 H  px              0.0       0.1       0.0       0.0       0.0       0.0
17 H  py              0.1       0.1       0.0       0.0       0.0       0.1
18 H  s               1.5       4.0       1.1       1.3       0.2       1.1
18 H  pz              0.1       0.3       0.1       0.1       0.0       0.0
19 H  s               1.9       4.8       0.7       0.0       0.1       1.4
19 H  px              0.1       0.3       0.0       0.0       0.0       0.0

                     18        19        20        21        22        23   
                  -0.44173  -0.42047  -0.40499  -0.38864  -0.37601  -0.36826
                   2.00000   2.00000   2.00000   2.00000   2.00000   2.00000
                  --------  --------  --------  --------  --------  --------
 0 C  s               0.3       0.1       0.0       0.0       0.0       0.0
 0 C  pz              1.7       8.6       2.1       9.7       1.4       8.9
 0 C  px              1.1       0.9      16.1       0.1       1.0       7.7
 0 C  py              1.4       0.0       1.2       0.5       5.1       4.1
 0 C  dyz             0.0       0.0       0.0       0.0       0.0       0.1
 1 C  s               0.1       0.1       0.0       0.1       0.0       0.0
 1 C  pz              0.3       7.5       2.3       0.7       2.8       2.4
 1 C  px              0.7       0.8      15.3       0.0       0.1       0.9
 1 C  py              1.8       2.8       0.7       3.9       2.4       1.7
 2 C  s               0.1       0.0       0.2       0.2       0.0       0.2
 2 C  pz              0.0       0.1       0.8       2.6       1.3       6.1
 2 C  px              0.6       0.9       2.4       2.5       4.0       2.1
 2 C  py             17.5       6.5       0.5       2.0       3.4       4.5
 2 C  dz2             0.0       0.0       0.0       0.0       0.0       0.1
 2 C  dxz             0.0       0.0       0.2       0.0       0.0       0.0
 2 C  dyz             0.0       0.0       0.0       0.0       0.1       0.1
 2 C  dxy             0.0       0.0       0.0       0.1       0.0       0.0
 3 C  s               0.6       1.3       0.9       0.1       0.1       0.0
 3 C  pz              0.6       4.0       0.4       1.9       1.0       2.1
 3 C  px              0.2       0.3       1.0       3.1       0.1       0.2
 3 C  py              7.0       0.3       0.0       3.9       0.3       0.6
 3 C  dz2             0.1       0.0       0.0       0.0       0.0       0.1
 3 C  dx2y2           0.1       0.0       0.1       0.0       0.0       0.0
 3 C  dxy             0.0       0.1       0.0       0.1       0.1       0.0
 4 O  s               5.8       6.1       0.3       0.0       0.1       0.6
 4 O  pz             14.4      16.8       2.6       0.3       0.2       2.1
 4 O  px              0.3       0.3       0.7       1.5       1.1       0.0
 4 O  py              0.0       5.0       0.2       5.0       1.1       3.9
 4 O  dz2             0.3       0.1       0.1       0.2       0.0       0.1
 4 O  dyz             0.1       0.2       0.0       0.1       0.0       0.0
 4 O  dx2y2           0.1       0.1       0.1       0.1       0.0       0.0
 5 O  s               0.6       0.6       0.1       0.4       1.7       0.1
 5 O  pz              6.1       2.1       0.3       5.8       0.5       0.0
 5 O  px              3.7       1.3       0.8       2.2       0.1       2.7
 5 O  py              4.7       1.7       7.6       3.0       3.2       0.2
 5 O  dz2             0.1       0.1       0.1       0.0       0.2       0.1
 5 O  dxz             0.0       0.7       0.0       0.3       0.2       0.0
 5 O  dyz             0.0       0.1       0.1       0.0       0.0       0.0
 5 O  dx2y2           0.6       0.0       0.2       0.1       0.1       0.1
 5 O  dxy             0.4       0.0       0.7       0.0       0.1       0.4
 6 C  s               0.3       0.1       0.4       0.0       0.1       0.1
 6 C  pz              0.8       5.0       0.0       1.9       0.1       0.1
 6 C  px              6.2       0.2       0.8       1.4       1.1       0.6
 6 C  py              0.1       1.0       6.8       0.8       1.4       0.5
 6 C  dxz             0.0       0.0       0.0       0.1       0.1       0.1
 6 C  dx2y2           0.0       0.0       0.1       0.0       0.1       0.1
 7 C  s               0.1       0.0       0.2       0.0       0.0       0.0
 7 C  pz              0.7       4.9       0.4      17.5       9.1       5.1
 7 C  px              0.4       1.4       5.9       0.4      15.8       9.1
 7 C  py              3.5       0.4       5.0       3.1       7.7       0.0
 7 C  dz2             0.0       0.0       0.0       0.0       0.1       0.0
 7 C  dxz             0.0       0.0       0.0       0.0       0.2       0.1
 7 C  dx2y2           0.0       0.0       0.1       0.0       0.1       0.1
 8 H  s               1.8       2.1       3.1       1.2       0.2       4.5
 8 H  pz              0.0       0.0       0.1       0.0       0.0       0.0
 8 H  py              0.0       0.0       0.0       0.0       0.1       0.1
 9 H  s               0.0       1.7       0.6       1.4       3.0       7.7
 9 H  pz              0.0       0.0       0.0       0.0       0.1       0.1
 9 H  px              0.0       0.0       0.1       0.0       0.0       0.0
10 H  s               0.1       0.5       5.7       2.4       0.1       0.2
10 H  pz              0.0       0.0       0.1       0.0       0.0       0.1
11 H  s               0.3       3.6       0.6       0.9       0.2       0.1
11 H  px              0.0       0.0       0.1       0.0       0.0       0.0
12 H  s               0.0       0.2       6.3       0.2       0.2       0.1
13 H  s               6.4       2.1       0.0       3.4       1.2       0.5
13 H  py              0.1       0.0       0.0       0.1       0.0       0.0
14 H  s               2.4       0.4       0.0       0.1       2.9       7.6
14 H  pz              0.1       0.0       0.0       0.0       0.1       0.1
15 H  s               2.1       1.0       0.1       0.4       0.3       0.0
16 H  s               0.1       1.8       0.1       0.9       0.3       0.1
17 H  s               1.8       0.5       0.2       6.0       3.5       0.2
17 H  pz              0.0       0.0       0.0       0.0       0.2       0.1
17 H  px              0.0       0.0       0.1       0.1       0.0       0.0
18 H  s               0.0       2.4       0.2       4.8       6.3       1.8
18 H  pz              0.0       0.1       0.0       0.0       0.1       0.0
18 H  px              0.0       0.0       0.0       0.0       0.1       0.1
18 H  py              0.0       0.0       0.0       0.1       0.0       0.0
19 H  s               0.0       0.0       3.3       0.7      12.2       7.4
19 H  px              0.0       0.0       0.1       0.1       0.2       0.1

                     24        25        26        27        28        29   
                  -0.35363  -0.34296  -0.31574  -0.30978  -0.30750  -0.30321
                   2.00000   2.00000   2.00000   2.00000   2.00000   2.00000
                  --------  --------  --------  --------  --------  --------
 0 C  s               0.0       0.1       0.1       0.4       0.1       0.1
 0 C  pz              1.4       2.4       0.3       5.8      11.6       0.4
 0 C  px              8.8       0.8      13.0       1.4       0.0       3.2
 0 C  py              4.0       4.3       0.7      14.7       4.3       0.7
 0 C  dxz             0.1       0.0       0.3       0.1       0.1       0.1
 0 C  dyz             0.0       0.0       0.0       0.0       0.6       0.0
 0 C  dx2y2           0.0       0.1       0.0       0.2       0.1       0.0
 0 C  dxy             0.0       0.0       0.1       0.1       0.0       0.0
 1 C  s               0.1       0.1       0.2       0.0       0.1       0.1
 1 C  pz              0.4       1.5       0.1       2.9      20.5       0.3
 1 C  px              0.3       1.0      13.4       1.5       0.1       7.1
 1 C  py              0.6       4.8       0.9      14.7       5.9       0.3
 1 C  dxz             0.0       0.0       0.3       0.1       0.1       0.2
 1 C  dyz             0.0       0.0       0.1       0.1       0.7       0.0
 1 C  dx2y2           0.0       0.1       0.1       0.3       0.2       0.1
 1 C  dxy             0.1       0.0       0.2       0.0       0.0       0.0
 2 C  s               0.2       0.1       0.6       0.3       0.1       0.0
 2 C  pz              4.2       0.4       2.2       3.0       4.3       0.1
 2 C  px              0.6       1.4       5.0       1.5       1.7       5.6
 2 C  py              0.2       0.0       0.1      15.3       0.5       0.3
 2 C  dz2             0.0       0.0       0.0       0.0       0.1       0.0
 2 C  dyz             0.0       0.0       0.1       0.2       0.1       0.0
 2 C  dx2y2           0.0       0.0       0.0       0.3       0.1       0.0
 3 C  s               0.1       0.0       0.1       0.0       0.1       0.6
 3 C  pz              1.0       2.1       0.2       0.2       0.4       2.6
 3 C  px              3.5       0.0       1.7       0.0       0.6       0.3
 3 C  py              5.5       2.6       0.5       1.1       0.0       0.5
 3 C  dz2             0.0       0.3       0.1       0.1       0.0       0.2
 3 C  dxz             0.0       0.1       0.0       0.0       0.0       0.1
 3 C  dyz             0.2       0.0       0.0       0.2       0.0       0.1
 3 C  dx2y2           0.1       0.0       0.1       0.0       0.0       0.1
 3 C  dxy             0.0       0.0       0.0       0.1       0.0       0.0
 4 O  s               0.7       0.3       0.2       0.0       0.1       0.6
 4 O  pz             10.2       0.3       1.4       1.2       0.3       5.1
 4 O  px              1.8       0.5       0.8       0.1       0.3       0.4
 4 O  py              2.4       9.4       0.0       5.9       0.5       0.6
 4 O  dz2             0.1       0.1       0.0       0.0       0.1       0.2
 4 O  dxz             0.2       0.0       0.0       0.0       0.1       0.1
 4 O  dyz             0.2       0.1       0.0       0.0       0.0       0.1
 4 O  dx2y2           0.0       0.1       0.0       0.1       0.1       0.2
 5 O  s               0.1       0.3       0.2       0.0       0.1       2.7
 5 O  pz              4.0       5.6       2.7       0.2       0.1      21.3
 5 O  px              0.4       1.0       0.4       0.1       0.1       1.8
 5 O  py              0.3       0.2       1.8       1.9       0.0       4.3
 5 O  dz2             0.0       0.0       0.2       0.0       0.0       1.0
 5 O  dxz             0.0       0.3       0.3       0.1       0.1       0.0
 5 O  dyz             0.0       0.0       0.1       0.1       0.0       0.3
 5 O  dx2y2           0.2       0.0       0.0       0.0       0.0       0.8
 5 O  dxy             1.0       0.9       0.0       0.1       0.0       0.1
 6 C  s               0.1       0.2       0.1       0.0       0.0       0.3
 6 C  pz              0.3       1.7       6.3       0.5       0.3       9.1
 6 C  px              2.5       3.1       1.9       0.2       0.0       0.4
 6 C  py              9.8       5.3       1.0       1.0       0.0       1.2
 6 C  dz2             0.0       0.0       0.2       0.0       0.0       0.5
 6 C  dyz             0.0       0.1       0.2       0.0       0.0       0.2
 6 C  dx2y2           0.1       0.1       0.0       0.0       0.0       0.0
 6 C  dxy             0.1       0.3       0.0       0.1       0.0       0.0
 7 C  s               0.2       0.1       0.1       0.1       0.0       0.2
 7 C  pz              2.3       5.6       3.4       0.3       0.1       2.5
 7 C  px              4.7       7.0       2.5       0.0       0.0       0.1
 7 C  py              9.1       7.0       0.9       0.9       0.0       1.0
 7 C  dyz             0.0       0.2       0.2       0.0       0.0       0.1
 7 C  dxy             0.0       0.2       0.0       0.0       0.0       0.0
 8 H  s               3.0       0.2       4.3       6.4       0.9       0.8
 8 H  pz              0.1       0.0       0.1       0.0       0.0       0.0
 8 H  px              0.0       0.0       0.0       0.1       0.0       0.0
 9 H  s               1.3       0.0       0.2       0.0      11.7       0.0
 9 H  px              0.1       0.0       0.1       0.0       0.0       0.0
 9 H  py              0.0       0.0       0.0       0.2       0.0       0.0
10 H  s               4.2       1.9       6.9       0.0       3.5       2.4
10 H  py              0.0       0.0       0.0       0.2       0.0       0.0
11 H  s               0.0       0.1       0.4       0.5      18.7       0.0
11 H  pz              0.0       0.0       0.0       0.1       0.1       0.0
11 H  px              0.0       0.0       0.1       0.0       0.0       0.1
12 H  s               0.1       1.4       7.6       0.0       4.3       4.8
12 H  px              0.0       0.0       0.0       0.0       0.1       0.0
12 H  py              0.0       0.0       0.0       0.1       0.1       0.0
13 H  s               0.0       0.0       0.3      10.6       0.0       0.7
14 H  s               1.3       0.1       1.0       1.2       4.9       0.2
14 H  pz              0.0       0.0       0.0       0.1       0.0       0.0
15 H  s               0.3       7.6       1.7       1.3       0.0       0.3
16 H  s               1.4       0.3       6.0       0.1       0.2       8.3
17 H  s               0.0      12.0       1.6       0.5       0.0       0.2
18 H  s               3.5       1.6       3.2       0.1       0.1       2.7
18 H  py              0.0       0.1       0.0       0.0       0.0       0.0
19 H  s               0.9       1.3       0.2       0.0       0.0       0.3
19 H  pz              0.1       0.1       0.0       0.0       0.0       0.0

                     30        31        32        33        34        35   
                  -0.26986  -0.23655  -0.01377   0.07588   0.09199   0.10779
                   2.00000   2.00000   0.00000   0.00000   0.00000   0.00000
                  --------  --------  --------  --------  --------  --------
 0 C  s               0.0       0.0       0.2       9.0       2.4       4.0
 0 C  pz              0.0       0.0       0.3       0.5       0.0       0.3
 0 C  px              0.0       0.0       0.1       1.2       0.0       2.8
 0 C  py              0.0       0.1       0.1       0.6       0.2       2.8
 0 C  dz2             0.0       0.0       0.0       0.0       0.0       0.1
 0 C  dyz             0.0       0.0       0.0       0.0       0.0       0.2
 0 C  dx2y2           0.0       0.0       0.0       0.2       0.0       0.2
 0 C  dxy             0.0       0.0       0.0       0.1       0.0       0.1
 1 C  s               0.0       0.1       1.2       2.9       1.1      10.3
 1 C  pz              0.0       0.0       0.8       0.2       0.4       0.4
 1 C  px              0.0       0.3       1.0       0.8       1.4       4.2
 1 C  py              0.0       0.2       0.2       0.0       0.7       0.3
 1 C  dyz             0.0       0.0       0.0       0.1       0.0       0.0
 1 C  dx2y2           0.0       0.0       0.0       0.0       0.2       0.1
[...]
 3 C  px              0.5       0.6       4.8       0.0       0.0       0.0
 3 C  py              0.2       0.3       1.1       1.2       0.0       0.0
 3 C  dz2             1.2       0.1       0.7       3.7       0.0       0.0
 3 C  dxz             8.8       0.8       6.8       0.0       0.0       0.0
 3 C  dyz             0.9       0.1       0.7       2.8       0.0       0.0
 3 C  dx2y2           3.3       0.2       1.3       0.1       0.0       0.0
 3 C  dxy             0.4       0.4       3.3       0.0       0.0       0.0
 4 O  s               3.2       1.0       0.3      19.2       0.0       0.0
 4 O  pz              0.2       0.7       0.2      17.9       0.0       0.0
 4 O  px             10.1       0.1       0.3       0.0       0.0       0.0
 4 O  py              0.7       0.2       0.0       3.9       0.0       0.0
 4 O  dz2             1.2       1.0       0.0      18.7       0.0       0.0
 4 O  dxz            15.2       0.1       1.7       0.0       0.0       0.0
 4 O  dyz             0.4       0.8       0.0      14.0       0.0       0.0
 4 O  dx2y2           0.4       0.1       0.4       0.8       0.0       0.0
 4 O  dxy             5.5       0.0       0.1       0.0       0.0       0.0
 5 O  s               3.7      24.2       7.0       1.2       0.0       0.0
 5 O  pz              6.4       6.6       1.3       0.3       0.0       0.0
 5 O  px              0.1       8.3      26.7       0.4       0.0       0.0
 5 O  py              1.2       0.2       2.4       0.0       0.0       0.0
 5 O  dz2             5.5       1.8       0.6       0.1       0.0       0.0
 5 O  dxz             0.3       4.7      18.6       0.6       0.0       0.0
 5 O  dyz             3.2       0.3       1.9       0.0       0.0       0.0
 5 O  dx2y2           0.9      17.6       1.7       1.2       0.0       0.0
 5 O  dxy             0.1       1.3       6.9       0.0       0.0       0.0
 6 C  s               0.1       1.5       0.4       0.1       8.8       4.8
 6 C  pz              0.2       1.1       0.7       0.1       0.0       0.0
 6 C  px              0.0       7.1       1.1       0.3       0.0       0.0
 6 C  dz2             1.3       0.4       0.4       0.0       0.0       0.0
 6 C  dxz             0.8       7.4       1.1       0.3       0.0       0.0
 6 C  dyz             0.4       0.1       0.1       0.0       0.0       0.0
 6 C  dx2y2           0.0       5.4       1.0       0.2       0.0       0.0
 6 C  dxy             0.1       0.1       0.0       0.0       0.0       0.0
 7 C  s               0.0       0.0       0.0       0.0      84.4       5.7
 7 C  pz              0.2       0.0       0.0       0.0       0.0       0.0
 7 C  px              0.3       0.1       0.0       0.0       0.0       0.0
 7 C  dz2             0.6       0.0       0.0       0.0       0.0       0.0
 7 C  dxz             0.2       0.2       0.0       0.0       0.0       0.0
 7 C  dyz             0.5       0.0       0.0       0.0       0.0       0.0
 7 C  dx2y2           0.2       0.4       0.0       0.0       0.0       0.0
 7 C  dxy             0.2       0.0       0.0       0.0       0.0       0.0
 8 H  s               0.2       0.0       0.0       0.0       0.0       0.0
 8 H  pz              0.2       0.0       0.0       0.0       0.0       0.0
 8 H  px              0.2       0.0       0.0       0.0       0.0       0.0
10 H  s               0.4       0.0       0.0       0.0       0.0       0.0
10 H  pz              0.5       0.0       0.0       0.0       0.0       0.0
10 H  px              0.5       0.0       0.0       0.0       0.0       0.0
12 H  s               0.1       0.0       0.0       0.0       0.0       0.0
12 H  pz              0.1       0.0       0.0       0.0       0.0       0.0
12 H  px              0.2       0.0       0.0       0.0       0.0       0.0
14 H  s               0.8       0.0       0.1       0.0       0.0       0.0
14 H  pz              1.2       0.0       0.0       0.0       0.0       0.0
14 H  px              0.3       0.0       0.1       0.0       0.0       0.0
14 H  py              0.6       0.0       0.0       0.0       0.0       0.0
15 H  s               0.1       0.7       0.0       0.0       0.0       0.0
15 H  pz              0.0       0.9       0.0       0.0       0.0       0.0
15 H  py              0.4       0.6       0.0       0.0       0.0       0.0
16 H  s               0.2       0.2       0.2       0.0       0.0       0.0
16 H  pz              0.1       0.2       0.2       0.0       0.0       0.0
16 H  px              1.7       0.3       0.1       0.0       0.0       0.0
16 H  py              0.1       0.0       0.1       0.0       0.0       0.0
17 H  s               0.3       0.0       0.0       0.0       0.0       0.0
17 H  pz              0.2       0.0       0.0       0.0       0.0       0.0
17 H  px              0.2       0.0       0.0       0.0       0.0       0.0
17 H  py              0.3       0.0       0.0       0.0       0.0       0.0
18 H  s               0.2       0.0       0.0       0.0       0.0       0.0
18 H  pz              0.5       0.0       0.0       0.0       0.0       0.0
19 H  px              0.1       0.2       0.0       0.0       0.0       0.0

                    216       217       218       219       220       221   
                  22.00996  22.03066  22.09157  22.28433  43.70550  43.75420
                   0.00000   0.00000   0.00000   0.00000   0.00000   0.00000
                  --------  --------  --------  --------  --------  --------
 0 C  s              15.4       1.0       1.3       0.2       0.0       0.0
 1 C  s               3.0      94.1       0.0       1.8       0.0       0.0
 2 C  s              21.0       0.8      64.9       0.0       0.0       0.0
 3 C  s               0.0       1.9       0.0      96.9       0.0       0.0
 4 O  s               0.0       0.0       0.0       0.2      89.3      10.6
 4 O  pz              0.0       0.0       0.0       0.1       0.0       0.0
 5 O  s               0.0       0.0       0.1       0.1      10.6      89.3
 6 C  s              50.8       1.8      33.4       0.0       0.0       0.0
 7 C  s               9.4       0.0       0.0       0.1       0.0       0.0



                      *****************************
                      * MAYER POPULATION ANALYSIS *
                      *****************************

  NA   - Mulliken gross atomic population
  ZA   - Total nuclear charge
  QA   - Mulliken gross atomic charge
  VA   - Mayer's total valence
  BVA  - Mayer's bonded valence
  FA   - Mayer's free valence

  ATOM       NA         ZA         QA         VA         BVA        FA
  0 C      6.4988     6.0000    -0.4988     3.8306     3.8306    -0.0000
  1 C      6.2074     6.0000    -0.2074     3.6550     3.6550    -0.0000
  2 C      6.3041     6.0000    -0.3041     3.6982     3.6982    -0.0000
  3 C      5.6450     6.0000     0.3550     3.8189     3.8189    -0.0000
  4 O      8.4344     8.0000    -0.4344     1.9414     1.9414     0.0000
  5 O      8.1660     8.0000    -0.1660     1.8978     1.8978     0.0000
  6 C      6.1685     6.0000    -0.1685     3.6288     3.6288    -0.0000
  7 C      6.4432     6.0000    -0.4432     3.8492     3.8492    -0.0000
  8 H      0.8518     1.0000     0.1482     0.9626     0.9626    -0.0000
  9 H      0.8552     1.0000     0.1448     0.9636     0.9636     0.0000
 10 H      0.8423     1.0000     0.1577     0.9630     0.9630    -0.0000
 11 H      0.8398     1.0000     0.1602     0.9613     0.9613    -0.0000
 12 H      0.8573     1.0000     0.1427     0.9602     0.9602    -0.0000
 13 H      0.8322     1.0000     0.1678     0.9563     0.9563    -0.0000
 14 H      0.8357     1.0000     0.1643     0.9628     0.9628     0.0000
 15 H      0.8577     1.0000     0.1423     0.9533     0.9533    -0.0000
 16 H      0.8124     1.0000     0.1876     0.9552     0.9552    -0.0000
 17 H      0.8486     1.0000     0.1514     0.9615     0.9615     0.0000
 18 H      0.8464     1.0000     0.1536     0.9611     0.9611     0.0000
 19 H      0.8532     1.0000     0.1468     0.9646     0.9646    -0.0000

  Mayer bond orders larger than 0.100000
B(  0-C ,  1-C ) :   0.9061 B(  0-C ,  8-H ) :   0.9685 B(  0-C ,  9-H ) :   0.9826 
B(  0-C , 10-H ) :   0.9742 B(  1-C ,  2-C ) :   0.8948 B(  1-C , 11-H ) :   0.9637 
B(  1-C , 12-H ) :   0.9651 B(  2-C ,  3-C ) :   0.9520 B(  2-C , 13-H ) :   0.9331 
B(  2-C , 14-H ) :   0.9982 B(  3-C ,  4-O ) :   1.8398 B(  3-C ,  5-O ) :   1.0615 
B(  5-O ,  6-C ) :   0.7833 B(  6-C ,  7-C ) :   0.9489 B(  6-C , 15-H ) :   0.9533 
B(  6-C , 16-H ) :   0.9668 B(  7-C , 17-H ) :   0.9714 B(  7-C , 18-H ) :   0.9722 
B(  7-C , 19-H ) :   0.9673 

-------
TIMINGS
-------

Total SCF time: 0 days 0 hours 0 min 27 sec 

Total time                  ....      27.824 sec
Sum of individual times     ....      27.272 sec  ( 98.0%)

SCF preparation             ....       0.225 sec  (  0.8%)
Fock matrix formation       ....      25.905 sec  ( 93.1%)
  Startup                   ....       0.071 sec  (  0.3% of F)
  Split-RI-J                ....       5.413 sec  ( 20.9% of F)
  XC integration            ....      19.801 sec  ( 76.4% of F)
    XC Preparation          ....       0.000 sec  (  0.0% of XC)
    Basis function eval.    ....       3.592 sec  ( 18.1% of XC)
    Density eval.           ....       5.925 sec  ( 29.9% of XC)
    XC-Functional eval.     ....       2.572 sec  ( 13.0% of XC)
    XC-Potential eval.      ....       6.561 sec  ( 33.1% of XC)
Diagonalization             ....       0.000 sec  (  0.0%)
Density matrix formation    ....       0.277 sec  (  1.0%)
Total Energy calculation    ....       0.045 sec  (  0.2%)
Population analysis         ....       0.159 sec  (  0.6%)
Orbital Transformation      ....       0.087 sec  (  0.3%)
Orbital Orthonormalization  ....       0.000 sec  (  0.0%)
DIIS solution               ....       0.511 sec  (  1.8%)
  MO trafo                  ....       0.000 sec  (  0.0 % of DIIS)
  Orb grad                  ....       0.000 sec  (  0.0 % of DIIS)
  Energy W gradient         ....       0.000 sec  (  0.0 % of DIIS)
  DIIS error                ....       0.025 sec  (  5.0 % of DIIS)
  DIIS work                 ....       0.411 sec  ( 80.3 % of DIIS)
  Form Q                    ....       0.000 sec  (  0.0 % of DIIS)
  Form QpQm                 ....       0.000 sec  (  0.0 % of DIIS)
  Exp/Cayley                ....       0.000 sec  (  0.0 % of DIIS)
  Orb update                ....       0.000 sec  (  0.0 % of DIIS)
  Wake-sleep                ....       0.032 sec  (  6.2 % of DIIS)
SOSCF solution              ....       0.063 sec  (  0.2%)
  MO trafo                  ....       0.046 sec  ( 72.7 % of SOSCF)
  Orb grad                  ....       0.001 sec  (  1.0 % of SOSCF)
  Rot update                ....       0.000 sec  (  0.2 % of SOSCF)
  Step                      ....       0.016 sec  ( 25.9 % of SOSCF)
Finished LeanSCF after  27.9 sec

Maximum memory used throughout the entire LEANSCF-calculation: 23.9 MB


-------------------------------------------------------------------------------
                          DFT DISPERSION CORRECTION                            
                                                                               
                                DFTD4 V3.4.0                                   
-------------------------------------------------------------------------------
The R2SCAN3C composite method is recognized
Using three-body term ABC
Active option DFTDOPT                   ...         5   

-------------------------   ----------------
Dispersion correction           -0.005071202
-------------------------   ----------------

------------------   -----------------
gCP correction             0.011817870
------------------   -----------------

-------------------------   --------------------
FINAL SINGLE POINT ENERGY      -386.235437652100
-------------------------   --------------------


------------------------------------------------------------------------------
                              ORCA PROPERTY CALCULATIONS
------------------------------------------------------------------------------

GBWName                                 ... sp_gas.gbw
Number of atoms                         ...     20
Number of basis functions               ...    222
Max core memory                         ...   1024 MB

Electric properties:
Dipole moment                           ... YES
Quadrupole moment                       ...  NO
Static polarizability (Dipole/Dipole)   ...  NO
Static polarizability (Dipole/Quad.)    ...  NO
Static polarizability (Quad./Quad.)     ...  NO
Static polarizability (Velocity)        ...  NO

Atomic electric properties:
Dipole moment                           ...  NO
Quadrupole moment                       ...  NO
Static polarizability                   ...  NO

Choice of electric origin               ... Center of mass
Position of electric origin             ...    -0.000009    -0.000019    -0.000004

General magnetic properties:
Magnetizability                         ...  NO

EPR properties:
g-Tensor (aka g-matrix)                 ...  NO
Zero-Field splitting spin-orbit         ...  NO
Zero-field splitting spin-spin          ...  NO
Hyperfine couplings                     ...  NO (   0 nuclei)
Quadrupole couplings                    ...  NO (   0 nuclei)
Contact density                         ...  NO (   0 nuclei)

NMR properties:
Chemical shifts                         ...  NO (   0 nuclei)
Spin-rotation constants                 ...  NO (   0 nuclei)
Spin-spin couplings                     ...  NO (   0 nuclei,    0 pairs)

Choice of magnetic origin               ... GIAO
Position of magnetic origin             ...     0.000000     0.000000     0.000000

Properties with geometric perturbations:
SCF Hessian                             ...  NO
IR spectrum                             ...  NO
VCD spectrum                            ...  NO
X-ray spectroscopy properties:
SCF XES/XAS/RIXS spectra                ...  NO


-------------
DIPOLE MOMENT
-------------

Method             : SCF
Type of density    : Electron Density
Multiplicity       :   1
Irrep              :   0
Energy             :  -386.2421843203533172 Eh
Relativity type    : 
Basis              : AO
                                X                 Y                 Z
Electronic contribution:      1.666929465       5.490222005       0.153105255
Nuclear contribution   :     -1.391080141      -5.911957315      -0.744271816
                        -----------------------------------------
Total Dipole Moment    :      0.275849324      -0.421735310      -0.591166561
                        -----------------------------------------
Magnitude (a.u.)       :      0.776808486
Magnitude (Debye)      :      1.974490256



--------------------
Rotational spectrum 
--------------------
 
Rotational constants in cm-1:             0.120207             0.036277             0.033054 
Rotational constants in MHz :          3603.722230          1087.566831           990.924564 

Dipole components along the rotational axes: 
x,y,z [a.u.] :     0.294219    -0.441906     0.567085 
x,y,z [Debye]:     0.747845    -1.123235     1.441416 

 

Dipole moment calculation done in   0.0 sec 

Maximum memory used throughout the entire PROP-calculation: 13.8 MB

--------------------------------
SUGGESTED CITATIONS FOR THIS RUN
--------------------------------

Below you find a list of papers that are relevant to this ORCA run
We neither can nor want to force you to cite these papers, but we appreciate if you do
You receive ORCA, which is the product of decades of hard work by many enthusiastic individuals, for free
The only thing we kindly ask in return is that you cite our papers,
We deeply appreciate it, if you show your appreciation for ORCA by not just citing the generic ORCA reference.

Please note that relegating all ORCA citations to the supporting information does *not* help us.
SI sections are not indexed - citations you put there will not count into any citation statistics
But we need these citations in order to attract the funding resources that allow us to do what we are doing

Therefore, if you are a happy ORCA user, please consider citing a few of the papers listed below in the main body of your paper

In addition to the list printed below, the program has created the file sp_gas.bibtex that contains the list in bibtex format
You can import this file easily into all common literature databanks and citation aid programs


List of essential papers. We consider these as the minimum necessary citations

  1. Neese,F.
     Software update: the ORCA program system, version 5.0
     WIRES Comput. Molec. Sci., 2022 12(1)e1606
     doi.org/10.1002/wcms.1606
  2. Grimme,S.; Hansen,A.; Ehlert,S.; Mewes,J.
     r2SCAN-3c: A 'Swiss army knife' composite electronic-structure method
     J. Chem. Phys., 2021 154 064103
     doi.org/10.1063/5.0040021

List of papers to cite with high priority. The work reported in these papers was absolutely
necessary for this run to complete.
Our perspective: the developers of density functionals and basis sets usually get cited in chemistry papers
Good! But without the algorithms to do something with them, the functionals or basis sets would not do anything.
Hence, in our opinion, the algorithm design and method developments papers are equally worthy of getting cited

  1. Neese,F.
     An improvement of the resolution of the identity approximation for the formation of the Coulomb matrix
     J. Comp. Chem., 2003 24(14)1740-1747
     doi.org/10.1002/jcc.10318
  2. Neese,F.
     The SHARK Integral Generation and Digestion System
     J. Comp. Chem., 2022  1-16
     doi.org/10.1002/jcc.26942
  3. Lehtola,S.; Steigemann,C.; Oliveira,M.; Marques,M.
     Recent developments in Libxc - A comprehensive library of functionals for density functional theory
     Software X, 2018 7 
     doi.org/10.1016/j.softx.2017.11.002
  4. Caldeweyher,E.; Bannwarth,C.; Grimme,S.
     Extension of the D3 dispersion coefficient model
     J. Chem. Phys., 2017 147 034112-XXXX
     doi.org/10.1063/1.4993215
  5. Caldeweyher,E.; Ehlert,S.; Hansen,A.; Neugebauer,H.; Spicher,S.; Bannwarth,C.; Grimme,S.
     A generally applicable atomic-charge dependent London dispersion correction
     J. Chem. Phys., 2019 150 154122-XXXX
     doi.org/10.1063/1.5090222
  6. Caldeweyher,E.; Mewes,J.; Ehlert,S.; Grimme,S.
     Extension and evaluation of the D4 London-dispersion model for periodic systems
     Phys. Chem. Chem. Phys., 2020 22(16)8499-8512
     doi.org/10.1039/D0CP00502A

List of suggested additional citations. These are papers that are important in the 'surrounding' of 
of this run, or papers that preceded the highly important papers. If you like your results we are grateful for a citation.

  1. Neese,F.
     The ORCA program system
     WIRES Comput. Molec. Sci., 2012 2(1)73-78
     doi.org/10.1002/wcms.81
  2. Neese,F.
     Software update: the ORCA program system, version 4.0
     WIRES Comput. Molec. Sci., 2018 8(1)1-6
     doi.org/10.1002/wcms.1327
  3. Neese,F.; Wennmohs,F.; Becker,U.; Riplinger,C.
     The ORCA quantum chemistry program package
     J. Chem. Phys., 2020 152 Art. No. L224108
     doi.org/10.1063/5.0004608

List of optional additional citations

  1. Neese,F.
     Approximate second-order SCF convergence for spin unrestricted wavefunctions
     Chem. Phys. Lett., 2000 325(1-3)93-98
     doi.org/10.1016/s0009-2614(00)00662-x

Timings for individual modules:

Sum of individual times          ...       30.322 sec (=   0.505 min)
Startup calculation              ...        1.523 sec (=   0.025 min)   5.0 %
SCF iterations                   ...       28.670 sec (=   0.478 min)  94.6 %
Property calculations            ...        0.130 sec (=   0.002 min)   0.4 %
                             ****ORCA TERMINATED NORMALLY****
TOTAL RUN TIME: 0 days 0 hours 0 minutes 31 seconds 176 msec
