 Entering Gaussian System
 *********************************************
 Gaussian 98:
 frequency output generated by the xtb code
 *********************************************
                         Standard orientation:
 --------------------------------------------------------------------
  Center     Atomic     Atomic              Coordinates (Angstroms)
  Number     Number      Type              X           Y           Z
 --------------------------------------------------------------------
    1          6             0       -2.355320   -1.167846   -0.643342
    2          6             0       -2.031522   -0.574535    0.722451
    3          6             0       -1.435293    0.831904    0.601486
    4          6             0       -0.115862    0.824066   -0.126869
    5          8             0        0.142545    1.508438   -1.097401
    6          8             0        0.753822   -0.013601    0.417478
    7          6             0        2.053569   -0.113960   -0.186294
    8          6             0        2.803089   -1.248116    0.485403
    9          1             0       -3.069199   -0.541142   -1.172885
   10          1             0       -1.456143   -1.242310   -1.252340
   11          1             0       -2.780783   -2.161865   -0.534985
   12          1             0       -1.322000   -1.216542    1.245305
   13          1             0       -2.943100   -0.514064    1.317832
   14          1             0       -1.256843    1.238070    1.598436
   15          1             0       -2.111090    1.495439    0.061503
   16          1             0        1.925625   -0.287396   -1.260128
   17          1             0        2.567587    0.844217   -0.056682
   18          1             0        2.273335   -2.184792    0.339330
   19          1             0        3.795365   -1.327304    0.053884
   20          1             0        2.888703   -1.056056    1.550712
 --------------------------------------------------------------------
     1 basis functions        1 primitive gaussians
     1 alpha electrons        1 beta electrons
 
 Harmonic frequencies (cm**-1), IR intensities (km*mol⁻¹),
 Raman scattering activities (A**4/amu), Raman depolarization ratios,
 reduced masses (AMU), force constants (mDyne/A) and normal coordinates:
                      1                      2                      3
                        a                      a                      a 
 Frequencies --    32.3322                30.0719                80.8255
 Red. masses --    12.9531                 8.2063                 8.2810
 Frc consts  --     0.0000                 0.0000                 0.0000
 IR Inten    --     2.7019                 0.1809                 0.0737
 Raman Activ --     0.0000                 0.0000                 0.0000
 Depolar     --     0.0000                 0.0000                 0.0000
 Atom AN      X      Y      Z        X      Y      Z        X      Y      Z
   1   6    -0.11   0.20  -0.15    -0.29   0.30  -0.16     0.57   0.05  -0.14
   2   6     0.01  -0.05  -0.07    -0.07  -0.03  -0.07    -0.01   0.07  -0.01
   3   6     0.06  -0.05   0.14     0.09  -0.08   0.17     0.00   0.09   0.22
   4   6    -0.00  -0.06   0.03     0.01  -0.11   0.03    -0.07   0.05   0.10
   5   8    -0.25  -0.46  -0.31    -0.07  -0.16  -0.00    -0.21  -0.11  -0.04
   6   8     0.20   0.33   0.32     0.05  -0.16  -0.05    -0.03   0.10   0.11
   7   6     0.13   0.20   0.19    -0.02  -0.14  -0.17    -0.18  -0.20  -0.19
   8   6    -0.04  -0.11  -0.14     0.30   0.32   0.25    -0.11  -0.03   0.00
   9   1    -0.04   0.09   0.00    -0.08   0.14   0.02     0.25   0.03  -0.14
  10   1    -0.04   0.08  -0.07    -0.11   0.09  -0.08     0.25  -0.01   0.08
  11   1    -0.04   0.05  -0.08    -0.11   0.09  -0.09     0.13   0.03  -0.09
  12   1     0.01  -0.05  -0.06    -0.03  -0.07  -0.08    -0.06   0.03   0.08
  13   1     0.01  -0.03   0.00     0.00  -0.01   0.01    -0.07   0.01  -0.11
  14   1     0.04  -0.07   0.06     0.07  -0.09   0.07     0.02  -0.02   0.08
  15   1     0.01   0.01   0.08     0.03   0.03   0.11     0.00   0.05   0.10
  16   1     0.01   0.15   0.04    -0.04  -0.19  -0.02    -0.13  -0.16  -0.03
  17   1     0.09   0.02   0.13    -0.06   0.01  -0.20    -0.02  -0.05  -0.19
  18   1    -0.05   0.00  -0.11     0.14   0.04   0.22    -0.07  -0.01   0.15
  19   1    -0.02  -0.04  -0.05     0.08   0.09   0.04    -0.07  -0.09  -0.08
  20   1     0.00  -0.12  -0.02     0.12   0.24   0.04     0.07   0.10  -0.03
                      4                      5                      6
                        a                      a                      a 
 Frequencies --   122.0481               159.9446               194.2002
 Red. masses --     7.2322                 7.3696                 5.1211
 Frc consts  --     0.0000                 0.0000                 0.0000
 IR Inten    --     2.4357                 5.5234                 2.5029
 Raman Activ --     0.0000                 0.0000                 0.0000
 Depolar     --     0.0000                 0.0000                 0.0000
 Atom AN      X      Y      Z        X      Y      Z        X      Y      Z
   1   6    -0.07   0.01  -0.02    -0.17  -0.16  -0.02    -0.15  -0.13   0.02
   2   6     0.39  -0.22  -0.03    -0.12   0.01  -0.10    -0.06  -0.10  -0.02
   3   6     0.03  -0.06   0.00    -0.12   0.01  -0.20     0.10  -0.15   0.05
   4   6     0.01   0.17  -0.04     0.06   0.03   0.14     0.04   0.05  -0.07
   5   8    -0.07   0.20  -0.06     0.24  -0.04   0.15    -0.13   0.23  -0.01
   6   8     0.04   0.25  -0.02     0.10   0.17   0.37     0.17   0.16  -0.15
   7   6    -0.04  -0.14  -0.08    -0.08  -0.03  -0.04     0.18   0.04  -0.03
   8   6    -0.27  -0.12   0.23     0.13   0.02  -0.20    -0.11  -0.07   0.13
   9   1    -0.20  -0.06   0.17    -0.08  -0.08  -0.01     0.27   0.18  -0.16
  10   1    -0.11   0.19  -0.16    -0.06  -0.05  -0.02     0.01  -0.43   0.14
  11   1     0.15  -0.07  -0.02    -0.02  -0.05   0.04    -0.43   0.13   0.04
  12   1     0.22  -0.05  -0.14    -0.03   0.02  -0.01    -0.06  -0.06   0.01
  13   1     0.18  -0.17   0.11    -0.03   0.02  -0.03    -0.02   0.03  -0.02
  14   1    -0.00  -0.02   0.00    -0.12   0.05  -0.06     0.07  -0.09   0.03
  15   1    -0.04  -0.06   0.02    -0.00  -0.03  -0.14     0.02  -0.01   0.07
  16   1    -0.04  -0.12  -0.01    -0.14  -0.05   0.01     0.08   0.01  -0.01
  17   1     0.05  -0.06  -0.11     0.00  -0.01  -0.11     0.09  -0.01   0.01
  18   1    -0.17  -0.00   0.19    -0.12   0.05   0.23    -0.17   0.04   0.15
  19   1    -0.10  -0.17   0.04    -0.10  -0.17  -0.35    -0.07  -0.19  -0.02
  20   1    -0.02   0.07   0.04     0.38   0.14  -0.11     0.06   0.06   0.02
                      7                      8                      9
                        a                      a                      a 
 Frequencies --   226.9804               263.1951               349.9248
 Red. masses --     5.9832                 7.5392                10.2886
 Frc consts  --     0.0000                 0.0000                 0.0000
 IR Inten    --     2.1711                 4.1777                13.5391
 Raman Activ --     0.0000                 0.0000                 0.0000
 Depolar     --     0.0000                 0.0000                 0.0000
 Atom AN      X      Y      Z        X      Y      Z        X      Y      Z
   1   6     0.11   0.13   0.02    -0.06  -0.18  -0.01    -0.04  -0.11  -0.01
   2   6    -0.02   0.04   0.08    -0.42   0.12  -0.04    -0.05  -0.01  -0.04
   3   6     0.03   0.00   0.06     0.06  -0.07   0.08     0.18  -0.06   0.15
   4   6    -0.06  -0.11  -0.12     0.07   0.00   0.02     0.09  -0.08   0.03
   5   8    -0.08  -0.01  -0.06    -0.19   0.16   0.05     0.44  -0.22   0.04
   6   8    -0.15  -0.30  -0.29     0.29   0.16  -0.09     0.03  -0.09   0.01
   7   6     0.12   0.19   0.22     0.25  -0.05  -0.12    -0.13   0.29  -0.20
   8   6     0.00   0.00   0.04     0.03  -0.10   0.08    -0.45   0.27  -0.03
   9   1    -0.05  -0.02   0.05    -0.22  -0.26   0.02    -0.04  -0.07  -0.01
  10   1     0.03   0.18  -0.02    -0.02   0.20  -0.04    -0.02  -0.01  -0.01
  11   1     0.16  -0.02  -0.04     0.28  -0.17   0.02     0.03  -0.04   0.03
  12   1    -0.02   0.01   0.03    -0.24   0.00   0.11    -0.06  -0.03   0.01
  13   1    -0.02   0.01   0.00    -0.18   0.14  -0.12    -0.03   0.04  -0.04
  14   1     0.07  -0.01   0.01     0.04  -0.08   0.04     0.13  -0.12   0.07
  15   1     0.00   0.02   0.05     0.06   0.06   0.06     0.05   0.06   0.14
  16   1     0.16   0.17   0.03     0.07  -0.05  -0.03    -0.05   0.09  -0.06
  17   1    -0.02   0.06   0.23     0.11  -0.03  -0.06    -0.06   0.09  -0.05
  18   1    -0.24   0.10   0.27    -0.01  -0.02   0.00    -0.21   0.12  -0.00
  19   1    -0.14  -0.26  -0.26     0.04  -0.06   0.09    -0.10  -0.04   0.08
  20   1     0.35   0.11  -0.04    -0.06  -0.02   0.03    -0.21   0.12  -0.01
                     10                     11                     12
                        a                      a                      a 
 Frequencies --   376.1931               444.2082               594.3829
 Red. masses --     7.9472                10.6206                11.6796
 Frc consts  --     0.0000                 0.0000                 0.0000
 IR Inten    --     2.2405                 5.5883                10.6589
 Raman Activ --     0.0000                 0.0000                 0.0000
 Depolar     --     0.0000                 0.0000                 0.0000
 Atom AN      X      Y      Z        X      Y      Z        X      Y      Z
   1   6     0.11   0.32   0.07     0.04   0.11   0.07    -0.02  -0.04  -0.02
   2   6    -0.11  -0.13   0.29    -0.20  -0.22   0.24    -0.14  -0.14   0.07
   3   6    -0.19  -0.20  -0.26     0.08  -0.31   0.01    -0.42   0.14   0.27
   4   6     0.01  -0.20   0.03    -0.06   0.04  -0.35    -0.13   0.33   0.16
   5   8    -0.00  -0.06   0.15     0.34   0.20  -0.20     0.38  -0.23  -0.11
   6   8     0.24   0.01  -0.02    -0.16   0.26   0.09    -0.03   0.12  -0.29
   7   6     0.15   0.10  -0.20    -0.18  -0.09   0.15     0.22  -0.01  -0.11
   8   6    -0.15   0.05   0.02     0.08  -0.03  -0.03     0.11  -0.09   0.04
   9   1     0.08   0.18   0.05     0.03   0.07   0.05     0.02   0.00  -0.02
  10   1     0.08   0.17   0.07     0.05   0.14   0.06     0.02   0.00   0.03
  11   1     0.01   0.08  -0.16     0.04   0.01  -0.13    -0.01  -0.01  -0.05
  12   1    -0.04  -0.03   0.09    -0.14  -0.11   0.12     0.04  -0.00  -0.04
  13   1    -0.04  -0.03   0.06    -0.09   0.03   0.01    -0.03  -0.16   0.05
  14   1    -0.18   0.18  -0.15     0.19  -0.13  -0.01    -0.18   0.01   0.10
  15   1    -0.04  -0.20  -0.28    -0.07  -0.06   0.15    -0.16   0.01   0.09
  16   1     0.02   0.01  -0.05    -0.08  -0.05   0.05     0.12   0.01  -0.04
  17   1     0.05   0.02  -0.08    -0.02  -0.03  -0.01     0.07  -0.02   0.01
  18   1    -0.10   0.05   0.01     0.09  -0.05  -0.02     0.02  -0.02   0.02
  19   1    -0.02  -0.08   0.09     0.00   0.09  -0.07     0.04  -0.05   0.03
  20   1    -0.12   0.05   0.01     0.08  -0.04  -0.01     0.02  -0.01   0.01
                     13                     14                     15
                        a                      a                      a 
 Frequencies --   659.4528               819.0941               819.3931
 Red. masses --     9.5770                 3.8813                 2.6008
 Frc consts  --     0.0000                 0.0000                 0.0000
 IR Inten    --    18.5018                20.7954                 2.9150
 Raman Activ --     0.0000                 0.0000                 0.0000
 Depolar     --     0.0000                 0.0000                 0.0000
 Atom AN      X      Y      Z        X      Y      Z        X      Y      Z
   1   6    -0.03  -0.01  -0.01     0.09  -0.01  -0.04     0.04   0.00  -0.01
   2   6    -0.00  -0.15   0.05     0.28  -0.00  -0.05     0.11   0.01  -0.03
   3   6     0.24  -0.14   0.00    -0.02   0.02   0.13     0.00  -0.01   0.03
   4   6     0.37   0.49   0.33    -0.22  -0.12  -0.06    -0.10  -0.08  -0.02
   5   8    -0.11  -0.05  -0.24     0.07  -0.06   0.11     0.04  -0.03   0.08
   6   8    -0.09  -0.16  -0.09    -0.07   0.12  -0.10     0.01   0.14   0.01
   7   6    -0.14  -0.02   0.07     0.08   0.08   0.04    -0.09  -0.16  -0.18
   8   6    -0.05   0.05  -0.01     0.05  -0.01   0.05    -0.03  -0.07  -0.06
   9   1    -0.02   0.04   0.06    -0.09   0.10   0.26    -0.03   0.04   0.09
  10   1    -0.03   0.03  -0.03    -0.20  -0.10  -0.32    -0.07  -0.04  -0.12
  11   1    -0.02  -0.00  -0.06    -0.11   0.07   0.10    -0.04   0.03   0.05
  12   1    -0.18  -0.13   0.15    -0.20  -0.02   0.33    -0.07  -0.01   0.12
  13   1    -0.07   0.15  -0.11    -0.15   0.17  -0.37    -0.05   0.07  -0.14
  14   1    -0.21   0.09  -0.01    -0.05   0.11  -0.00    -0.00   0.03  -0.01
  15   1     0.06  -0.19  -0.18    -0.07  -0.11  -0.03    -0.02  -0.04  -0.01
  16   1    -0.00   0.03   0.01     0.02  -0.18   0.04     0.03   0.44  -0.13
  17   1    -0.06   0.00   0.06    -0.02   0.06  -0.17     0.14  -0.18   0.41
  18   1     0.01  -0.00   0.00    -0.07   0.06  -0.11     0.22  -0.19   0.30
  19   1    -0.02   0.05  -0.03    -0.01  -0.04  -0.04     0.05   0.11   0.08
  20   1     0.01   0.01  -0.00     0.05  -0.16   0.04    -0.08   0.38  -0.08
                     16                     17                     18
                        a                      a                      a 
 Frequencies --   880.3742               903.5576               930.1035
 Red. masses --     7.6803                 9.0501                 6.3764
 Frc consts  --     0.0000                 0.0000                 0.0000
 IR Inten    --     9.3833                16.4301                 1.4675
 Raman Activ --     0.0000                 0.0000                 0.0000
 Depolar     --     0.0000                 0.0000                 0.0000
 Atom AN      X      Y      Z        X      Y      Z        X      Y      Z
   1   6    -0.06   0.02  -0.11    -0.08  -0.14  -0.25    -0.00  -0.26  -0.06
   2   6    -0.04   0.07   0.03    -0.05  -0.11   0.20    -0.08  -0.16   0.14
   3   6     0.16  -0.02   0.26     0.06   0.29   0.38    -0.10   0.32  -0.06
   4   6    -0.03  -0.20  -0.02     0.08  -0.12  -0.26     0.14  -0.07  -0.02
   5   8     0.07  -0.09   0.14     0.01   0.22  -0.18    -0.04   0.04  -0.02
   6   8     0.16   0.26  -0.35    -0.04  -0.16   0.28     0.30  -0.07  -0.08
   7   6    -0.22  -0.04   0.16     0.08   0.00  -0.05    -0.13  -0.06   0.13
   8   6    -0.17   0.04   0.07     0.08   0.01  -0.07    -0.18   0.08   0.02
   9   1    -0.02  -0.14  -0.20    -0.02  -0.05  -0.09     0.05   0.21   0.24
  10   1     0.05  -0.05   0.07    -0.01  -0.04  -0.06    -0.06   0.08  -0.12
  11   1     0.06  -0.02   0.09    -0.02  -0.04  -0.09    -0.13  -0.05  -0.36
  12   1     0.00  -0.10  -0.15    -0.04  -0.10   0.01     0.08   0.18   0.18
  13   1     0.04  -0.04   0.09    -0.04  -0.11   0.03    -0.07  -0.12  -0.03
  14   1    -0.11   0.28  -0.02    -0.05   0.41  -0.03     0.05  -0.04   0.02
  15   1     0.08  -0.17  -0.20    -0.03  -0.14  -0.11     0.09   0.26   0.06
  16   1     0.06  -0.07   0.03    -0.07   0.05  -0.01     0.03  -0.04   0.03
  17   1     0.03  -0.05   0.01    -0.03   0.03   0.00     0.03  -0.05   0.02
  18   1     0.12  -0.08  -0.02    -0.08   0.05   0.02     0.07  -0.04  -0.01
  19   1    -0.12   0.27  -0.20     0.07  -0.15   0.12    -0.10   0.21  -0.15
  20   1     0.15  -0.09   0.02    -0.11   0.08  -0.02     0.08  -0.03   0.00
                     19                     20                     21
                        a                      a                      a 
 Frequencies --   967.5967              1052.8290              1074.8191
 Red. masses --     9.4123                 6.0764                 8.9324
 Frc consts  --     0.0000                 0.0000                 0.0000
 IR Inten    --     2.5930                26.0557                97.4222
 Raman Activ --     0.0000                 0.0000                 0.0000
 Depolar     --     0.0000                 0.0000                 0.0000
 Atom AN      X      Y      Z        X      Y      Z        X      Y      Z
   1   6     0.14   0.23   0.15     0.12   0.01   0.19     0.01   0.04  -0.21
   2   6    -0.04   0.05  -0.16    -0.19  -0.04  -0.17     0.02   0.01   0.23
   3   6    -0.34  -0.13   0.16     0.10  -0.04   0.13    -0.10   0.01  -0.14
   4   6     0.20  -0.02  -0.15     0.13  -0.15  -0.05    -0.03   0.13   0.08
   5   8     0.01   0.19  -0.23     0.03   0.02  -0.00    -0.02  -0.04   0.01
   6   8     0.33  -0.24   0.11    -0.06   0.19  -0.15     0.36  -0.09  -0.13
   7   6    -0.06  -0.08   0.12    -0.28   0.15  -0.00    -0.43   0.25   0.01
   8   6    -0.14   0.11  -0.04     0.24  -0.17   0.04     0.20  -0.23   0.11
   9   1    -0.06  -0.06   0.04     0.01   0.10   0.19    -0.06  -0.10  -0.10
  10   1    -0.07  -0.12  -0.08    -0.04   0.01  -0.05    -0.04  -0.10  -0.10
  11   1     0.02   0.10   0.36    -0.05   0.03   0.02     0.01   0.02   0.13
  12   1    -0.00   0.02  -0.05     0.10   0.13  -0.07    -0.01  -0.02   0.05
  13   1    -0.08  -0.17  -0.13    -0.06  -0.25  -0.04    -0.02  -0.02   0.02
  14   1    -0.19  -0.10   0.08    -0.27  -0.06   0.10     0.30   0.08  -0.12
  15   1    -0.14  -0.07   0.06     0.34   0.12  -0.20    -0.18  -0.02   0.14
  16   1    -0.01  -0.02   0.03    -0.13   0.10  -0.01    -0.15   0.12  -0.01
  17   1     0.02  -0.04   0.02    -0.16   0.09  -0.01    -0.12   0.09  -0.05
  18   1     0.01   0.00  -0.01    -0.05   0.01   0.04     0.01  -0.05   0.06
  19   1    -0.06   0.12  -0.07     0.11  -0.23   0.15     0.07  -0.14   0.10
  20   1     0.01   0.03  -0.01    -0.06  -0.02   0.02    -0.00  -0.05   0.04
                     22                     23                     24
                        a                      a                      a 
 Frequencies --  1078.0545              1115.8747              1124.3467
 Red. masses --     5.5476                 8.2446                 8.3596
 Frc consts  --     0.0000                 0.0000                 0.0000
 IR Inten    --    41.5142                 7.6982                53.7691
 Raman Activ --     0.0000                 0.0000                 0.0000
 Depolar     --     0.0000                 0.0000                 0.0000
 Atom AN      X      Y      Z        X      Y      Z        X      Y      Z
   1   6    -0.18  -0.12   0.12     0.01  -0.09  -0.24     0.01  -0.11  -0.23
   2   6     0.26   0.13  -0.18     0.02   0.30   0.21     0.01   0.35   0.20
   3   6    -0.10   0.01   0.13    -0.07  -0.27   0.04    -0.07  -0.32   0.11
   4   6    -0.10  -0.07  -0.13     0.02   0.02   0.03     0.14  -0.04  -0.02
   5   8     0.03   0.06  -0.05     0.02  -0.04   0.02     0.01   0.06  -0.09
   6   8     0.26  -0.08  -0.01     0.04   0.12  -0.14    -0.18  -0.05   0.12
   7   6    -0.21   0.08   0.05    -0.05  -0.32   0.29     0.12   0.26  -0.24
   8   6     0.08  -0.07   0.02     0.09   0.25  -0.25    -0.09  -0.20   0.18
   9   1     0.10   0.06  -0.05    -0.02  -0.00  -0.02    -0.01   0.02   0.01
  10   1     0.12   0.19   0.24    -0.05  -0.04  -0.14    -0.05  -0.03  -0.14
  11   1     0.03  -0.09  -0.31    -0.04  -0.00  -0.05    -0.05  -0.01  -0.07
  12   1    -0.07  -0.03   0.05     0.13   0.24   0.09     0.15   0.28   0.09
  13   1     0.12   0.39   0.01     0.05   0.04   0.13     0.05   0.03   0.14
  14   1    -0.32  -0.14   0.14    -0.03  -0.07   0.01    -0.14  -0.10   0.06
  15   1    -0.15  -0.13   0.04     0.02  -0.05  -0.00     0.02  -0.08  -0.02
  16   1    -0.07   0.04   0.01     0.03  -0.07   0.07    -0.05   0.05  -0.05
  17   1    -0.06   0.03  -0.02    -0.02  -0.08   0.09     0.02   0.07  -0.08
  18   1    -0.01  -0.00   0.03    -0.20   0.19  -0.05     0.17  -0.16   0.04
  19   1     0.04  -0.07   0.05     0.07  -0.19   0.12    -0.06   0.16  -0.10
  20   1    -0.03  -0.00   0.01    -0.20   0.13  -0.05     0.16  -0.08   0.04
                     25                     26                     27
                        a                      a                      a 
 Frequencies --  1137.6771              1184.2350              1217.0315
 Red. masses --     5.1716                 5.2132                10.1884
 Frc consts  --     0.0000                 0.0000                 0.0000
 IR Inten    --    15.0203                24.3764               403.1727
 Raman Activ --     0.0000                 0.0000                 0.0000
 Depolar     --     0.0000                 0.0000                 0.0000
 Atom AN      X      Y      Z        X      Y      Z        X      Y      Z
   1   6     0.01  -0.00   0.02     0.08  -0.18   0.22    -0.14   0.02   0.05
   2   6    -0.01  -0.01  -0.02    -0.16   0.25  -0.33     0.17   0.02  -0.05
   3   6     0.03   0.00   0.00     0.03  -0.20   0.14    -0.27   0.03   0.02
   4   6    -0.04   0.03   0.01    -0.06   0.13   0.04     0.63  -0.28   0.07
   5   8     0.00  -0.03   0.01    -0.00  -0.03   0.00    -0.07  -0.04   0.07
   6   8    -0.05  -0.09  -0.15     0.05  -0.05   0.02    -0.25   0.24  -0.15
   7   6     0.16   0.26   0.37    -0.02  -0.01  -0.01     0.03  -0.01   0.03
   8   6    -0.10  -0.16  -0.25     0.00   0.01   0.01     0.00  -0.03  -0.03
   9   1     0.00   0.01   0.01     0.07   0.19   0.25     0.03  -0.02  -0.11
  10   1    -0.00   0.00   0.00    -0.01   0.12  -0.01     0.05   0.06   0.13
  11   1    -0.00   0.00  -0.00    -0.09  -0.02  -0.20     0.05  -0.04  -0.05
  12   1     0.00  -0.00  -0.01     0.06   0.08  -0.21    -0.05  -0.01   0.09
  13   1    -0.00  -0.01  -0.00    -0.01  -0.12  -0.02    -0.06  -0.07  -0.16
  14   1     0.01   0.01  -0.00     0.35   0.35  -0.18     0.17   0.07  -0.06
  15   1     0.03   0.01  -0.02    -0.20  -0.26   0.04    -0.21  -0.02   0.16
  16   1    -0.35  -0.17   0.17     0.00   0.01  -0.01    -0.04  -0.00   0.02
  17   1     0.30  -0.02  -0.32     0.01  -0.01   0.01    -0.13   0.07  -0.00
  18   1     0.14  -0.17   0.23    -0.01   0.01  -0.01     0.02  -0.02   0.02
  19   1     0.06   0.08   0.12    -0.00   0.00  -0.01     0.02  -0.02   0.03
  20   1    -0.13   0.33  -0.11     0.00  -0.02   0.01    -0.01   0.04  -0.01
                     28                     29                     30
                        a                      a                      a 
 Frequencies --  1234.5162              1247.7955              1303.2888
 Red. masses --     2.3028                 3.9261                 4.2596
 Frc consts  --     0.0000                 0.0000                 0.0000
 IR Inten    --     5.7921                32.9614                 5.3572
 Raman Activ --     0.0000                 0.0000                 0.0000
 Depolar     --     0.0000                 0.0000                 0.0000
 Atom AN      X      Y      Z        X      Y      Z        X      Y      Z
   1   6    -0.04   0.02   0.01    -0.28   0.10   0.03    -0.05   0.02   0.02
   2   6     0.04  -0.01  -0.01     0.20  -0.05  -0.06    -0.09   0.07   0.08
   3   6    -0.03  -0.01   0.02     0.00  -0.18   0.09     0.42   0.20  -0.18
   4   6     0.04  -0.02   0.01    -0.20   0.14   0.00    -0.01  -0.02  -0.04
   5   8    -0.00  -0.00   0.00     0.03   0.02  -0.05    -0.03  -0.05   0.09
   6   8    -0.07  -0.06  -0.09     0.08  -0.08   0.07    -0.03   0.01   0.01
   7   6    -0.02  -0.06  -0.05     0.00   0.01  -0.01    -0.07   0.05  -0.01
   8   6     0.10   0.18   0.19    -0.02  -0.02  -0.01     0.02   0.01  -0.02
   9   1     0.01  -0.01  -0.04     0.03  -0.07  -0.23    -0.00  -0.03  -0.06
  10   1     0.02   0.01   0.04     0.11   0.06   0.26    -0.01   0.00   0.01
  11   1     0.02  -0.01  -0.01     0.10  -0.05  -0.02    -0.00  -0.01  -0.04
  12   1     0.01   0.03   0.04     0.15   0.37   0.32     0.09   0.16   0.05
  13   1    -0.02  -0.03  -0.05    -0.17  -0.27  -0.33    -0.15  -0.36  -0.13
  14   1     0.02   0.01  -0.01     0.14   0.11  -0.06    -0.25  -0.21   0.12
  15   1     0.02   0.02  -0.00     0.23   0.07  -0.12    -0.44  -0.35   0.16
  16   1    -0.54   0.30  -0.00     0.08  -0.03  -0.01     0.10  -0.07  -0.00
  17   1     0.52  -0.30  -0.01    -0.04   0.02   0.00     0.13  -0.07   0.00
  18   1    -0.11   0.16  -0.17     0.01  -0.01   0.01     0.00   0.00   0.02
  19   1    -0.03  -0.06  -0.06    -0.00   0.02  -0.00     0.02  -0.04   0.03
  20   1     0.07  -0.23   0.09    -0.00   0.02  -0.01    -0.00  -0.02   0.00
                     31                     32                     33
                        a                      a                      a 
 Frequencies --  1321.0753              1333.7719              1395.7010
 Red. masses --     3.9818                 4.5833                 3.3467
 Frc consts  --     0.0000                 0.0000                 0.0000
 IR Inten    --     5.7654                 7.4054                 8.5899
 Raman Activ --     0.0000                 0.0000                 0.0000
 Depolar     --     0.0000                 0.0000                 0.0000
 Atom AN      X      Y      Z        X      Y      Z        X      Y      Z
   1   6     0.00   0.02  -0.01     0.04   0.11  -0.07     0.00   0.00   0.00
   2   6    -0.06  -0.05  -0.02    -0.22  -0.40  -0.25    -0.00   0.00   0.01
   3   6     0.13   0.06  -0.04     0.06   0.06   0.08     0.01   0.01  -0.00
   4   6    -0.11   0.03   0.01     0.08  -0.05  -0.01    -0.04   0.01   0.01
   5   8     0.00  -0.01   0.02    -0.01  -0.01   0.02     0.00   0.00  -0.00
   6   8     0.10   0.04  -0.09    -0.04   0.02  -0.00     0.04   0.00  -0.02
   7   6     0.33  -0.26   0.08    -0.05   0.04  -0.01     0.09  -0.06   0.02
   8   6    -0.06  -0.06   0.08     0.01   0.01  -0.02    -0.27   0.31  -0.16
   9   1    -0.01  -0.01  -0.00    -0.05   0.01   0.05    -0.00  -0.00   0.00
  10   1     0.00  -0.01   0.01     0.05  -0.03   0.06    -0.00  -0.01  -0.00
  11   1     0.00   0.01   0.02     0.03   0.05   0.20    -0.00  -0.00  -0.01
  12   1     0.06   0.10   0.04     0.21   0.46   0.26     0.01  -0.00  -0.01
  13   1    -0.01  -0.01   0.01     0.17   0.38   0.24    -0.01   0.00  -0.01
  14   1    -0.04  -0.04   0.02     0.03   0.13  -0.03     0.01  -0.01   0.00
  15   1    -0.11  -0.10   0.02    -0.14  -0.10   0.07     0.00  -0.01  -0.01
  16   1    -0.48   0.29   0.02     0.06  -0.04  -0.00    -0.14   0.01   0.02
  17   1    -0.49   0.26  -0.02     0.07  -0.04   0.01    -0.12   0.05   0.06
  18   1    -0.05   0.03  -0.08     0.01  -0.00   0.01     0.38  -0.23   0.17
  19   1    -0.06   0.16  -0.12     0.01  -0.03   0.02     0.09  -0.39   0.34
  20   1    -0.01   0.10  -0.01     0.01  -0.02   0.00     0.33  -0.36   0.02
                     34                     35                     36
                        a                      a                      a 
 Frequencies --  1413.9161              1433.6284              1463.4671
 Red. masses --     3.1519                 2.0357                 1.5200
 Frc consts  --     0.0000                 0.0000                 0.0000
 IR Inten    --     1.4258                 7.0223                 5.2468
 Raman Activ --     0.0000                 0.0000                 0.0000
 Depolar     --     0.0000                 0.0000                 0.0000
 Atom AN      X      Y      Z        X      Y      Z        X      Y      Z
   1   6    -0.11  -0.19  -0.37     0.00  -0.02  -0.06     0.00  -0.00   0.00
   2   6     0.04   0.08   0.03    -0.00   0.01  -0.01     0.00   0.01  -0.02
   3   6     0.03  -0.03  -0.05    -0.14   0.23   0.12     0.00  -0.00  -0.00
   4   6    -0.01   0.00  -0.01     0.02  -0.00   0.02    -0.00  -0.00  -0.00
   5   8    -0.00  -0.01   0.01     0.00   0.02  -0.02    -0.00   0.00  -0.00
   6   8     0.00   0.00  -0.00    -0.01  -0.00  -0.00    -0.00   0.00   0.01
   7   6     0.00  -0.00   0.00    -0.01   0.01  -0.00    -0.02  -0.04  -0.02
   8   6    -0.00   0.01  -0.00     0.01  -0.00  -0.00    -0.07  -0.14  -0.14
   9   1     0.03   0.36   0.36    -0.03   0.03   0.06     0.01   0.00  -0.01
  10   1     0.27   0.23   0.35     0.05   0.03   0.06    -0.00   0.01  -0.01
  11   1     0.05   0.01   0.50    -0.03   0.02   0.06    -0.00   0.00   0.00
  12   1    -0.09  -0.08   0.02    -0.04  -0.00   0.05    -0.03  -0.01   0.03
  13   1    -0.00  -0.13   0.01     0.03  -0.02   0.05     0.02  -0.03   0.03
  14   1    -0.09   0.04  -0.01     0.42  -0.47   0.14    -0.01   0.01  -0.00
  15   1    -0.01   0.06   0.08     0.03  -0.39  -0.55     0.00   0.01   0.01
  16   1    -0.01   0.01  -0.00     0.01  -0.01   0.00     0.02   0.06  -0.02
  17   1    -0.00   0.00  -0.00     0.01  -0.01   0.01     0.01  -0.02  -0.03
  18   1     0.01  -0.00   0.00    -0.01   0.00   0.00    -0.41   0.19   0.14
  19   1    -0.00  -0.01   0.00     0.00   0.01   0.00     0.25   0.46   0.48
  20   1     0.00  -0.01   0.00    -0.00   0.00  -0.00     0.45  -0.08  -0.04
                     37                     38                     39
                        a                      a                      a 
 Frequencies --  1467.5330              1476.2237              1480.9916
 Red. masses --     1.8729                 1.9377                 1.5759
 Frc consts  --     0.0000                 0.0000                 0.0000
 IR Inten    --     0.5691                 0.8399                 3.7916
 Raman Activ --     0.0000                 0.0000                 0.0000
 Depolar     --     0.0000                 0.0000                 0.0000
 Atom AN      X      Y      Z        X      Y      Z        X      Y      Z
   1   6    -0.00  -0.00  -0.00     0.01   0.03   0.04     0.00  -0.00   0.00
   2   6    -0.00  -0.00   0.01     0.04   0.11  -0.26     0.00   0.01  -0.02
   3   6     0.00  -0.00  -0.00     0.02  -0.01  -0.02     0.00   0.00  -0.00
   4   6    -0.01   0.01  -0.01    -0.02   0.02  -0.01    -0.00   0.00   0.00
   5   8     0.00  -0.01   0.01    -0.00  -0.01   0.01     0.00  -0.00  -0.00
   6   8     0.05   0.01  -0.03     0.01  -0.01  -0.00     0.00  -0.00  -0.00
   7   6     0.05   0.18  -0.19     0.02   0.00  -0.01    -0.06   0.00   0.03
   8   6     0.02  -0.04   0.01     0.01   0.02  -0.00    -0.14  -0.08   0.15
   9   1     0.01   0.01   0.00     0.02  -0.03  -0.07     0.01   0.00  -0.01
  10   1    -0.00   0.00  -0.00    -0.04  -0.02  -0.06    -0.01   0.01  -0.01
  11   1     0.01  -0.00   0.01     0.01  -0.00  -0.05    -0.00   0.00   0.00
  12   1     0.01  -0.00  -0.02    -0.44  -0.07   0.50    -0.04  -0.01   0.05
  13   1    -0.01   0.01  -0.01     0.28  -0.39   0.45     0.03  -0.04   0.04
  14   1    -0.00   0.00  -0.00    -0.02   0.03  -0.02    -0.00   0.00  -0.00
  15   1     0.00   0.00   0.00     0.01   0.03   0.03    -0.00   0.00   0.00
  16   1    -0.36  -0.56   0.13    -0.03  -0.02   0.01     0.04  -0.01   0.00
  17   1    -0.06  -0.05   0.66    -0.02   0.01   0.03     0.04  -0.02  -0.01
  18   1    -0.06   0.04  -0.03     0.02  -0.02   0.05     0.14   0.01  -0.64
  19   1     0.01   0.06   0.01    -0.02  -0.01  -0.05     0.04  -0.21   0.17
  20   1     0.01   0.04  -0.01    -0.06  -0.04   0.01     0.40   0.50  -0.11
                     40                     41                     42
                        a                      a                      a 
 Frequencies --  1496.3955              1502.1854              1691.7795
 Red. masses --     1.5173                 1.5780                13.3219
 Frc consts  --     0.0000                 0.0000                 0.0000
 IR Inten    --     2.5687                 0.4199               684.5889
 Raman Activ --     0.0000                 0.0000                 0.0000
 Depolar     --     0.0000                 0.0000                 0.0000
 Atom AN      X      Y      Z        X      Y      Z        X      Y      Z
   1   6    -0.20   0.05   0.04     0.03   0.19  -0.11     0.00  -0.00   0.00
   2   6    -0.05   0.00   0.01     0.02   0.06  -0.02    -0.00  -0.01   0.01
   3   6     0.00   0.02   0.00    -0.00  -0.02   0.00    -0.07  -0.01   0.06
   4   6    -0.00   0.00   0.00     0.01   0.01  -0.01     0.21   0.43  -0.64
   5   8     0.00   0.00  -0.00    -0.00  -0.01   0.01    -0.13  -0.33   0.47
   6   8     0.00  -0.00   0.00    -0.00   0.00   0.00     0.01  -0.04   0.04
   7   6    -0.00  -0.00   0.00    -0.00   0.00  -0.00     0.01   0.00  -0.01
   8   6    -0.00  -0.00  -0.00    -0.00  -0.01   0.00    -0.01  -0.00   0.01
   9   1     0.35   0.41  -0.00    -0.41  -0.11   0.41     0.01   0.00  -0.01
  10   1    -0.16  -0.34  -0.18     0.19  -0.57   0.34    -0.01   0.01  -0.01
  11   1     0.64  -0.27   0.03     0.12  -0.07  -0.32    -0.00   0.00   0.01
  12   1     0.01   0.00  -0.03    -0.03  -0.02  -0.01    -0.00  -0.01  -0.00
  13   1     0.00   0.02   0.03     0.00  -0.03  -0.00    -0.00   0.01   0.00
  14   1     0.02  -0.03   0.01    -0.01   0.01  -0.00    -0.02  -0.01   0.01
  15   1    -0.01  -0.03  -0.03    -0.00   0.01   0.02     0.05   0.02  -0.05
  16   1     0.01   0.01  -0.00    -0.00  -0.01   0.00    -0.01   0.02  -0.01
  17   1     0.00   0.00  -0.01    -0.00  -0.00   0.01    -0.01   0.01  -0.01
  18   1     0.00  -0.00  -0.00    -0.01   0.00  -0.01     0.01  -0.01  -0.00
  19   1    -0.00  -0.00   0.00     0.00   0.00   0.01    -0.00   0.00  -0.00
  20   1     0.00   0.00  -0.00     0.01   0.01  -0.00     0.01  -0.00   0.00
                     43                     44                     45
                        a                      a                      a 
 Frequencies --  2924.3658              2946.7908              2980.6833
 Red. masses --     1.9840                 1.4575                 1.7529
 Frc consts  --     0.0000                 0.0000                 0.0000
 IR Inten    --    41.2476                40.8760                 9.7395
 Raman Activ --     0.0000                 0.0000                 0.0000
 Depolar     --     0.0000                 0.0000                 0.0000
 Atom AN      X      Y      Z        X      Y      Z        X      Y      Z
   1   6     0.00   0.00  -0.00     0.00  -0.00  -0.00     0.00  -0.00   0.00
   2   6    -0.00   0.00   0.00     0.00  -0.00  -0.00    -0.03  -0.01   0.02
   3   6     0.00  -0.00   0.00     0.00   0.00   0.00    -0.05  -0.08  -0.24
   4   6     0.00   0.00   0.00    -0.00   0.00  -0.00     0.00  -0.00  -0.01
   5   8    -0.00  -0.00  -0.00    -0.00  -0.00   0.00    -0.00  -0.00   0.00
   6   8    -0.00  -0.00  -0.00     0.02  -0.00  -0.01     0.00   0.00   0.00
   7   6    -0.11  -0.19  -0.20     0.05   0.13  -0.15     0.00   0.00  -0.00
   8   6     0.00   0.01   0.01    -0.01  -0.00   0.01    -0.00  -0.00   0.00
   9   1     0.00  -0.00   0.00    -0.00   0.00  -0.00    -0.01   0.01  -0.01
  10   1    -0.00   0.00   0.00    -0.00   0.00   0.00     0.00   0.00   0.00
  11   1    -0.00  -0.00   0.00    -0.00  -0.00   0.00     0.00   0.00  -0.00
  12   1     0.00  -0.00   0.00    -0.00  -0.00   0.00    -0.04   0.03  -0.02
  13   1     0.00  -0.00  -0.00    -0.00   0.00   0.00     0.13  -0.01  -0.08
  14   1    -0.00  -0.00  -0.00    -0.00  -0.00  -0.01     0.15   0.34   0.87
  15   1    -0.00   0.00  -0.00    -0.00   0.00  -0.00     0.02  -0.03  -0.01
  16   1     0.07   0.09   0.66     0.09   0.15   0.67     0.00   0.00   0.01
  17   1     0.32   0.59   0.06    -0.33  -0.60  -0.12    -0.00  -0.00  -0.00
  18   1    -0.02  -0.03  -0.00     0.01   0.02   0.01     0.00   0.00   0.00
  19   1     0.00   0.00   0.00     0.02  -0.00  -0.01     0.00  -0.00  -0.00
  20   1    -0.00  -0.00  -0.04    -0.00  -0.01  -0.03    -0.00  -0.00  -0.00
                     46                     47                     48
                        a                      a                      a 
 Frequencies --  2988.8256              3001.2998              3008.8672
 Red. masses --     1.9404                 1.5017                 1.7514
 Frc consts  --     0.0000                 0.0000                 0.0000
 IR Inten    --    26.2115                20.1655                44.6592
 Raman Activ --     0.0000                 0.0000                 0.0000
 Depolar     --     0.0000                 0.0000                 0.0000
 Atom AN      X      Y      Z        X      Y      Z        X      Y      Z
   1   6     0.05  -0.01  -0.01     0.01   0.02  -0.01     0.02  -0.03   0.01
   2   6    -0.26   0.09   0.06     0.01  -0.10   0.16    -0.06   0.07  -0.06
   3   6     0.03  -0.02   0.05    -0.06   0.07  -0.02    -0.14   0.14  -0.11
   4   6     0.00  -0.00   0.00    -0.00   0.00  -0.00    -0.00   0.01  -0.00
   5   8    -0.00  -0.00   0.00    -0.00  -0.00   0.00     0.00  -0.00   0.00
   6   8    -0.00  -0.00  -0.00    -0.00   0.00   0.00     0.00  -0.00   0.00
   7   6     0.00   0.00   0.00     0.00   0.00  -0.00     0.00   0.00  -0.00
   8   6     0.00   0.00  -0.00    -0.00  -0.00   0.00    -0.00   0.00   0.00
   9   1    -0.05   0.05  -0.05     0.05  -0.03   0.03    -0.08   0.07  -0.06
  10   1    -0.12   0.01   0.09    -0.04   0.01   0.02    -0.02  -0.00   0.02
  11   1    -0.00  -0.02   0.00    -0.03  -0.06   0.01     0.03   0.05  -0.01
  12   1     0.29  -0.28   0.24    -0.48   0.41  -0.32     0.29  -0.25   0.20
  13   1     0.66  -0.04  -0.43     0.44  -0.05  -0.26    -0.06   0.01   0.03
  14   1    -0.01  -0.04  -0.08    -0.03  -0.04  -0.13    -0.02   0.02  -0.02
  15   1    -0.12   0.12  -0.10     0.25  -0.24   0.21     0.53  -0.51   0.43
  16   1    -0.00  -0.00  -0.00     0.00   0.00   0.00     0.00   0.00   0.00
  17   1    -0.00  -0.00  -0.00    -0.00  -0.00  -0.00    -0.00  -0.00  -0.00
  18   1    -0.00  -0.00   0.00     0.00   0.00   0.00    -0.00  -0.00   0.00
  19   1    -0.00   0.00   0.00     0.00  -0.00  -0.00     0.00   0.00  -0.00
  20   1     0.00   0.00   0.00     0.00  -0.00  -0.00     0.00  -0.00  -0.00
                     49                     50                     51
                        a                      a                      a 
 Frequencies --  3020.9564              3035.2443              3045.3549
 Red. masses --     1.8895                 1.7972                 1.4664
 Frc consts  --     0.0000                 0.0000                 0.0000
 IR Inten    --    97.6912                73.4070                39.0827
 Raman Activ --     0.0000                 0.0000                 0.0000
 Depolar     --     0.0000                 0.0000                 0.0000
 Atom AN      X      Y      Z        X      Y      Z        X      Y      Z
   1   6    -0.26   0.03   0.10    -0.06   0.21  -0.15     0.10   0.17   0.04
   2   6    -0.06   0.02   0.01    -0.02   0.03  -0.03     0.01   0.01  -0.01
   3   6    -0.00   0.01   0.00    -0.01   0.01  -0.01    -0.00   0.00  -0.00
   4   6     0.00   0.00   0.00    -0.00   0.00  -0.00    -0.00   0.00   0.00
   5   8    -0.00  -0.00   0.00     0.00  -0.00   0.00     0.00   0.00  -0.00
   6   8     0.00  -0.00  -0.00     0.00  -0.00   0.00     0.00  -0.00  -0.00
   7   6     0.00   0.00  -0.00     0.00   0.00   0.00    -0.00   0.00   0.00
   8   6    -0.00   0.00   0.00    -0.00  -0.00  -0.00     0.00   0.00   0.00
   9   1     0.16  -0.17   0.15     0.58  -0.49   0.40    -0.18   0.20  -0.14
  10   1     0.74  -0.05  -0.50    -0.22   0.05   0.12     0.18   0.01  -0.11
  11   1     0.00   0.10   0.00    -0.14  -0.28   0.02    -0.35  -0.83   0.11
  12   1     0.05  -0.05   0.04     0.09  -0.08   0.06     0.02  -0.01   0.01
  13   1     0.13  -0.01  -0.08    -0.02   0.00   0.01    -0.03   0.00   0.02
  14   1    -0.00  -0.01  -0.02     0.00   0.01   0.02     0.00   0.00   0.00
  15   1     0.01  -0.01   0.01     0.04  -0.04   0.03     0.01  -0.01   0.00
  16   1     0.00   0.00   0.00     0.00   0.00  -0.00    -0.00  -0.00  -0.00
  17   1    -0.00  -0.00  -0.00    -0.00  -0.00  -0.00    -0.00   0.00   0.00
  18   1    -0.00  -0.00  -0.00     0.00  -0.00  -0.00    -0.00  -0.01  -0.00
  19   1     0.00  -0.00  -0.00     0.00  -0.00  -0.00     0.00   0.00  -0.00
  20   1    -0.00  -0.00  -0.01     0.00   0.00   0.00    -0.00  -0.00  -0.01
                     52                     53                     54
                        a                      a                      a 
 Frequencies --  3055.3562              3058.6395              3064.8757
 Red. masses --     1.9199                 1.4401                 1.8157
 Frc consts  --     0.0000                 0.0000                 0.0000
 IR Inten    --    29.7695                19.3612                23.0596
 Raman Activ --     0.0000                 0.0000                 0.0000
 Depolar     --     0.0000                 0.0000                 0.0000
 Atom AN      X      Y      Z        X      Y      Z        X      Y      Z
   1   6     0.00  -0.00  -0.00    -0.00   0.00   0.00    -0.00   0.00   0.00
   2   6     0.00  -0.00   0.00    -0.00  -0.00   0.00    -0.00   0.00   0.00
   3   6    -0.00  -0.00  -0.00    -0.00   0.00  -0.00    -0.00  -0.00  -0.00
   4   6     0.00   0.00   0.00     0.00  -0.00   0.00    -0.00   0.00  -0.00
   5   8     0.00  -0.00   0.00     0.00  -0.00   0.00    -0.00  -0.00   0.00
   6   8    -0.00  -0.00  -0.00    -0.00   0.00  -0.00    -0.00  -0.00   0.00
   7   6     0.01   0.02   0.01    -0.00   0.00  -0.01     0.01   0.00  -0.01
   8   6     0.12   0.22   0.15     0.01   0.06  -0.19     0.24  -0.01  -0.13
   9   1     0.00  -0.00   0.00    -0.00   0.00  -0.00     0.00  -0.00   0.00
  10   1    -0.01   0.00   0.00     0.00  -0.00  -0.00     0.00  -0.00  -0.00
  11   1     0.00   0.01  -0.00    -0.00  -0.00   0.00    -0.00  -0.00   0.00
  12   1    -0.00   0.00  -0.00    -0.00   0.00  -0.00    -0.00  -0.00   0.00
  13   1     0.00  -0.00  -0.00     0.00  -0.00  -0.00     0.00  -0.00  -0.00
  14   1     0.00   0.00   0.00     0.00   0.00   0.00     0.00   0.00   0.00
  15   1    -0.00   0.00  -0.00     0.00  -0.00   0.00     0.00  -0.00   0.00
  16   1    -0.00  -0.00  -0.03     0.00   0.01   0.03     0.00   0.00   0.02
  17   1    -0.02  -0.03  -0.01    -0.01  -0.01  -0.00    -0.01  -0.01  -0.00
  18   1    -0.42  -0.73  -0.11    -0.22  -0.38  -0.09    -0.01  -0.06  -0.03
  19   1     0.03   0.03   0.02     0.13  -0.00  -0.08    -0.87   0.07   0.38
  20   1    -0.02  -0.06  -0.43     0.07   0.17   0.84     0.04   0.02   0.10
