      -----------------------------------------------------------      
     |                   =====================                   |     
     |                           x T B                           |     
     |                   =====================                   |     
     |                         S. Grimme                         |     
     |          Mulliken Center for Theoretical Chemistry        |     
     |                    University of Bonn                     |     
      -----------------------------------------------------------      

   * xtb version 6.7.1 (edcfbbe) compiled by 'albert@albert-system' on 2024-07-22

   xtb is free software: you can redistribute it and/or modify it under
   the terms of the GNU Lesser General Public License as published by
   the Free Software Foundation, either version 3 of the License, or
   (at your option) any later version.
   
   xtb is distributed in the hope that it will be useful,
   but WITHOUT ANY WARRANTY; without even the implied warranty of
   MERCHANTABILITY or FITNESS FOR A PARTICULAR PURPOSE.  See the
   GNU Lesser General Public License for more details.
   
   Cite this work as:
   * C. Bannwarth, E. Caldeweyher, S. Ehlert, A. Hansen, P. Pracht,
     J. Seibert, S. Spicher, S. Grimme, WIREs Comput. Mol. Sci., 2020, 11,
     e01493. DOI: 10.1002/wcms.1493
   
   for GFN2-xTB:
   * C. Bannwarth, S. Ehlert and S. Grimme., J. Chem. Theory Comput., 2019,
     15, 1652-1671. DOI: 10.1021/acs.jctc.8b01176
   for GFN1-xTB:
   * S. Grimme, C. Bannwarth, P. Shushkov, J. Chem. Theory Comput., 2017,
     13, 1989-2009. DOI: 10.1021/acs.jctc.7b00118
   for GFN0-xTB:
   * P. Pracht, E. Caldeweyher, S. Ehlert, S. Grimme, ChemRxiv, 2019, preprint.
     DOI: 10.26434/chemrxiv.8326202.v1
   for GFN-FF:
   * S. Spicher and S. Grimme, Angew. Chem. Int. Ed., 2020, 59, 15665-15673.
     DOI: 10.1002/anie.202004239
   
   for ALPB and GBSA implicit solvation:
   * S. Ehlert, M. Stahn, S. Spicher, S. Grimme, J. Chem. Theory Comput.,
     2021, 17, 4250-4261. DOI: 10.1021/acs.jctc.1c00471
   
   for ddCOSMO and CPCM-X implicit solvation:
   * M. Stahn, S. Ehlert, S. Grimme, J. Phys. Chem. A,
     2023, XX, XXXX-XXXX. DOI: 10.1021/acs.jpca.3c04382
   
   for DFT-D4:
   * E. Caldeweyher, C. Bannwarth and S. Grimme, J. Chem. Phys., 2017,
     147, 034112. DOI: 10.1063/1.4993215
   * E. Caldeweyher, S. Ehlert, A. Hansen, H. Neugebauer, S. Spicher,
     C. Bannwarth and S. Grimme, J. Chem. Phys., 2019, 150, 154122.
     DOI: 10.1063/1.5090222
   * E. Caldeweyher, J.-M. Mewes, S. Ehlert and S. Grimme, Phys. Chem. Chem. Phys.
     2020, 22, 8499-8512. DOI: 10.1039/D0CP00502A
   
   for sTDA-xTB:
   * S. Grimme and C. Bannwarth, J. Chem. Phys., 2016, 145, 054103.
     DOI: 10.1063/1.4959605
   
   in the mass-spec context:
   * V. Asgeirsson, C. Bauer and S. Grimme, Chem. Sci., 2017, 8, 4879.
     DOI: 10.1039/c7sc00601b
   * J. Koopman and S. Grimme, ACS Omega 2019, 4, 12, 15120-15133.
     DOI: 10.1021/acsomega.9b02011
   
   for metadynamics refer to:
   * S. Grimme, J. Chem. Theory Comput., 2019, 155, 2847-2862
     DOI: 10.1021/acs.jctc.9b00143
   
   for SPH calculations refer to:
   * S. Spicher and S. Grimme, J. Chem. Theory Comput., 2021, 17, 1701-1714
     DOI: 10.1021/acs.jctc.0c01306
   
   for ONIOM refer to:
   * C. Plett, A. Katbashev, S. Ehlert, S. Grimme, M. Bursch,
     Phys. Chem. Chem. Phys., 2023, 25, 17860-17868. DOI: 10.1039/D3CP02178E
   
   for DIPRO refer to:
   * J. Kohn, N. Gildemeister, S. Grimme, D. Fazzi, A. Hansen,
     J. Chem. Phys., 2023, just accepted.
   
   for PTB refer to:
   * S. Grimme, M. Mueller, A. Hansen, J. Chem. Phys., 2023, 158, 124111.
     DOI: 10.1063/5.0137838
   
   with help from (in alphabetical order)
   P. Atkinson, C. Bannwarth, F. Bohle, G. Brandenburg, E. Caldeweyher
   M. Checinski, S. Dohm, S. Ehlert, S. Ehrlich, I. Gerasimov, C. Hölzer
   A. Katbashev, J. Kohn, J. Koopman, C. Lavigne, S. Lehtola, F. März, M. Müller,
   F. Musil, H. Neugebauer, J. Pisarek, C. Plett, P. Pracht, F. Pultar,
   J. Seibert, P. Shushkov, S. Spicher, M. Stahn, M. Steiner, T. Strunk,
   J. Stückrath, T. Rose, and J. Unsleber
   
 * started run on 2025/04/11 at 12:25:55.105     
   ID    Z sym.   atoms
    1    6 C      1-4
    2   53 I      5
    3    1 H      6-14

           -------------------------------------------------
          |                Calculation Setup                |
           -------------------------------------------------

          program call               : /srv/scratch/z5358697/.xtb/bin/xtb solv.coord --gfn2 --sp --chrg 0 --norestart --parallel 1 --alpb water reference -I xtb_sp-xcontrol-inp
          hostname                   : k112
          coordinate file            : solv.coord
          omp threads                :                     1


           -------------------------------------------------
          |                 G F N 2 - x T B                 |
           -------------------------------------------------

        Reference                      10.1021/acs.jctc.8b01176
      * Hamiltonian:
        H0-scaling (s, p, d)           1.850000    2.230000    2.230000
        zeta-weighting                 0.500000
      * Dispersion:
        s8                             2.700000
        a1                             0.520000
        a2                             5.000000
        s9                             5.000000
      * Repulsion:
        kExp                           1.500000    1.000000
        rExp                           1.000000
      * Coulomb:
        alpha                          2.000000
        third order                    shell-resolved
        anisotropic                    true
        a3                             3.000000
        a5                             4.000000
        cn-shift                       1.200000
        cn-exp                         4.000000
        max-rad                        5.000000

      * Solvation model:               ALPB
        Solvent                        water
        Parameter file                 internal GFN2-xTB/ALPB
        Dielectric constant                8.0200E+01
        Reference state                gsolv=reference [X=1]
        Free energy shift                  2.8945E-03 Eh       1.8164E+00 kcal/mol
        Temperature                        2.9815E+02 K
        Density                            1.0000E+00 kg/L
        Solvent mass                       1.8000E+01 g/mol
        Interaction kernel             P16
        Born radius scaling (c1)           1.4744E+00
        Born radii integrator          GBOBC
        Born offset                        0.0000E+00 a0       0.0000E+00 AA
        H-bond correction              true
        Ion screening                  false
        Surface tension                    1.0000E-05 Eh       1.5569E+01 dyn/cm
        Grid points                               974 per atom

          ...................................................
          :                      SETUP                      :
          :.................................................:
          :  # basis functions                  35          :
          :  # atomic orbitals                  34          :
          :  # shells                           20          :
          :  # electrons                        32          :
          :  max. iterations                   250          :
          :  Hamiltonian                  GFN2-xTB          :
          :  restarted?                      false          :
          :  GBSA solvation                   true          :
          :  PC potential                    false          :
          :  electronic temp.          300.0000000     K    :
          :  accuracy                    1.0000000          :
          :  -> integral cutoff          0.2500000E+02      :
          :  -> integral neglect         0.1000000E-07      :
          :  -> SCF convergence          0.1000000E-05 Eh   :
          :  -> wf. convergence          0.1000000E-03 e    :
          :  Broyden damping             0.4000000          :
          :  net charge                          0          :
          :  unpaired electrons                  0          :
          ...................................................

 iter      E             dE          RMSdq      gap      omega  full diag
   1    -17.1442551 -0.171443E+02  0.502E+00    5.33       0.0  T
   2    -17.1659605 -0.217053E-01  0.361E+00    4.76       1.0  T
   3    -17.1641952  0.176527E-02  0.138E+00    4.94       1.0  T
   4    -17.1693164 -0.512115E-02  0.551E-01    4.73       1.0  T
   5    -17.1694703 -0.153920E-03  0.295E-01    4.74       1.0  T
   6    -17.1695534 -0.831218E-04  0.168E-01    4.70       1.0  T
   7    -17.1695801 -0.267125E-04  0.678E-02    4.70       1.0  T
   8    -17.1695838 -0.368249E-05  0.116E-02    4.70       2.3  T
   9    -17.1695838 -0.250308E-07  0.287E-03    4.70       9.3  T
  10    -17.1695838 -0.207506E-07  0.737E-04    4.70      36.3  T
  11    -17.1695838 -0.335906E-09  0.449E-04    4.70      59.5  T

   *** convergence criteria satisfied after 11 iterations ***

         #    Occupation            Energy/Eh            Energy/eV
      -------------------------------------------------------------
         1        2.0000           -0.7342210             -19.9792
       ...           ...                  ...                  ...
        10        2.0000           -0.4838985             -13.1675
        11        2.0000           -0.4639392             -12.6244
        12        2.0000           -0.4437315             -12.0745
        13        2.0000           -0.4404394             -11.9850
        14        2.0000           -0.4345685             -11.8252
        15        2.0000           -0.4069261             -11.0730
        16        2.0000           -0.4047970             -11.0151 (HOMO)
        17                         -0.2321358              -6.3167 (LUMO)
        18                          0.0191769               0.5218
        19                          0.0234050               0.6369
        20                          0.0337226               0.9176
        21                          0.0476959               1.2979
       ...                                ...                  ...
        34                          0.3674649               9.9992
      -------------------------------------------------------------
                  HL-Gap            0.1726612 Eh            4.6984 eV
             Fermi-level           -0.3184664 Eh           -8.6659 eV

 SCC (total)                   0 d,  0 h,  0 min,  0.010 sec
 SCC setup                      ...        0 min,  0.001 sec (  7.885%)
 Dispersion                     ...        0 min,  0.000 sec (  0.600%)
 classical contributions        ...        0 min,  0.000 sec (  0.159%)
 integral evaluation            ...        0 min,  0.002 sec ( 19.631%)
 iterations                     ...        0 min,  0.004 sec ( 42.331%)
 molecular gradient             ...        0 min,  0.003 sec ( 27.772%)
 printout                       ...        0 min,  0.000 sec (  1.487%)

         :::::::::::::::::::::::::::::::::::::::::::::::::::::
         ::                     SUMMARY                     ::
         :::::::::::::::::::::::::::::::::::::::::::::::::::::
         :: total energy             -16.969429655103 Eh    ::
         :: total w/o Gsasa/hb       -16.968951159267 Eh    ::
         :: gradient norm              0.000970291404 Eh/a0 ::
         :: HOMO-LUMO gap              4.698350636824 eV    ::
         ::.................................................::
         :: SCC energy               -17.169567627816 Eh    ::
         :: -> isotropic ES            0.007453382814 Eh    ::
         :: -> anisotropic ES          0.003150007048 Eh    ::
         :: -> anisotropic XC          0.007812070569 Eh    ::
         :: -> dispersion             -0.008924784094 Eh    ::
         :: -> Gsolv                  -0.002199419397 Eh    ::
         ::    -> Gelec               -0.001720923561 Eh    ::
         ::    -> Gsasa               -0.002480023969 Eh    ::
         ::    -> Ghb                 -0.000893021027 Eh    ::
         ::    -> Gshift               0.002894549160 Eh    ::
         :: repulsion energy           0.200137972713 Eh    ::
         :: add. restraining           0.000000000000 Eh    ::
         :: total charge              -0.000000000000 e     ::
         :::::::::::::::::::::::::::::::::::::::::::::::::::::

           -------------------------------------------------
          |                Property Printout                |
           -------------------------------------------------

    * Orbital Energies and Occupations

         #    Occupation            Energy/Eh            Energy/eV
      -------------------------------------------------------------
         1        2.0000           -0.7342210             -19.9792
       ...           ...                  ...                  ...
         4        2.0000           -0.5908018             -16.0765
         5        2.0000           -0.5606100             -15.2550
         6        2.0000           -0.5308354             -14.4448
         7        2.0000           -0.5252682             -14.2933
         8        2.0000           -0.5006397             -13.6231
         9        2.0000           -0.4884798             -13.2922
        10        2.0000           -0.4838985             -13.1675
        11        2.0000           -0.4639392             -12.6244
        12        2.0000           -0.4437315             -12.0745
        13        2.0000           -0.4404394             -11.9850
        14        2.0000           -0.4345685             -11.8252
        15        2.0000           -0.4069261             -11.0730
        16        2.0000           -0.4047970             -11.0151 (HOMO)
        17                         -0.2321358              -6.3167 (LUMO)
        18                          0.0191769               0.5218
        19                          0.0234050               0.6369
        20                          0.0337226               0.9176
        21                          0.0476959               1.2979
        22                          0.0879569               2.3934
        23                          0.1031970               2.8081
        24                          0.1253598               3.4112
        25                          0.1360120               3.7011
        26                          0.1596415               4.3441
        27                          0.1726451               4.6979
       ...                                ...                  ...
        34                          0.3674649               9.9992
      -------------------------------------------------------------
                  HL-Gap            0.1726612 Eh            4.6984 eV
             Fermi-level           -0.3184664 Eh           -8.6659 eV

     #   Z          covCN         q      C6AA      α(0)
     1   6 C        3.751    -0.110    22.658     6.788
     2   6 C        3.801    -0.058    21.614     6.619
     3   6 C        3.888    -0.060    21.604     6.608
     4   6 C        3.780     0.001    20.590     6.464
     5  53 I        1.057    -0.203   387.125    33.965
     6   1 H        0.925     0.035     2.511     2.478
     7   1 H        0.925     0.039     2.462     2.454
     8   1 H        0.925     0.041     2.430     2.438
     9   1 H        0.924     0.040     2.445     2.445
    10   1 H        0.924     0.043     2.404     2.425
    11   1 H        0.924     0.047     2.353     2.399
    12   1 H        0.924     0.057     2.230     2.335
    13   1 H        0.932     0.065     2.138     2.286
    14   1 H        0.933     0.060     2.194     2.316

 Mol. C6AA /au·bohr⁶  :       2694.861747
 Mol. C8AA /au·bohr⁸  :     112565.162469
 Mol. α(0) /au        :         82.020723


Wiberg/Mayer (AO) data.
largest (>0.10) Wiberg bond orders for each atom

 ---------------------------------------------------------------------------
     #   Z sym  total        # sym  WBO       # sym  WBO       # sym  WBO
 ---------------------------------------------------------------------------
     1   6 C    3.996 --     2 C    1.020     7 H    0.987     8 H    0.986
                             6 H    0.986
     2   6 C    3.996 --     1 C    1.020     3 C    1.009     9 H    0.977
                            10 H    0.972
     3   6 C    3.994 --     4 C    1.029     2 C    1.009    11 H    0.976
                            12 H    0.957
     4   6 C    3.951 --     3 C    1.029    14 H    0.981    13 H    0.978
                             5 I    0.939
     5  53 I    0.992 --     4 C    0.939
     6   1 H    0.999 --     1 C    0.986
     7   1 H    0.998 --     1 C    0.987
     8   1 H    0.998 --     1 C    0.986
     9   1 H    0.998 --     2 C    0.977
    10   1 H    0.998 --     2 C    0.972
    11   1 H    0.998 --     3 C    0.976
    12   1 H    0.997 --     3 C    0.957
    13   1 H    0.996 --     4 C    0.978
    14   1 H    0.996 --     4 C    0.981
 ---------------------------------------------------------------------------

Topologies differ in total number of bonds
Writing topology from bond orders to xtbtopo.mol

molecular dipole:
                 x           y           z       tot (Debye)
 q only:       -0.931       0.519       0.035
   full:       -1.405       0.971       0.158       4.360
molecular quadrupole (traceless):
                xx          xy          yy          xz          yz          zz
 q only:        0.339      -0.932       0.520       0.177       0.318      -0.859
  q+dip:       -2.078       0.575       1.498       0.321       0.297       0.580
   full:       -1.290      -0.520       1.524       0.054       0.534      -0.234


           -------------------------------------------------
          | TOTAL ENERGY              -16.969429655103 Eh   |
          | GRADIENT NORM               0.000970291404 Eh/α |
          | HOMO-LUMO GAP               4.698350636824 eV   |
           -------------------------------------------------

------------------------------------------------------------------------
 * finished run on 2025/04/11 at 12:25:55.151     
------------------------------------------------------------------------
 total:
 * wall-time:     0 d,  0 h,  0 min,  0.046 sec
 *  cpu-time:     0 d,  0 h,  0 min,  0.017 sec
 * ratio c/w:     0.366 speedup
 SCF:
 * wall-time:     0 d,  0 h,  0 min,  0.010 sec
 *  cpu-time:     0 d,  0 h,  0 min,  0.010 sec
 * ratio c/w:     0.987 speedup

