      -----------------------------------------------------------      
     |                   =====================                   |     
     |                           x T B                           |     
     |                   =====================                   |     
     |                         S. Grimme                         |     
     |          Mulliken Center for Theoretical Chemistry        |     
     |                    University of Bonn                     |     
      -----------------------------------------------------------      

   * xtb version 6.7.1 (edcfbbe) compiled by 'albert@albert-system' on 2024-07-22

   xtb is free software: you can redistribute it and/or modify it under
   the terms of the GNU Lesser General Public License as published by
   the Free Software Foundation, either version 3 of the License, or
   (at your option) any later version.
   
   xtb is distributed in the hope that it will be useful,
   but WITHOUT ANY WARRANTY; without even the implied warranty of
   MERCHANTABILITY or FITNESS FOR A PARTICULAR PURPOSE.  See the
   GNU Lesser General Public License for more details.
   
   Cite this work as:
   * C. Bannwarth, E. Caldeweyher, S. Ehlert, A. Hansen, P. Pracht,
     J. Seibert, S. Spicher, S. Grimme, WIREs Comput. Mol. Sci., 2020, 11,
     e01493. DOI: 10.1002/wcms.1493
   
   for GFN2-xTB:
   * C. Bannwarth, S. Ehlert and S. Grimme., J. Chem. Theory Comput., 2019,
     15, 1652-1671. DOI: 10.1021/acs.jctc.8b01176
   for GFN1-xTB:
   * S. Grimme, C. Bannwarth, P. Shushkov, J. Chem. Theory Comput., 2017,
     13, 1989-2009. DOI: 10.1021/acs.jctc.7b00118
   for GFN0-xTB:
   * P. Pracht, E. Caldeweyher, S. Ehlert, S. Grimme, ChemRxiv, 2019, preprint.
     DOI: 10.26434/chemrxiv.8326202.v1
   for GFN-FF:
   * S. Spicher and S. Grimme, Angew. Chem. Int. Ed., 2020, 59, 15665-15673.
     DOI: 10.1002/anie.202004239
   
   for ALPB and GBSA implicit solvation:
   * S. Ehlert, M. Stahn, S. Spicher, S. Grimme, J. Chem. Theory Comput.,
     2021, 17, 4250-4261. DOI: 10.1021/acs.jctc.1c00471
   
   for ddCOSMO and CPCM-X implicit solvation:
   * M. Stahn, S. Ehlert, S. Grimme, J. Phys. Chem. A,
     2023, XX, XXXX-XXXX. DOI: 10.1021/acs.jpca.3c04382
   
   for DFT-D4:
   * E. Caldeweyher, C. Bannwarth and S. Grimme, J. Chem. Phys., 2017,
     147, 034112. DOI: 10.1063/1.4993215
   * E. Caldeweyher, S. Ehlert, A. Hansen, H. Neugebauer, S. Spicher,
     C. Bannwarth and S. Grimme, J. Chem. Phys., 2019, 150, 154122.
     DOI: 10.1063/1.5090222
   * E. Caldeweyher, J.-M. Mewes, S. Ehlert and S. Grimme, Phys. Chem. Chem. Phys.
     2020, 22, 8499-8512. DOI: 10.1039/D0CP00502A
   
   for sTDA-xTB:
   * S. Grimme and C. Bannwarth, J. Chem. Phys., 2016, 145, 054103.
     DOI: 10.1063/1.4959605
   
   in the mass-spec context:
   * V. Asgeirsson, C. Bauer and S. Grimme, Chem. Sci., 2017, 8, 4879.
     DOI: 10.1039/c7sc00601b
   * J. Koopman and S. Grimme, ACS Omega 2019, 4, 12, 15120-15133.
     DOI: 10.1021/acsomega.9b02011
   
   for metadynamics refer to:
   * S. Grimme, J. Chem. Theory Comput., 2019, 155, 2847-2862
     DOI: 10.1021/acs.jctc.9b00143
   
   for SPH calculations refer to:
   * S. Spicher and S. Grimme, J. Chem. Theory Comput., 2021, 17, 1701-1714
     DOI: 10.1021/acs.jctc.0c01306
   
   for ONIOM refer to:
   * C. Plett, A. Katbashev, S. Ehlert, S. Grimme, M. Bursch,
     Phys. Chem. Chem. Phys., 2023, 25, 17860-17868. DOI: 10.1039/D3CP02178E
   
   for DIPRO refer to:
   * J. Kohn, N. Gildemeister, S. Grimme, D. Fazzi, A. Hansen,
     J. Chem. Phys., 2023, just accepted.
   
   for PTB refer to:
   * S. Grimme, M. Mueller, A. Hansen, J. Chem. Phys., 2023, 158, 124111.
     DOI: 10.1063/5.0137838
   
   with help from (in alphabetical order)
   P. Atkinson, C. Bannwarth, F. Bohle, G. Brandenburg, E. Caldeweyher
   M. Checinski, S. Dohm, S. Ehlert, S. Ehrlich, I. Gerasimov, C. Hölzer
   A. Katbashev, J. Kohn, J. Koopman, C. Lavigne, S. Lehtola, F. März, M. Müller,
   F. Musil, H. Neugebauer, J. Pisarek, C. Plett, P. Pracht, F. Pultar,
   J. Seibert, P. Shushkov, S. Spicher, M. Stahn, M. Steiner, T. Strunk,
   J. Stückrath, T. Rose, and J. Unsleber
   
 * started run on 2025/04/11 at 15:54:53.354     
   ID    Z sym.   atoms
    1    6 C      1, 2, 4-13, 15, 16
    2    1 H      3, 19-31
    3    8 O      14, 17, 18

           -------------------------------------------------
          |                Calculation Setup                |
           -------------------------------------------------

          program call               : /srv/scratch/z5358697/.xtb/bin/xtb gas.coord --gfn2 --sp --chrg 0 --norestart --parallel 1
          hostname                   : k061
          coordinate file            : gas.coord
          omp threads                :                     1


           -------------------------------------------------
          |                 G F N 2 - x T B                 |
           -------------------------------------------------

        Reference                      10.1021/acs.jctc.8b01176
      * Hamiltonian:
        H0-scaling (s, p, d)           1.850000    2.230000    2.230000
        zeta-weighting                 0.500000
      * Dispersion:
        s8                             2.700000
        a1                             0.520000
        a2                             5.000000
        s9                             5.000000
      * Repulsion:
        kExp                           1.500000    1.000000
        rExp                           1.000000
      * Coulomb:
        alpha                          2.000000
        third order                    shell-resolved
        anisotropic                    true
        a3                             3.000000
        a5                             4.000000
        cn-shift                       1.200000
        cn-exp                         4.000000
        max-rad                        5.000000


          ...................................................
          :                      SETUP                      :
          :.................................................:
          :  # basis functions                  82          :
          :  # atomic orbitals                  82          :
          :  # shells                           48          :
          :  # electrons                        88          :
          :  max. iterations                   250          :
          :  Hamiltonian                  GFN2-xTB          :
          :  restarted?                      false          :
          :  GBSA solvation                  false          :
          :  PC potential                    false          :
          :  electronic temp.          300.0000000     K    :
          :  accuracy                    1.0000000          :
          :  -> integral cutoff          0.2500000E+02      :
          :  -> integral neglect         0.1000000E-07      :
          :  -> SCF convergence          0.1000000E-05 Eh   :
          :  -> wf. convergence          0.1000000E-03 e    :
          :  Broyden damping             0.4000000          :
          :  net charge                          0          :
          :  unpaired electrons                  0          :
          ...................................................

 iter      E             dE          RMSdq      gap      omega  full diag
   1    -49.9732773 -0.499733E+02  0.462E+00    3.05       0.0  T
   2    -50.0353992 -0.621218E-01  0.264E+00    3.06       1.0  T
   3    -50.0304641  0.493511E-02  0.123E+00    3.05       1.0  T
   4    -50.0430087 -0.125447E-01  0.301E-01    3.06       1.0  T
   5    -50.0447763 -0.176755E-02  0.103E-01    3.08       1.0  T
   6    -50.0449249 -0.148635E-03  0.507E-02    3.07       1.0  T
   7    -50.0449357 -0.107744E-04  0.238E-02    3.07       1.0  T
   8    -50.0449448 -0.913280E-05  0.839E-03    3.07       2.1  T
   9    -50.0449455 -0.701430E-06  0.304E-03    3.07       5.9  T
  10    -50.0449456 -0.891747E-07  0.157E-03    3.07      11.4  T
  11    -50.0449457 -0.244201E-07  0.613E-04    3.07      29.3  T
  12    -50.0449457 -0.118972E-08  0.239E-04    3.07      75.0  T

   *** convergence criteria satisfied after 12 iterations ***

         #    Occupation            Energy/Eh            Energy/eV
      -------------------------------------------------------------
         1        2.0000           -0.7478659             -20.3505
       ...           ...                  ...                  ...
        38        2.0000           -0.4367726             -11.8852
        39        2.0000           -0.4285257             -11.6608
        40        2.0000           -0.4221947             -11.4885
        41        2.0000           -0.4143511             -11.2751
        42        2.0000           -0.4093280             -11.1384
        43        2.0000           -0.3899376             -10.6107
        44        2.0000           -0.3709070             -10.0929 (HOMO)
        45                         -0.2580561              -7.0221 (LUMO)
        46                         -0.2361039              -6.4247
        47                         -0.2203811              -5.9969
        48                         -0.1874704              -5.1013
        49                         -0.1424834              -3.8772
       ...                                ...                  ...
        82                          0.7028972              19.1268
      -------------------------------------------------------------
                  HL-Gap            0.1128509 Eh            3.0708 eV
             Fermi-level           -0.3144816 Eh           -8.5575 eV

 SCC (total)                   0 d,  0 h,  0 min,  0.043 sec
 SCC setup                      ...        0 min,  0.001 sec (  1.308%)
 Dispersion                     ...        0 min,  0.001 sec (  1.510%)
 classical contributions        ...        0 min,  0.000 sec (  0.260%)
 integral evaluation            ...        0 min,  0.008 sec ( 18.612%)
 iterations                     ...        0 min,  0.019 sec ( 44.255%)
 molecular gradient             ...        0 min,  0.014 sec ( 33.473%)
 printout                       ...        0 min,  0.000 sec (  0.499%)

         :::::::::::::::::::::::::::::::::::::::::::::::::::::
         ::                     SUMMARY                     ::
         :::::::::::::::::::::::::::::::::::::::::::::::::::::
         :: total energy             -49.332104018465 Eh    ::
         :: gradient norm              0.035046741649 Eh/a0 ::
         :: HOMO-LUMO gap              3.070830541200 eV    ::
         ::.................................................::
         :: SCC energy               -50.044948233931 Eh    ::
         :: -> isotropic ES            0.065754048523 Eh    ::
         :: -> anisotropic ES          0.004235541306 Eh    ::
         :: -> anisotropic XC          0.014613584042 Eh    ::
         :: -> dispersion             -0.030725519599 Eh    ::
         :: repulsion energy           0.712844215465 Eh    ::
         :: add. restraining           0.000000000000 Eh    ::
         :: total charge              -0.000000000000 e     ::
         :::::::::::::::::::::::::::::::::::::::::::::::::::::

           -------------------------------------------------
          |                Property Printout                |
           -------------------------------------------------

    * Orbital Energies and Occupations

         #    Occupation            Energy/Eh            Energy/eV
      -------------------------------------------------------------
         1        2.0000           -0.7478659             -20.3505
       ...           ...                  ...                  ...
        32        2.0000           -0.4710387             -12.8176
        33        2.0000           -0.4689050             -12.7596
        34        2.0000           -0.4650298             -12.6541
        35        2.0000           -0.4603928             -12.5279
        36        2.0000           -0.4529790             -12.3262
        37        2.0000           -0.4393927             -11.9565
        38        2.0000           -0.4367726             -11.8852
        39        2.0000           -0.4285257             -11.6608
        40        2.0000           -0.4221947             -11.4885
        41        2.0000           -0.4143511             -11.2751
        42        2.0000           -0.4093280             -11.1384
        43        2.0000           -0.3899376             -10.6107
        44        2.0000           -0.3709070             -10.0929 (HOMO)
        45                         -0.2580561              -7.0221 (LUMO)
        46                         -0.2361039              -6.4247
        47                         -0.2203811              -5.9969
        48                         -0.1874704              -5.1013
        49                         -0.1424834              -3.8772
        50                         -0.0558206              -1.5190
        51                          0.0246514               0.6708
        52                          0.0466537               1.2695
        53                          0.0791846               2.1547
        54                          0.0968497               2.6354
        55                          0.1103778               3.0035
       ...                                ...                  ...
        82                          0.7028972              19.1268
      -------------------------------------------------------------
                  HL-Gap            0.1128509 Eh            3.0708 eV
             Fermi-level           -0.3144816 Eh           -8.5575 eV

     #   Z          covCN         q      C6AA      α(0)
     1   6 C        3.755    -0.104    22.548     6.771
     2   6 C        3.858    -0.042    21.279     6.560
     3   1 H        0.924     0.062     2.179     2.309
     4   6 C        2.976     0.011    27.772     8.644
     5   6 C        2.919    -0.038    28.948     8.823
     6   6 C        2.918    -0.039    28.962     8.825
     7   6 C        2.988     0.011    27.768     8.644
     8   6 C        2.916    -0.078    29.945     8.973
     9   6 C        2.861     0.143    24.882     8.176
    10   6 C        2.916    -0.050    29.234     8.866
    11   6 C        2.917    -0.035    28.865     8.810
    12   6 C        2.986     0.006    27.882     8.662
    13   6 C        2.923    -0.041    29.017     8.834
    14   8 O        1.705    -0.272    18.512     5.809
    15   6 C        3.642     0.036    20.317     6.480
    16   6 C        2.699     0.362    20.856     7.475
    17   8 O        0.856    -0.428    22.251     6.324
    18   8 O        1.659    -0.360    20.091     6.051
    19   1 H        0.925     0.046     2.371     2.408
    20   1 H        0.925     0.043     2.407     2.426
    21   1 H        0.925     0.057     2.237     2.339
    22   1 H        0.926     0.041     2.429     2.437
    23   1 H        0.926     0.032     2.561     2.503
    24   1 H        0.926     0.034     2.528     2.486
    25   1 H        0.926     0.050     2.320     2.382
    26   1 H        0.926     0.041     2.437     2.441
    27   1 H        0.926     0.037     2.492     2.468
    28   1 H        0.924     0.042     2.424     2.435
    29   1 H        0.925     0.063     2.165     2.301
    30   1 H        0.924     0.042     2.421     2.433
    31   1 H        0.803     0.328     0.642     1.259

 Mol. C6AA /au·bohr⁶  :      11187.823812
 Mol. C8AA /au·bohr⁸  :     267707.353210
 Mol. α(0) /au        :        165.355156


Wiberg/Mayer (AO) data.
largest (>0.10) Wiberg bond orders for each atom

 ---------------------------------------------------------------------------
     #   Z sym  total        # sym  WBO       # sym  WBO       # sym  WBO
 ---------------------------------------------------------------------------
     1   6 C    3.991 --     2 C    0.993    19 H    0.986    20 H    0.986
                            21 H    0.983
     2   6 C    3.991 --     1 C    0.993     4 C    0.967     3 H    0.961
                            16 C    0.954
     3   1 H    0.996 --     2 C    0.961
     4   6 C    3.978 --    13 C    1.517     5 C    1.299     2 C    0.967
     5   6 C    3.992 --     6 C    1.558     4 C    1.299    22 H    0.966
     6   6 C    3.992 --     5 C    1.558     7 C    1.279    23 H    0.968
                            13 C    0.112
     7   6 C    3.989 --     8 C    1.280     6 C    1.279    12 C    1.251
     8   6 C    3.985 --     9 C    1.477     7 C    1.280    24 H    0.964
                            11 C    0.105
     9   6 C    3.932 --     8 C    1.477    10 C    1.245    14 O    1.062
    10   6 C    3.989 --    11 C    1.588     9 C    1.245    25 H    0.968
    11   6 C    3.988 --    10 C    1.588    12 C    1.261    26 H    0.967
                             8 C    0.105
    12   6 C    3.990 --    13 C    1.290    11 C    1.261     7 C    1.251
    13   6 C    3.990 --     4 C    1.517    12 C    1.290    27 H    0.965
                             6 C    0.112
    14   8 O    2.222 --     9 C    1.062    15 C    0.983
    15   6 C    3.947 --    14 O    0.983    29 H    0.980    28 H    0.977
                            30 H    0.977
    16   6 C    3.908 --    17 O    1.743    18 O    1.153     2 C    0.954
    17   8 O    2.014 --    16 C    1.743    18 O    0.172
    18   8 O    2.220 --    16 C    1.153    31 H    0.863    17 O    0.172
    19   1 H    0.998 --     1 C    0.986
    20   1 H    0.997 --     1 C    0.986
    21   1 H    0.997 --     1 C    0.983
    22   1 H    0.998 --     5 C    0.966
    23   1 H    0.998 --     6 C    0.968
    24   1 H    0.998 --     8 C    0.964
    25   1 H    0.997 --    10 C    0.968
    26   1 H    0.997 --    11 C    0.967
    27   1 H    0.998 --    13 C    0.965
    28   1 H    0.998 --    15 C    0.977
    29   1 H    0.996 --    15 C    0.980
    30   1 H    0.998 --    15 C    0.977
    31   1 H    0.892 --    18 O    0.863
 ---------------------------------------------------------------------------

Topologies differ in total number of bonds
Writing topology from bond orders to xtbtopo.mol

molecular dipole:
                 x           y           z       tot (Debye)
 q only:        0.352      -0.915       0.686
   full:        0.265      -1.150       0.606       3.372
molecular quadrupole (traceless):
                xx          xy          yy          xz          yz          zz
 q only:        2.152       1.616       3.484      -6.805       5.196      -5.637
  q+dip:        4.742       1.860       6.143      -6.174       6.923     -10.885
   full:        3.488       1.161       3.985      -6.048       7.106      -7.472


           -------------------------------------------------
          | TOTAL ENERGY              -49.332104018465 Eh   |
          | GRADIENT NORM               0.035046741649 Eh/α |
          | HOMO-LUMO GAP               3.070830541200 eV   |
           -------------------------------------------------

------------------------------------------------------------------------
 * finished run on 2025/04/11 at 15:54:53.437     
------------------------------------------------------------------------
 total:
 * wall-time:     0 d,  0 h,  0 min,  0.082 sec
 *  cpu-time:     0 d,  0 h,  0 min,  0.060 sec
 * ratio c/w:     0.733 speedup
 SCF:
 * wall-time:     0 d,  0 h,  0 min,  0.043 sec
 *  cpu-time:     0 d,  0 h,  0 min,  0.043 sec
 * ratio c/w:     0.993 speedup

