 Entering Gaussian System
 *********************************************
 Gaussian 98:
 frequency output generated by the xtb code
 *********************************************
                         Standard orientation:
 --------------------------------------------------------------------
  Center     Atomic     Atomic              Coordinates (Angstroms)
  Number     Number      Type              X           Y           Z
 --------------------------------------------------------------------
    1          6             0       -3.509149   -0.830205    0.195486
    2          6             0       -2.092686   -0.651278   -0.334704
    3          6             0       -1.274497    0.283227    0.563868
    4          6             0        0.083118    0.537495   -0.036055
    5          8             0        0.274409    0.987569   -1.146840
    6          8             0        1.058016    0.208208    0.801869
    7          6             0        2.420224    0.369678    0.370112
    8          6             0        2.909467   -0.867195   -0.367504
    9          1             0       -3.489553   -1.247543    1.198960
   10          1             0       -4.027670    0.124549    0.228181
   11          1             0       -4.067827   -1.504075   -0.448089
   12          1             0       -2.118588   -0.231230   -1.342123
   13          1             0       -1.595500   -1.621714   -0.390200
   14          1             0       -1.146936   -0.141360    1.558664
   15          1             0       -1.789805    1.242402    0.642272
   16          1             0        2.478817    1.251698   -0.274771
   17          1             0        2.983009    0.533049    1.289584
   18          1             0        3.956405   -0.742574   -0.623866
   19          1             0        2.795039   -1.746775    0.260148
   20          1             0        2.336161   -1.006263   -1.281439
 --------------------------------------------------------------------
     1 basis functions        1 primitive gaussians
     1 alpha electrons        1 beta electrons
 
 Harmonic frequencies (cm**-1), IR intensities (km*mol⁻¹),
 Raman scattering activities (A**4/amu), Raman depolarization ratios,
 reduced masses (AMU), force constants (mDyne/A) and normal coordinates:
                      1                      2                      3
                        a                      a                      a 
 Frequencies --   -17.8093                48.4133                77.6057
 Red. masses --     9.2730                 9.2096                 7.9180
 Frc consts  --     0.0000                 0.0000                 0.0000
 IR Inten    --     2.1676                 2.5465                 0.9963
 Raman Activ --     0.0000                 0.0000                 0.0000
 Depolar     --     0.0000                 0.0000                 0.0000
 Atom AN      X      Y      Z        X      Y      Z        X      Y      Z
   1   6    -0.18   0.24  -0.00     0.06  -0.17   0.07     0.16  -0.31   0.25
   2   6    -0.23   0.19  -0.14    -0.04   0.13  -0.11    -0.10   0.31  -0.23
   3   6     0.08  -0.32   0.11     0.01  -0.05   0.03    -0.01   0.12  -0.12
   4   6     0.02  -0.23   0.01    -0.05   0.12  -0.03     0.04   0.02  -0.06
   5   8    -0.09  -0.38  -0.05    -0.18   0.41   0.05     0.19  -0.19  -0.12
   6   8     0.11   0.02   0.02     0.02  -0.04  -0.20    -0.06   0.15   0.11
   7   6     0.06   0.20  -0.03    -0.00  -0.01  -0.23    -0.01  -0.05   0.17
   8   6     0.24   0.20   0.08     0.16  -0.31   0.38    -0.22  -0.01  -0.03
   9   1    -0.03  -0.04  -0.05     0.08  -0.14  -0.02     0.20  -0.25   0.00
  10   1    -0.00   0.09   0.13    -0.01  -0.07   0.13    -0.01  -0.13   0.29
  11   1    -0.12   0.17  -0.05     0.01  -0.01  -0.01     0.02  -0.03   0.03
  12   1    -0.09   0.17   0.01    -0.07   0.12   0.01    -0.17   0.21  -0.01
  13   1    -0.12   0.04  -0.18     0.01   0.06  -0.13     0.04   0.13  -0.24
  14   1     0.05  -0.21  -0.02     0.03  -0.08  -0.02    -0.02  -0.00  -0.05
  15   1     0.07  -0.08   0.18    -0.00  -0.02   0.09     0.03   0.05   0.00
  16   1    -0.03   0.04  -0.04    -0.04  -0.09  -0.19     0.05   0.01   0.09
  17   1     0.02   0.11  -0.02    -0.00   0.15  -0.09    -0.01  -0.09   0.06
  18   1     0.06   0.10   0.01     0.04  -0.09   0.09    -0.05  -0.05   0.01
  19   1     0.11   0.07   0.05     0.08  -0.00   0.24    -0.12  -0.03  -0.06
  20   1     0.07   0.01   0.03     0.05  -0.25   0.13    -0.06   0.08  -0.03
                      4                      5                      6
                        a                      a                      a 
 Frequencies --    94.8542               184.4102               206.7251
 Red. masses --    10.5122                 8.1872                 4.8110
 Frc consts  --     0.0000                 0.0000                 0.0000
 IR Inten    --     0.4431                 5.0235                 3.7237
 Raman Activ --     0.0000                 0.0000                 0.0000
 Depolar     --     0.0000                 0.0000                 0.0000
 Atom AN      X      Y      Z        X      Y      Z        X      Y      Z
   1   6     0.08  -0.03  -0.30    -0.05   0.14   0.18    -0.02   0.07   0.14
   2   6     0.17   0.01  -0.02    -0.09  -0.27  -0.08    -0.09  -0.13  -0.14
   3   6     0.08  -0.13   0.21     0.13  -0.40  -0.15     0.02  -0.15  -0.22
   4   6     0.02   0.05   0.17     0.06   0.03  -0.15     0.07  -0.03  -0.03
   5   8    -0.13  -0.16   0.07     0.05   0.31  -0.06     0.28   0.15   0.08
   6   8     0.15   0.42   0.19     0.03   0.24  -0.05    -0.01   0.01   0.11
   7   6     0.05   0.08  -0.19     0.09   0.04   0.12    -0.04   0.04   0.03
   8   6    -0.40  -0.19  -0.05    -0.19  -0.06   0.08    -0.16   0.02  -0.00
   9   1    -0.03  -0.05  -0.10     0.01   0.09   0.07     0.04   0.10   0.07
  10   1     0.03  -0.01  -0.08     0.05   0.08   0.03     0.01   0.03  -0.00
  11   1     0.05   0.02  -0.15    -0.10   0.05   0.12    -0.05  -0.02   0.13
  12   1     0.10   0.05   0.01    -0.04  -0.09  -0.03    -0.06  -0.05  -0.04
  13   1     0.05   0.00  -0.02    -0.09  -0.11  -0.02    -0.06  -0.05  -0.04
  14   1     0.04  -0.09   0.04     0.10  -0.17  -0.07    -0.01  -0.05  -0.06
  15   1     0.00  -0.05   0.12     0.01  -0.14   0.05     0.01  -0.04  -0.06
  16   1     0.01  -0.02  -0.11     0.11   0.03   0.06    -0.04   0.00  -0.01
  17   1     0.09   0.05  -0.10     0.00  -0.06   0.06     0.02   0.03  -0.01
  18   1    -0.13  -0.13  -0.12     0.01  -0.19   0.22    -0.17   0.18  -0.42
  19   1    -0.12  -0.01   0.05    -0.33  -0.04  -0.06     0.36   0.06   0.15
  20   1    -0.20  -0.08   0.04     0.08   0.15  -0.09    -0.37  -0.21   0.23
                      7                      8                      9
                        a                      a                      a 
 Frequencies --   233.3240               287.2884               322.5409
 Red. masses --     2.0500                 9.2819                10.0997
 Frc consts  --     0.0000                 0.0000                 0.0000
 IR Inten    --     0.0344                15.7425                 2.1306
 Raman Activ --     0.0000                 0.0000                 0.0000
 Depolar     --     0.0000                 0.0000                 0.0000
 Atom AN      X      Y      Z        X      Y      Z        X      Y      Z
   1   6     0.01  -0.06   0.01     0.10   0.03  -0.03     0.48   0.28   0.11
   2   6    -0.08   0.21  -0.14     0.12   0.05   0.07     0.34  -0.01  -0.20
   3   6     0.01  -0.05   0.05     0.11  -0.06   0.16     0.04  -0.06   0.01
   4   6     0.00  -0.02   0.05    -0.06   0.11  -0.17    -0.09  -0.06   0.02
   5   8    -0.04  -0.05   0.04    -0.40   0.02  -0.30    -0.16  -0.11   0.01
   6   8     0.04  -0.00   0.03    -0.09   0.11  -0.21    -0.20  -0.28  -0.01
   7   6     0.02   0.00  -0.03     0.11  -0.20   0.37    -0.28   0.08  -0.03
   8   6     0.02  -0.01  -0.01     0.06  -0.03   0.04    -0.16   0.09   0.06
   9   1     0.08   0.45   0.20     0.01   0.03  -0.00     0.21   0.12   0.05
  10   1    -0.22  -0.12  -0.45     0.02   0.00  -0.04     0.21   0.12   0.05
  11   1     0.18  -0.45   0.30     0.05  -0.01  -0.01     0.02   0.10   0.11
  12   1    -0.07   0.13  -0.01     0.05   0.05   0.03     0.10   0.02  -0.05
  13   1    -0.00   0.07  -0.13     0.03   0.02  -0.00     0.10  -0.00  -0.07
  14   1     0.01  -0.10  -0.02     0.12  -0.08   0.01    -0.00  -0.05  -0.01
  15   1     0.02  -0.01   0.10     0.01  -0.04   0.15    -0.03  -0.04   0.02
  16   1    -0.00  -0.00  -0.01     0.19   0.02   0.22    -0.15   0.01  -0.04
  17   1     0.01   0.01  -0.01    -0.06  -0.22   0.19    -0.07   0.09  -0.03
  18   1     0.02  -0.03   0.04    -0.04   0.10  -0.18    -0.03   0.01   0.07
  19   1    -0.04  -0.01  -0.02     0.22  -0.04   0.01    -0.08   0.03   0.02
  20   1     0.04   0.02  -0.03    -0.14  -0.04   0.11    -0.01   0.02  -0.01
                     10                     11                     12
                        a                      a                      a 
 Frequencies --   377.3365               442.8539               618.0202
 Red. masses --    10.5807                10.4542                10.7992
 Frc consts  --     0.0000                 0.0000                 0.0000
 IR Inten    --     4.3566                 7.7937                24.8409
 Raman Activ --     0.0000                 0.0000                 0.0000
 Depolar     --     0.0000                 0.0000                 0.0000
 Atom AN      X      Y      Z        X      Y      Z        X      Y      Z
   1   6    -0.11  -0.10  -0.09     0.02   0.01   0.00    -0.01   0.01   0.02
   2   6     0.01   0.13   0.29     0.04  -0.03   0.06    -0.03  -0.12  -0.12
   3   6     0.24  -0.02   0.20     0.02  -0.11   0.13    -0.33   0.03   0.14
   4   6     0.08  -0.05  -0.22    -0.12   0.26  -0.04    -0.18   0.47   0.21
   5   8     0.34   0.06  -0.16     0.38  -0.03  -0.09     0.26  -0.23   0.02
   6   8    -0.09  -0.33  -0.21    -0.32   0.28   0.17     0.07  -0.17  -0.33
   7   6    -0.15   0.19   0.02    -0.34  -0.24  -0.12     0.24   0.12  -0.02
   8   6    -0.28   0.13   0.13     0.20  -0.08  -0.13     0.00   0.02   0.03
   9   1    -0.11  -0.05  -0.03    -0.02   0.01   0.00     0.04   0.02   0.01
  10   1    -0.09  -0.06  -0.06     0.02   0.01  -0.01     0.05   0.03   0.02
  11   1     0.08  -0.05  -0.10     0.01   0.01  -0.01    -0.08   0.02   0.05
  12   1     0.03   0.06   0.09     0.02   0.01   0.03     0.00  -0.05  -0.04
  13   1     0.00   0.04   0.06     0.01  -0.01   0.00     0.02  -0.02  -0.00
  14   1     0.21  -0.07   0.01     0.16  -0.15  -0.03    -0.03  -0.12  -0.02
  15   1     0.09  -0.01   0.19    -0.07  -0.09   0.23    -0.24  -0.09   0.19
  16   1    -0.09   0.05  -0.00    -0.09  -0.09  -0.07     0.12   0.07   0.05
  17   1    -0.06   0.09   0.01    -0.06  -0.03  -0.06    -0.01  -0.04   0.06
  18   1    -0.08  -0.05   0.01     0.06   0.17   0.08    -0.00  -0.12  -0.06
  19   1    -0.13   0.07   0.07     0.16  -0.07  -0.09    -0.07   0.05   0.06
  20   1    -0.12   0.04   0.06     0.18  -0.08  -0.10    -0.08   0.02   0.05
                     13                     14                     15
                        a                      a                      a 
 Frequencies --   704.7890               786.6119               817.0906
 Red. masses --    11.5744                 2.5452                 3.7541
 Frc consts  --     0.0000                 0.0000                 0.0000
 IR Inten    --    16.4482                14.6528                13.7256
 Raman Activ --     0.0000                 0.0000                 0.0000
 Depolar     --     0.0000                 0.0000                 0.0000
 Atom AN      X      Y      Z        X      Y      Z        X      Y      Z
   1   6     0.13   0.04  -0.03     0.03   0.03  -0.03    -0.04   0.01   0.01
   2   6     0.05   0.05   0.06    -0.07   0.20  -0.10    -0.01   0.02  -0.02
   3   6    -0.26  -0.06   0.22    -0.09   0.12  -0.09     0.19  -0.01  -0.11
   4   6    -0.26  -0.54  -0.16    -0.04  -0.18  -0.06     0.10   0.11   0.15
   5   8     0.28   0.09   0.22    -0.02   0.03   0.05    -0.06  -0.08   0.09
   6   8    -0.10   0.28  -0.29    -0.01   0.03   0.06     0.07  -0.02  -0.05
   7   6     0.05   0.06  -0.09     0.06   0.02  -0.00    -0.23   0.04  -0.22
   8   6     0.02  -0.02  -0.01     0.02  -0.01  -0.01    -0.09   0.07  -0.05
   9   1     0.04   0.03   0.00     0.25  -0.07  -0.04     0.01  -0.03  -0.01
  10   1     0.06   0.02  -0.01    -0.16  -0.09   0.16    -0.07  -0.03   0.02
  11   1     0.01   0.01   0.01     0.04  -0.07   0.04     0.03  -0.02  -0.01
  12   1     0.04   0.10   0.05     0.21  -0.38  -0.21     0.01  -0.05  -0.03
  13   1     0.04   0.03  -0.04    -0.04   0.00   0.50    -0.05  -0.02   0.04
  14   1    -0.12   0.07   0.10     0.03  -0.29  -0.16     0.01   0.00  -0.02
  15   1     0.00   0.03  -0.06     0.10   0.07   0.34     0.07   0.01  -0.05
  16   1     0.17   0.08   0.09     0.01   0.00  -0.00     0.12   0.26   0.31
  17   1    -0.09  -0.15   0.07     0.02   0.01  -0.00    -0.06  -0.47   0.03
  18   1     0.01  -0.02  -0.00     0.00  -0.03  -0.02     0.02   0.05   0.17
  19   1     0.01   0.04   0.06    -0.01  -0.00  -0.00    -0.01   0.23   0.29
  20   1     0.01  -0.07   0.00    -0.01   0.01   0.00     0.15  -0.37  -0.06
                     16                     17                     18
                        a                      a                      a 
 Frequencies --   877.7333               910.3197               924.1129
 Red. masses --     7.0434                 5.9849                 7.6777
 Frc consts  --     0.0000                 0.0000                 0.0000
 IR Inten    --    15.6555                 1.7548                 1.8221
 Raman Activ --     0.0000                 0.0000                 0.0000
 Depolar     --     0.0000                 0.0000                 0.0000
 Atom AN      X      Y      Z        X      Y      Z        X      Y      Z
   1   6     0.07  -0.07   0.04     0.01  -0.12   0.07     0.21   0.14   0.13
   2   6     0.02  -0.05   0.08     0.01  -0.05  -0.02     0.01   0.15   0.22
   3   6    -0.15   0.16  -0.10    -0.02   0.22  -0.14     0.10  -0.19  -0.40
   4   6    -0.06  -0.11  -0.17     0.06  -0.11   0.09    -0.17   0.08   0.15
   5   8    -0.05   0.09  -0.13    -0.03  -0.06   0.17    -0.01  -0.12   0.22
   6   8    -0.17  -0.11   0.40     0.27   0.09  -0.25    -0.20   0.04  -0.14
   7   6     0.23   0.14  -0.06    -0.19  -0.13   0.01     0.07   0.06  -0.01
   8   6     0.13  -0.04  -0.14    -0.16   0.06   0.14     0.10  -0.06  -0.02
   9   1    -0.23   0.05   0.04    -0.28   0.06   0.06    -0.21  -0.10  -0.02
  10   1     0.21   0.09  -0.14     0.24   0.11  -0.15    -0.14  -0.07  -0.08
  11   1    -0.02   0.08  -0.06    -0.08   0.10  -0.05     0.42   0.01  -0.25
  12   1    -0.20   0.01   0.04    -0.25  -0.09  -0.03    -0.15  -0.04   0.03
  13   1     0.19   0.09  -0.08     0.24   0.11  -0.02    -0.08   0.00   0.04
  14   1     0.10  -0.15  -0.12     0.01  -0.21  -0.15    -0.00  -0.08  -0.12
  15   1    -0.04   0.02   0.23     0.10   0.09   0.25     0.02  -0.05  -0.09
  16   1    -0.06   0.14   0.12     0.08  -0.09  -0.07     0.05  -0.01  -0.03
  17   1     0.13  -0.08  -0.04    -0.08  -0.01   0.02    -0.09   0.06   0.06
  18   1     0.06  -0.24  -0.05    -0.06   0.25   0.09     0.01  -0.11  -0.09
  19   1    -0.09   0.14   0.16     0.08  -0.09  -0.10    -0.02  -0.04  -0.04
  20   1     0.01  -0.16   0.00     0.03   0.08  -0.02    -0.06   0.08   0.03
                     19                     20                     21
                        a                      a                      a 
 Frequencies --   974.5967              1050.3136              1069.1539
 Red. masses --     8.4856                 7.6491                 7.0305
 Frc consts  --     0.0000                 0.0000                 0.0000
 IR Inten    --     3.4085                13.5897               114.8624
 Raman Activ --     0.0000                 0.0000                 0.0000
 Depolar     --     0.0000                 0.0000                 0.0000
 Atom AN      X      Y      Z        X      Y      Z        X      Y      Z
   1   6     0.23   0.14   0.04     0.06  -0.03   0.04    -0.00   0.12  -0.01
   2   6    -0.06   0.07   0.15    -0.05   0.07  -0.02     0.01  -0.16  -0.02
   3   6    -0.41  -0.16   0.03    -0.13  -0.14   0.15    -0.01   0.28  -0.08
   4   6     0.09   0.00  -0.13     0.26   0.07   0.02    -0.13  -0.16  -0.07
   5   8     0.02   0.11  -0.25     0.02   0.04  -0.14    -0.03  -0.00   0.09
   6   8     0.32  -0.09   0.13     0.18   0.07  -0.07     0.38   0.04   0.01
   7   6     0.00  -0.13  -0.00    -0.42   0.17   0.21    -0.31   0.09   0.14
   8   6    -0.20   0.12   0.08     0.23  -0.21  -0.17     0.12  -0.11  -0.07
   9   1    -0.04  -0.06  -0.03    -0.09   0.01   0.02     0.07  -0.05  -0.04
  10   1    -0.10  -0.05  -0.02     0.07   0.02  -0.05    -0.16  -0.06   0.05
  11   1     0.28  -0.00  -0.14     0.02   0.03  -0.03     0.11  -0.04  -0.03
  12   1    -0.04   0.02   0.04    -0.06  -0.08  -0.04     0.00   0.08   0.04
  13   1    -0.09  -0.02   0.03     0.06   0.05   0.09    -0.14  -0.10  -0.14
  14   1    -0.20  -0.07   0.00    -0.39  -0.11   0.05     0.40   0.08  -0.07
  15   1    -0.24  -0.11  -0.01     0.12   0.06  -0.04    -0.38  -0.15   0.12
  16   1    -0.02  -0.04  -0.01    -0.14   0.09   0.10    -0.06   0.05   0.07
  17   1     0.17  -0.07  -0.10    -0.17   0.09   0.09    -0.09   0.04   0.05
  18   1    -0.04   0.24   0.16     0.06  -0.27  -0.15     0.02  -0.13  -0.08
  19   1     0.06   0.02   0.02    -0.07  -0.01  -0.00    -0.03  -0.02  -0.02
  20   1     0.09  -0.06  -0.05    -0.05  -0.05   0.02    -0.04  -0.01   0.02
                     22                     23                     24
                        a                      a                      a 
 Frequencies --  1089.9545              1095.6210              1119.6073
 Red. masses --     8.6908                 7.6608                 7.6717
 Frc consts  --     0.0000                 0.0000                 0.0000
 IR Inten    --     5.4045                19.5887                 6.5044
 Raman Activ --     0.0000                 0.0000                 0.0000
 Depolar     --     0.0000                 0.0000                 0.0000
 Atom AN      X      Y      Z        X      Y      Z        X      Y      Z
   1   6    -0.44   0.04   0.31    -0.04  -0.01  -0.01    -0.10  -0.12  -0.17
   2   6     0.58   0.09  -0.20     0.05   0.03   0.04     0.13   0.26   0.41
   3   6    -0.05  -0.01  -0.01    -0.01  -0.03  -0.06    -0.19  -0.23  -0.41
   4   6     0.06  -0.08  -0.03    -0.03   0.02   0.01     0.00   0.04   0.03
   5   8     0.00   0.02  -0.03    -0.00  -0.02   0.01    -0.03  -0.03   0.03
   6   8    -0.04   0.01   0.00    -0.05  -0.10  -0.02     0.13   0.00   0.00
   7   6     0.02  -0.02  -0.02     0.10   0.52   0.21    -0.10  -0.05  -0.02
   8   6     0.00   0.02   0.01    -0.18  -0.44  -0.15     0.05   0.03   0.02
   9   1    -0.26  -0.07   0.05     0.02   0.01   0.00     0.20   0.10   0.01
  10   1    -0.26  -0.06   0.04     0.01   0.01   0.01     0.14   0.06   0.07
  11   1     0.03  -0.01  -0.03    -0.04  -0.00   0.03    -0.28  -0.01   0.17
  12   1     0.19   0.03  -0.05     0.04   0.03   0.02     0.21   0.20   0.15
  13   1     0.18   0.04  -0.05     0.04   0.02   0.00     0.17   0.14   0.07
  14   1    -0.15  -0.11  -0.03     0.03   0.00  -0.02     0.07  -0.05  -0.12
  15   1    -0.18  -0.10  -0.02    -0.01  -0.01  -0.01    -0.11  -0.10  -0.05
  16   1     0.00  -0.01  -0.01     0.06   0.11   0.03     0.00  -0.00   0.01
  17   1    -0.01  -0.00   0.00     0.06   0.10   0.04    -0.04  -0.02   0.01
  18   1    -0.00  -0.01  -0.00    -0.04   0.29   0.15     0.01  -0.06  -0.04
  19   1    -0.01   0.01   0.01     0.23  -0.23  -0.15    -0.03   0.01   0.00
  20   1    -0.00   0.01   0.00     0.21  -0.20  -0.19    -0.04   0.04   0.03
                     25                     26                     27
                        a                      a                      a 
 Frequencies --  1145.1950              1176.7729              1213.8355
 Red. masses --     7.2480                 9.0434                 4.6718
 Frc consts  --     0.0000                 0.0000                 0.0000
 IR Inten    --   143.3535               307.0016                14.2555
 Raman Activ --     0.0000                 0.0000                 0.0000
 Depolar     --     0.0000                 0.0000                 0.0000
 Atom AN      X      Y      Z        X      Y      Z        X      Y      Z
   1   6    -0.04  -0.04   0.05    -0.01  -0.08   0.10     0.11  -0.25   0.10
   2   6     0.04   0.09  -0.07    -0.01   0.15  -0.15    -0.15   0.35  -0.15
   3   6     0.08  -0.10  -0.02     0.07  -0.16   0.06     0.12  -0.04   0.07
   4   6    -0.43   0.07  -0.06    -0.48   0.10  -0.13     0.17  -0.09   0.02
   5   8     0.05  -0.04   0.08     0.05   0.03  -0.10    -0.02  -0.00   0.04
   6   8     0.20   0.06  -0.16     0.29  -0.13   0.26    -0.09   0.03  -0.04
   7   6     0.01  -0.16   0.39    -0.14   0.12  -0.21     0.05  -0.02   0.02
   8   6    -0.05   0.09  -0.21     0.07  -0.08   0.20    -0.03   0.02  -0.05
   9   1    -0.07   0.01   0.02    -0.14   0.01   0.04    -0.22   0.06   0.08
  10   1     0.03   0.01  -0.03     0.07   0.03  -0.07     0.25   0.08  -0.15
  11   1    -0.02   0.02  -0.01    -0.00   0.04  -0.04    -0.09   0.10  -0.04
  12   1     0.02  -0.04  -0.04     0.05  -0.09  -0.09     0.12  -0.13  -0.13
  13   1     0.08   0.05   0.07     0.08   0.07   0.13    -0.18   0.00   0.22
  14   1     0.06   0.07   0.02     0.10   0.13   0.08     0.13   0.13   0.06
  15   1     0.16   0.06  -0.09     0.13   0.04  -0.13    -0.47  -0.27  -0.12
  16   1    -0.28  -0.10  -0.02     0.16   0.11   0.08     0.01  -0.04  -0.04
  17   1     0.33   0.16  -0.13    -0.00  -0.18  -0.03    -0.08   0.06   0.05
  18   1     0.03  -0.05   0.10    -0.02   0.03  -0.09     0.00  -0.00   0.02
  19   1    -0.05   0.19   0.19     0.02  -0.16  -0.16    -0.00   0.04   0.04
  20   1     0.06  -0.24  -0.05    -0.07   0.21   0.06     0.02  -0.05  -0.02
                     28                     29                     30
                        a                      a                      a 
 Frequencies --  1251.3414              1257.5525              1277.5573
 Red. masses --     3.0244                 3.3022                 4.0173
 Frc consts  --     0.0000                 0.0000                 0.0000
 IR Inten    --    12.0355                45.1190                78.3944
 Raman Activ --     0.0000                 0.0000                 0.0000
 Depolar     --     0.0000                 0.0000                 0.0000
 Atom AN      X      Y      Z        X      Y      Z        X      Y      Z
   1   6    -0.00  -0.01  -0.07    -0.06   0.11  -0.19    -0.03   0.14   0.04
   2   6     0.02   0.04   0.06     0.06   0.05   0.11    -0.12  -0.04  -0.13
   3   6     0.13   0.06   0.02     0.28  -0.01   0.11    -0.25  -0.22   0.04
   4   6     0.05  -0.05   0.01    -0.15  -0.02  -0.06     0.27  -0.00   0.08
   5   8     0.00  -0.02   0.07     0.02   0.02  -0.02    -0.03  -0.01   0.02
   6   8    -0.11   0.09  -0.19     0.04  -0.04   0.09    -0.08   0.05  -0.08
   7   6    -0.04   0.04  -0.02     0.02  -0.00   0.01     0.04  -0.03  -0.03
   8   6     0.08  -0.09   0.21    -0.03   0.03  -0.06     0.00  -0.02   0.03
   9   1     0.04   0.02  -0.01     0.20   0.01  -0.05     0.05  -0.05  -0.03
  10   1     0.01   0.00   0.02    -0.10  -0.02   0.12    -0.11  -0.02   0.01
  11   1    -0.06  -0.01   0.04    -0.07  -0.05   0.09     0.12  -0.01  -0.05
  12   1    -0.14  -0.07  -0.01    -0.55  -0.26  -0.07    -0.11  -0.09  -0.06
  13   1    -0.03  -0.01  -0.00     0.28   0.15   0.04     0.49   0.25   0.12
  14   1    -0.13  -0.08  -0.02    -0.19  -0.06   0.03     0.45   0.32   0.11
  15   1    -0.18  -0.10  -0.03    -0.28  -0.19  -0.14     0.03  -0.00  -0.01
  16   1    -0.40   0.21   0.23     0.15  -0.07  -0.08    -0.17   0.06   0.07
  17   1     0.50  -0.25  -0.27    -0.12   0.07   0.07    -0.01  -0.02   0.00
  18   1    -0.02   0.01  -0.08     0.00  -0.00   0.02    -0.00   0.01  -0.00
  19   1     0.02  -0.16  -0.14    -0.00   0.04   0.04     0.01  -0.02  -0.01
  20   1    -0.05   0.19   0.06     0.02  -0.05  -0.02    -0.00   0.03   0.00
                     31                     32                     33
                        a                      a                      a 
 Frequencies --  1313.6852              1343.0964              1393.5994
 Red. masses --     3.4911                 4.9374                 3.1093
 Frc consts  --     0.0000                 0.0000                 0.0000
 IR Inten    --    10.0263                35.8201                 5.7840
 Raman Activ --     0.0000                 0.0000                 0.0000
 Depolar     --     0.0000                 0.0000                 0.0000
 Atom AN      X      Y      Z        X      Y      Z        X      Y      Z
   1   6    -0.00  -0.02  -0.01    -0.01  -0.07  -0.09    -0.00   0.00   0.00
   2   6     0.04   0.02   0.02     0.43   0.22   0.04    -0.00  -0.00  -0.00
   3   6     0.03   0.01  -0.00    -0.29  -0.12   0.02    -0.00  -0.00  -0.00
   4   6    -0.12   0.02  -0.02     0.09   0.02   0.01     0.03  -0.01   0.00
   5   8     0.01   0.01  -0.03    -0.01  -0.01   0.00    -0.00  -0.00   0.01
   6   8     0.13   0.06   0.04    -0.01  -0.00  -0.01    -0.04  -0.01  -0.01
   7   6     0.29  -0.19  -0.18    -0.02   0.01   0.01    -0.08  -0.01   0.02
   8   6    -0.09  -0.11   0.00     0.01   0.00  -0.00     0.18  -0.33  -0.20
   9   1    -0.00   0.01   0.00    -0.06   0.06   0.02     0.00  -0.00  -0.00
  10   1     0.01   0.00   0.01    -0.02  -0.02   0.07    -0.00   0.00  -0.00
  11   1    -0.02  -0.00   0.01    -0.15   0.01   0.08     0.00   0.00  -0.00
  12   1    -0.02  -0.00   0.00    -0.44  -0.22  -0.09    -0.00   0.00  -0.00
  13   1    -0.07  -0.03  -0.01    -0.42  -0.21  -0.05     0.01   0.00   0.00
  14   1    -0.05  -0.05  -0.02     0.26   0.14   0.04     0.00   0.01   0.01
  15   1     0.02   0.01  -0.02     0.17   0.11   0.02    -0.01  -0.00   0.01
  16   1    -0.54   0.25   0.29     0.02  -0.01  -0.01     0.18   0.03   0.06
  17   1    -0.43   0.20   0.23     0.01  -0.01  -0.00     0.12   0.11  -0.09
  18   1    -0.03   0.17   0.08     0.00  -0.01  -0.00     0.01   0.47   0.18
  19   1     0.03   0.01   0.05    -0.00  -0.00  -0.00    -0.27   0.26   0.34
  20   1    -0.01   0.09  -0.02    -0.00  -0.01   0.00    -0.30   0.36   0.12
                     34                     35                     36
                        a                      a                      a 
 Frequencies --  1409.5212              1429.6691              1436.3558
 Red. masses --     3.1799                 2.0167                 2.0361
 Frc consts  --     0.0000                 0.0000                 0.0000
 IR Inten    --     1.3911                 3.4151                 4.9791
 Raman Activ --     0.0000                 0.0000                 0.0000
 Depolar     --     0.0000                 0.0000                 0.0000
 Atom AN      X      Y      Z        X      Y      Z        X      Y      Z
   1   6    -0.41  -0.07   0.13     0.00  -0.00  -0.00     0.00  -0.00  -0.00
   2   6     0.08   0.05   0.02    -0.00  -0.00   0.00    -0.03  -0.01   0.01
   3   6    -0.02  -0.00   0.01    -0.00   0.01   0.02    -0.13   0.11   0.25
   4   6    -0.00  -0.00  -0.00    -0.03  -0.01   0.02     0.04   0.01   0.03
   5   8     0.00   0.00  -0.00     0.01   0.01  -0.03    -0.00  -0.00  -0.01
   6   8     0.00  -0.00   0.00     0.05   0.01   0.01    -0.02   0.00  -0.00
   7   6    -0.00   0.00   0.00     0.10   0.24   0.09    -0.02  -0.02  -0.01
   8   6     0.00  -0.00  -0.00     0.06  -0.07  -0.05    -0.00   0.00   0.00
   9   1     0.51   0.03   0.01    -0.01   0.00   0.00     0.00   0.02   0.01
  10   1     0.42   0.25  -0.15    -0.00  -0.00   0.00     0.00  -0.00   0.02
  11   1     0.39  -0.06  -0.31    -0.00   0.00   0.00     0.02   0.01  -0.02
  12   1    -0.05  -0.09  -0.04     0.00   0.00   0.00     0.02  -0.00   0.00
  13   1    -0.08  -0.04  -0.08     0.00   0.00  -0.00     0.02   0.01  -0.00
  14   1    -0.00   0.01   0.01     0.03  -0.06  -0.03     0.34  -0.54  -0.25
  15   1     0.00   0.00   0.01     0.00   0.01  -0.07     0.04   0.09  -0.65
  16   1    -0.00  -0.00  -0.01    -0.37  -0.30  -0.46     0.05   0.03   0.04
  17   1    -0.00  -0.01   0.00    -0.14  -0.60   0.20     0.02   0.06  -0.03
  18   1     0.00   0.00   0.00     0.01   0.11   0.04     0.00  -0.01   0.00
  19   1    -0.00  -0.00  -0.00    -0.07   0.07   0.08     0.01  -0.00  -0.00
  20   1    -0.00  -0.00   0.00    -0.08   0.08   0.03     0.00  -0.00   0.00
                     37                     38                     39
                        a                      a                      a 
 Frequencies --  1470.5692              1484.9579              1489.6514
 Red. masses --     1.5108                 1.5731                 1.8477
 Frc consts  --     0.0000                 0.0000                 0.0000
 IR Inten    --     6.2954                 2.5348                 1.3741
 Raman Activ --     0.0000                 0.0000                 0.0000
 Depolar     --     0.0000                 0.0000                 0.0000
 Atom AN      X      Y      Z        X      Y      Z        X      Y      Z
   1   6    -0.00  -0.00   0.00    -0.00   0.00   0.00    -0.03   0.01   0.04
   2   6     0.00  -0.00  -0.01     0.00  -0.00  -0.00     0.12  -0.11  -0.22
   3   6     0.00  -0.00  -0.00     0.00   0.00   0.00     0.01   0.00  -0.01
   4   6     0.00  -0.00   0.00     0.00  -0.00  -0.00    -0.00   0.00  -0.00
   5   8     0.00   0.00  -0.00     0.00  -0.00   0.00    -0.00  -0.00   0.00
   6   8    -0.00  -0.00   0.00    -0.01   0.00   0.00    -0.00   0.00  -0.00
   7   6    -0.03   0.02  -0.04     0.05   0.00  -0.02     0.00   0.00   0.00
   8   6    -0.08   0.05  -0.19     0.17   0.13  -0.04    -0.00  -0.00   0.01
   9   1     0.00  -0.00  -0.00    -0.00  -0.01  -0.00     0.09  -0.11  -0.05
  10   1     0.00   0.00  -0.00     0.00   0.00  -0.00     0.03   0.02  -0.14
  11   1     0.00   0.00  -0.00    -0.00  -0.00   0.00    -0.02   0.01   0.01
  12   1    -0.01   0.02   0.01    -0.01   0.01   0.00    -0.32   0.54   0.23
  13   1    -0.00  -0.00   0.02     0.00   0.00   0.01    -0.07  -0.08   0.65
  14   1    -0.00   0.00   0.00    -0.00  -0.00  -0.00    -0.01  -0.03  -0.01
  15   1    -0.00  -0.00   0.01    -0.00  -0.00  -0.00    -0.01  -0.01  -0.02
  16   1     0.00   0.02   0.01    -0.03   0.03   0.02    -0.00  -0.00  -0.00
  17   1     0.01  -0.03  -0.02    -0.02   0.02   0.01     0.00  -0.00   0.00
  18   1     0.18  -0.33   0.59     0.06   0.20   0.25    -0.01   0.01  -0.02
  19   1     0.53  -0.05   0.00    -0.38  -0.22  -0.40    -0.01   0.00   0.01
  20   1    -0.36   0.17   0.18    -0.37  -0.50   0.31     0.02   0.00  -0.01
                     40                     41                     42
                        a                      a                      a 
 Frequencies --  1494.3184              1495.9906              1698.4017
 Red. masses --     1.5270                 1.6229                13.3247
 Frc consts  --     0.0000                 0.0000                 0.0000
 IR Inten    --     2.6609                 0.8451               629.6976
 Raman Activ --     0.0000                 0.0000                 0.0000
 Depolar     --     0.0000                 0.0000                 0.0000
 Atom AN      X      Y      Z        X      Y      Z        X      Y      Z
   1   6    -0.06   0.18  -0.09     0.04   0.10   0.18     0.00   0.00   0.01
   2   6    -0.01   0.04  -0.02     0.01   0.06   0.09    -0.01  -0.01  -0.01
   3   6    -0.00  -0.00   0.01    -0.02  -0.01   0.00    -0.05  -0.02   0.06
   4   6     0.00  -0.00  -0.00     0.00   0.00   0.00     0.17   0.29  -0.72
   5   8    -0.00  -0.00   0.00    -0.00  -0.00  -0.00    -0.10  -0.22   0.54
   6   8    -0.00   0.00  -0.00     0.00  -0.00   0.00     0.02  -0.02   0.05
   7   6    -0.00  -0.00   0.00     0.00  -0.00  -0.00     0.01   0.01  -0.02
   8   6    -0.00  -0.00   0.00    -0.00  -0.00  -0.00    -0.00  -0.01   0.00
   9   1    -0.28  -0.40  -0.17     0.21  -0.52  -0.21    -0.00  -0.00   0.00
  10   1     0.35   0.20   0.13    -0.10  -0.03  -0.66    -0.00  -0.00  -0.00
  11   1     0.18  -0.55   0.41    -0.28   0.12   0.14     0.01   0.00  -0.01
  12   1     0.02  -0.01  -0.02     0.03  -0.12  -0.04     0.01   0.00  -0.00
  13   1    -0.03  -0.00   0.00    -0.02   0.01  -0.13     0.01   0.00  -0.00
  14   1     0.02   0.00  -0.00     0.01  -0.01  -0.01    -0.06  -0.01   0.01
  15   1    -0.01  -0.00  -0.01     0.01   0.01  -0.02     0.00   0.01  -0.02
  16   1     0.00   0.00   0.00    -0.00   0.00   0.00    -0.02  -0.01  -0.02
  17   1     0.00   0.00  -0.00    -0.00   0.00   0.00    -0.03  -0.02   0.02
  18   1    -0.00  -0.00  -0.00     0.00  -0.00   0.00     0.00   0.01   0.01
  19   1     0.00   0.00   0.00     0.00   0.00   0.00     0.01  -0.00   0.00
  20   1     0.00   0.00  -0.00     0.00   0.00  -0.00    -0.00   0.01   0.00
                     43                     44                     45
                        a                      a                      a 
 Frequencies --  2947.6658              2971.3956              2980.3144
 Red. masses --     1.7176                 1.8836                 1.7996
 Frc consts  --     0.0000                 0.0000                 0.0000
 IR Inten    --    29.4629                21.5706                42.6632
 Raman Activ --     0.0000                 0.0000                 0.0000
 Depolar     --     0.0000                 0.0000                 0.0000
 Atom AN      X      Y      Z        X      Y      Z        X      Y      Z
   1   6    -0.00   0.00   0.00     0.00  -0.01   0.01    -0.00   0.01  -0.00
   2   6     0.00  -0.00  -0.00    -0.09   0.21  -0.10     0.04  -0.12   0.09
   3   6    -0.00   0.00  -0.00     0.06  -0.12   0.01     0.10  -0.19  -0.02
   4   6     0.00  -0.00   0.00     0.00  -0.00   0.00     0.00  -0.00  -0.00
   5   8     0.00   0.00  -0.00    -0.00   0.00   0.00    -0.00  -0.00   0.00
   6   8    -0.01  -0.01   0.01     0.00  -0.00  -0.00    -0.00   0.00  -0.00
   7   6    -0.01  -0.20   0.15    -0.00  -0.00  -0.00    -0.00  -0.00  -0.00
   8   6     0.00   0.01  -0.01     0.00   0.00   0.00     0.00   0.00   0.00
   9   1     0.00   0.00  -0.00     0.00   0.02  -0.05    -0.00  -0.01   0.03
  10   1     0.00  -0.00  -0.00    -0.03   0.04   0.00     0.02  -0.04  -0.00
  11   1     0.00   0.00   0.00     0.00   0.00   0.01    -0.01  -0.00  -0.01
  12   1     0.00  -0.00   0.00     0.00  -0.15   0.39    -0.01   0.14  -0.35
  13   1    -0.00   0.00   0.00     0.32  -0.62  -0.04    -0.15   0.29   0.02
  14   1     0.00  -0.00   0.00     0.00   0.01  -0.07     0.02  -0.05   0.05
  15   1     0.00  -0.00  -0.00    -0.24   0.43   0.03    -0.39   0.72   0.05
  16   1     0.05   0.77  -0.58    -0.00   0.00  -0.00    -0.00   0.00  -0.00
  17   1     0.01  -0.03   0.03     0.00   0.00   0.00     0.01   0.00   0.01
  18   1    -0.01  -0.00   0.00     0.00   0.00   0.00    -0.00   0.00   0.00
  19   1    -0.01  -0.05   0.03    -0.00  -0.00   0.00    -0.00  -0.00   0.00
  20   1     0.01   0.01   0.01    -0.00  -0.00  -0.00    -0.00  -0.00  -0.00
                     46                     47                     48
                        a                      a                      a 
 Frequencies --  2989.9665              2991.0676              3013.4648
 Red. masses --     1.5091                 1.7411                 1.7550
 Frc consts  --     0.0000                 0.0000                 0.0000
 IR Inten    --    37.0737                18.0271                28.5393
 Raman Activ --     0.0000                 0.0000                 0.0000
 Depolar     --     0.0000                 0.0000                 0.0000
 Atom AN      X      Y      Z        X      Y      Z        X      Y      Z
   1   6     0.01   0.01   0.02    -0.00  -0.00  -0.00    -0.00  -0.00  -0.02
   2   6     0.06  -0.05  -0.19    -0.01   0.00   0.02     0.00  -0.02   0.04
   3   6     0.02  -0.04   0.02    -0.00   0.00  -0.00     0.03  -0.10   0.23
   4   6     0.00  -0.00  -0.00    -0.00   0.00   0.00     0.00  -0.00   0.01
   5   8    -0.00  -0.00   0.00    -0.00   0.00  -0.00    -0.00   0.00  -0.00
   6   8     0.00   0.00  -0.00     0.01  -0.00   0.00    -0.00   0.00  -0.00
   7   6     0.01   0.00   0.02     0.13   0.03   0.22     0.00  -0.00   0.00
   8   6    -0.00   0.00  -0.00    -0.02   0.00  -0.02     0.00   0.00   0.00
   9   1     0.00   0.02  -0.05    -0.00  -0.00   0.01     0.00  -0.02   0.06
  10   1     0.01  -0.02   0.00    -0.00   0.00  -0.00    -0.00   0.01  -0.00
  11   1    -0.03  -0.04  -0.03     0.00   0.00   0.00     0.02   0.02   0.02
  12   1     0.04  -0.32   0.70    -0.00   0.03  -0.07    -0.00   0.05  -0.12
  13   1    -0.25   0.51  -0.01     0.02  -0.05   0.00    -0.01   0.01   0.00
  14   1    -0.01   0.04  -0.10     0.00  -0.00   0.01    -0.11   0.38  -0.87
  15   1    -0.06   0.11   0.01     0.00  -0.00  -0.00     0.01  -0.02   0.03
  16   1     0.00  -0.00   0.01     0.02   0.01   0.02     0.00   0.00  -0.00
  17   1    -0.05  -0.01  -0.08    -0.49  -0.13  -0.80     0.00  -0.00  -0.00
  18   1     0.00   0.00  -0.00     0.02   0.00  -0.01    -0.00  -0.00   0.00
  19   1    -0.00  -0.00   0.00    -0.01  -0.02   0.01    -0.00  -0.00   0.00
  20   1     0.01   0.00   0.01     0.06   0.02   0.10    -0.00  -0.00  -0.01
                     49                     50                     51
                        a                      a                      a 
 Frequencies --  3037.3678              3039.1007              3040.6094
 Red. masses --     1.9600                 1.7929                 1.8335
 Frc consts  --     0.0000                 0.0000                 0.0000
 IR Inten    --    73.4520                42.4921                57.5087
 Raman Activ --     0.0000                 0.0000                 0.0000
 Depolar     --     0.0000                 0.0000                 0.0000
 Atom AN      X      Y      Z        X      Y      Z        X      Y      Z
   1   6     0.09  -0.23   0.15     0.00  -0.02  -0.01    -0.00  -0.15  -0.23
   2   6     0.01  -0.03   0.02     0.00  -0.00  -0.00     0.01  -0.01  -0.02
   3   6     0.00  -0.00   0.01     0.00  -0.00   0.00     0.00   0.00  -0.01
   4   6     0.00  -0.00   0.00     0.00  -0.00  -0.00    -0.00  -0.00  -0.00
   5   8    -0.00   0.00  -0.00    -0.00   0.00   0.00    -0.00  -0.00   0.00
   6   8    -0.00   0.00  -0.00    -0.00   0.00  -0.00     0.00  -0.00   0.00
   7   6     0.00  -0.00   0.00    -0.02  -0.00  -0.04     0.00  -0.00   0.00
   8   6     0.00   0.00   0.01    -0.13  -0.00  -0.23     0.01  -0.00   0.02
   9   1    -0.01   0.23  -0.61     0.00  -0.01   0.02     0.02  -0.26   0.55
  10   1    -0.32   0.61   0.04    -0.03   0.06  -0.00    -0.27   0.49  -0.02
  11   1     0.02  -0.02   0.03     0.02   0.02   0.02     0.25   0.30   0.28
  12   1    -0.00   0.03  -0.07     0.00  -0.00   0.00     0.00  -0.03   0.06
  13   1    -0.03   0.05   0.00    -0.00   0.00  -0.00    -0.02   0.04  -0.00
  14   1    -0.00   0.01  -0.02    -0.00   0.00  -0.00     0.01  -0.02   0.05
  15   1    -0.00   0.01   0.00    -0.00   0.00   0.00    -0.01   0.02  -0.00
  16   1     0.00   0.00  -0.00    -0.00  -0.02   0.01     0.00   0.00  -0.00
  17   1    -0.00  -0.00  -0.00     0.06   0.01   0.10    -0.00  -0.00  -0.01
  18   1    -0.00  -0.00   0.00    -0.01   0.00  -0.03    -0.00  -0.00   0.00
  19   1     0.00   0.00   0.00    -0.03  -0.10   0.04     0.00   0.01  -0.01
  20   1    -0.02  -0.00  -0.02     0.50   0.12   0.79    -0.04  -0.01  -0.06
                     52                     53                     54
                        a                      a                      a 
 Frequencies --  3048.5954              3049.7506              3063.0010
 Red. masses --     1.3617                 1.6308                 1.7499
 Frc consts  --     0.0000                 0.0000                 0.0000
 IR Inten    --    36.9533                27.7925                23.1489
 Raman Activ --     0.0000                 0.0000                 0.0000
 Depolar     --     0.0000                 0.0000                 0.0000
 Atom AN      X      Y      Z        X      Y      Z        X      Y      Z
   1   6     0.15   0.09   0.04    -0.01  -0.00  -0.00     0.00  -0.00   0.00
   2   6     0.00   0.00   0.00    -0.00  -0.00  -0.00     0.00  -0.00  -0.00
   3   6     0.00   0.00  -0.00     0.00  -0.00   0.00    -0.00  -0.00   0.00
   4   6    -0.00  -0.00   0.00    -0.00  -0.00   0.00     0.00  -0.00   0.00
   5   8     0.00   0.00  -0.00     0.00   0.00  -0.00     0.00   0.00  -0.00
   6   8     0.00  -0.00   0.00     0.00   0.00   0.00     0.00   0.00  -0.00
   7   6    -0.00  -0.00   0.00     0.00  -0.02   0.01    -0.01  -0.01  -0.00
   8   6    -0.00  -0.01   0.01    -0.03  -0.20   0.12    -0.25  -0.04   0.07
   9   1     0.03  -0.13   0.34    -0.00   0.01  -0.02     0.00  -0.00   0.00
  10   1    -0.15   0.33   0.02     0.01  -0.01  -0.00    -0.00   0.00   0.00
  11   1    -0.41  -0.52  -0.51     0.02   0.02   0.02    -0.00  -0.00  -0.00
  12   1     0.00   0.01  -0.01    -0.00  -0.00   0.00     0.00  -0.00   0.00
  13   1     0.01  -0.02  -0.00    -0.00   0.00   0.00    -0.00   0.00   0.00
  14   1    -0.00   0.00  -0.00    -0.00   0.00  -0.01    -0.00   0.00  -0.00
  15   1     0.00  -0.00  -0.00    -0.00   0.00   0.00    -0.00   0.00   0.00
  16   1     0.00   0.00  -0.00     0.00   0.04  -0.03     0.00   0.01  -0.01
  17   1    -0.00  -0.00  -0.00    -0.00  -0.00  -0.01     0.01   0.00   0.02
  18   1    -0.00  -0.00   0.00    -0.06  -0.03   0.03     0.93   0.12  -0.22
  19   1     0.00   0.03  -0.02     0.10   0.77  -0.56    -0.03   0.04  -0.03
  20   1    -0.00  -0.00   0.00     0.06  -0.01   0.12    -0.04  -0.01   0.00
