      -----------------------------------------------------------      
     |                   =====================                   |     
     |                           x T B                           |     
     |                   =====================                   |     
     |                         S. Grimme                         |     
     |          Mulliken Center for Theoretical Chemistry        |     
     |                    University of Bonn                     |     
      -----------------------------------------------------------      

   * xtb version 6.7.1 (edcfbbe) compiled by 'albert@albert-system' on 2024-07-22

   xtb is free software: you can redistribute it and/or modify it under
   the terms of the GNU Lesser General Public License as published by
   the Free Software Foundation, either version 3 of the License, or
   (at your option) any later version.
   
   xtb is distributed in the hope that it will be useful,
   but WITHOUT ANY WARRANTY; without even the implied warranty of
   MERCHANTABILITY or FITNESS FOR A PARTICULAR PURPOSE.  See the
   GNU Lesser General Public License for more details.
   
   Cite this work as:
   * C. Bannwarth, E. Caldeweyher, S. Ehlert, A. Hansen, P. Pracht,
     J. Seibert, S. Spicher, S. Grimme, WIREs Comput. Mol. Sci., 2020, 11,
     e01493. DOI: 10.1002/wcms.1493
   
   for GFN2-xTB:
   * C. Bannwarth, S. Ehlert and S. Grimme., J. Chem. Theory Comput., 2019,
     15, 1652-1671. DOI: 10.1021/acs.jctc.8b01176
   for GFN1-xTB:
   * S. Grimme, C. Bannwarth, P. Shushkov, J. Chem. Theory Comput., 2017,
     13, 1989-2009. DOI: 10.1021/acs.jctc.7b00118
   for GFN0-xTB:
   * P. Pracht, E. Caldeweyher, S. Ehlert, S. Grimme, ChemRxiv, 2019, preprint.
     DOI: 10.26434/chemrxiv.8326202.v1
   for GFN-FF:
   * S. Spicher and S. Grimme, Angew. Chem. Int. Ed., 2020, 59, 15665-15673.
     DOI: 10.1002/anie.202004239
   
   for ALPB and GBSA implicit solvation:
   * S. Ehlert, M. Stahn, S. Spicher, S. Grimme, J. Chem. Theory Comput.,
     2021, 17, 4250-4261. DOI: 10.1021/acs.jctc.1c00471
   
   for ddCOSMO and CPCM-X implicit solvation:
   * M. Stahn, S. Ehlert, S. Grimme, J. Phys. Chem. A,
     2023, XX, XXXX-XXXX. DOI: 10.1021/acs.jpca.3c04382
   
   for DFT-D4:
   * E. Caldeweyher, C. Bannwarth and S. Grimme, J. Chem. Phys., 2017,
     147, 034112. DOI: 10.1063/1.4993215
   * E. Caldeweyher, S. Ehlert, A. Hansen, H. Neugebauer, S. Spicher,
     C. Bannwarth and S. Grimme, J. Chem. Phys., 2019, 150, 154122.
     DOI: 10.1063/1.5090222
   * E. Caldeweyher, J.-M. Mewes, S. Ehlert and S. Grimme, Phys. Chem. Chem. Phys.
     2020, 22, 8499-8512. DOI: 10.1039/D0CP00502A
   
   for sTDA-xTB:
   * S. Grimme and C. Bannwarth, J. Chem. Phys., 2016, 145, 054103.
     DOI: 10.1063/1.4959605
   
   in the mass-spec context:
   * V. Asgeirsson, C. Bauer and S. Grimme, Chem. Sci., 2017, 8, 4879.
     DOI: 10.1039/c7sc00601b
   * J. Koopman and S. Grimme, ACS Omega 2019, 4, 12, 15120-15133.
     DOI: 10.1021/acsomega.9b02011
   
   for metadynamics refer to:
   * S. Grimme, J. Chem. Theory Comput., 2019, 155, 2847-2862
     DOI: 10.1021/acs.jctc.9b00143
   
   for SPH calculations refer to:
   * S. Spicher and S. Grimme, J. Chem. Theory Comput., 2021, 17, 1701-1714
     DOI: 10.1021/acs.jctc.0c01306
   
   for ONIOM refer to:
   * C. Plett, A. Katbashev, S. Ehlert, S. Grimme, M. Bursch,
     Phys. Chem. Chem. Phys., 2023, 25, 17860-17868. DOI: 10.1039/D3CP02178E
   
   for DIPRO refer to:
   * J. Kohn, N. Gildemeister, S. Grimme, D. Fazzi, A. Hansen,
     J. Chem. Phys., 2023, just accepted.
   
   for PTB refer to:
   * S. Grimme, M. Mueller, A. Hansen, J. Chem. Phys., 2023, 158, 124111.
     DOI: 10.1063/5.0137838
   
   with help from (in alphabetical order)
   P. Atkinson, C. Bannwarth, F. Bohle, G. Brandenburg, E. Caldeweyher
   M. Checinski, S. Dohm, S. Ehlert, S. Ehrlich, I. Gerasimov, C. Hölzer
   A. Katbashev, J. Kohn, J. Koopman, C. Lavigne, S. Lehtola, F. März, M. Müller,
   F. Musil, H. Neugebauer, J. Pisarek, C. Plett, P. Pracht, F. Pultar,
   J. Seibert, P. Shushkov, S. Spicher, M. Stahn, M. Steiner, T. Strunk,
   J. Stückrath, T. Rose, and J. Unsleber
   
 * started run on 2025/04/11 at 16:56:13.062     
   ID    Z sym.   atoms
    1    6 C      1, 2, 4-13, 15, 16
    2    1 H      3, 19-31
    3    8 O      14, 17, 18

           -------------------------------------------------
          |                Calculation Setup                |
           -------------------------------------------------

          program call               : /srv/scratch/z5358697/.xtb/bin/xtb xtb_rrho.coord --gfn2 --ohess vtight --chrg 0 --enso --norestart -I rrho-xcontrol-inp --parallel 1 --alpb water
          hostname                   : k061
          coordinate file            : xtb_rrho.coord
          omp threads                :                     1


           -------------------------------------------------
          |                 G F N 2 - x T B                 |
           -------------------------------------------------

        Reference                      10.1021/acs.jctc.8b01176
      * Hamiltonian:
        H0-scaling (s, p, d)           1.850000    2.230000    2.230000
        zeta-weighting                 0.500000
      * Dispersion:
        s8                             2.700000
        a1                             0.520000
        a2                             5.000000
        s9                             5.000000
      * Repulsion:
        kExp                           1.500000    1.000000
        rExp                           1.000000
      * Coulomb:
        alpha                          2.000000
        third order                    shell-resolved
        anisotropic                    true
        a3                             3.000000
        a5                             4.000000
        cn-shift                       1.200000
        cn-exp                         4.000000
        max-rad                        5.000000

      * Solvation model:               ALPB
        Solvent                        water
        Parameter file                 internal GFN2-xTB/ALPB
        Dielectric constant                8.0200E+01
        Reference state                gsolv [1 M gas/solution]
        Free energy shift                  1.0808E-03 Eh       6.7819E-01 kcal/mol
        Temperature                        2.9815E+02 K
        Density                            1.0000E+00 kg/L
        Solvent mass                       1.8000E+01 g/mol
        Interaction kernel             P16
        Born radius scaling (c1)           1.4744E+00
        Born radii integrator          GBOBC
        Born offset                        0.0000E+00 a0       0.0000E+00 AA
        H-bond correction              true
        Ion screening                  false
        Surface tension                    1.0000E-05 Eh       1.5569E+01 dyn/cm
        Grid points                               974 per atom

          ...................................................
          :                      SETUP                      :
          :.................................................:
          :  # basis functions                  82          :
          :  # atomic orbitals                  82          :
          :  # shells                           48          :
          :  # electrons                        88          :
          :  max. iterations                   250          :
          :  Hamiltonian                  GFN2-xTB          :
          :  restarted?                      false          :
          :  GBSA solvation                   true          :
          :  PC potential                    false          :
          :  electronic temp.          300.0000000     K    :
          :  accuracy                    1.0000000          :
          :  -> integral cutoff          0.2500000E+02      :
          :  -> integral neglect         0.1000000E-07      :
          :  -> SCF convergence          0.1000000E-05 Eh   :
          :  -> wf. convergence          0.1000000E-03 e    :
          :  Broyden damping             0.4000000          :
          :  net charge                          0          :
          :  unpaired electrons                  0          :
          ...................................................

 iter      E             dE          RMSdq      gap      omega  full diag
   1    -49.9651278 -0.499651E+02  0.464E+00    3.05       0.0  T
   2    -50.0205822 -0.554544E-01  0.256E+00    2.92       1.0  T
   3    -50.0180804  0.250176E-02  0.106E+00    3.01       1.0  T
   4    -50.0254999 -0.741947E-02  0.238E-01    2.99       1.0  T
   5    -50.0262928 -0.792866E-03  0.882E-02    3.00       1.0  T
   6    -50.0263580 -0.652112E-04  0.454E-02    3.00       1.0  T
   7    -50.0263640 -0.601893E-05  0.191E-02    3.00       1.0  T
   8    -50.0263679 -0.393630E-05  0.700E-03    3.00       2.6  T
   9    -50.0263684 -0.500402E-06  0.293E-03    3.00       6.1  T
  10    -50.0263685 -0.285525E-07  0.146E-03    3.00      12.3  T
  11    -50.0263685 -0.200615E-07  0.676E-04    3.00      26.6  T
  12    -50.0263685 -0.335163E-08  0.277E-04    3.00      64.8  T

   *** convergence criteria satisfied after 12 iterations ***

         #    Occupation            Energy/Eh            Energy/eV
      -------------------------------------------------------------
         1        2.0000           -0.7442061             -20.2509
       ...           ...                  ...                  ...
        38        2.0000           -0.4376070             -11.9079
        39        2.0000           -0.4307236             -11.7206
        40        2.0000           -0.4228441             -11.5062
        41        2.0000           -0.4148173             -11.2878
        42        2.0000           -0.4136185             -11.2551
        43        2.0000           -0.3893145             -10.5938
        44        2.0000           -0.3709015             -10.0927 (HOMO)
        45                         -0.2607053              -7.0942 (LUMO)
        46                         -0.2488839              -6.7725
        47                         -0.2243274              -6.1043
        48                         -0.1898306              -5.1656
        49                         -0.1455395              -3.9603
       ...                                ...                  ...
        82                          0.6780972              18.4520
      -------------------------------------------------------------
                  HL-Gap            0.1101962 Eh            2.9986 eV
             Fermi-level           -0.3158034 Eh           -8.5934 eV

 SCC (total)                   0 d,  0 h,  0 min,  0.053 sec
 SCC setup                      ...        0 min,  0.003 sec (  5.226%)
 Dispersion                     ...        0 min,  0.000 sec (  0.654%)
 classical contributions        ...        0 min,  0.000 sec (  0.106%)
 integral evaluation            ...        0 min,  0.005 sec (  9.515%)
 iterations                     ...        0 min,  0.029 sec ( 55.234%)
 molecular gradient             ...        0 min,  0.015 sec ( 28.823%)
 printout                       ...        0 min,  0.000 sec (  0.407%)

         :::::::::::::::::::::::::::::::::::::::::::::::::::::
         ::                     SUMMARY                     ::
         :::::::::::::::::::::::::::::::::::::::::::::::::::::
         :: total energy             -49.344362996967 Eh    ::
         :: total w/o Gsasa/hb       -49.337399693680 Eh    ::
         :: gradient norm              0.040310744559 Eh/a0 ::
         :: HOMO-LUMO gap              2.998590962479 eV    ::
         ::.................................................::
         :: SCC energy               -50.026326051826 Eh    ::
         :: -> isotropic ES            0.082352287538 Eh    ::
         :: -> anisotropic ES          0.003250771388 Eh    ::
         :: -> anisotropic XC          0.016658982318 Eh    ::
         :: -> dispersion             -0.030429129616 Eh    ::
         :: -> Gsolv                  -0.018861070134 Eh    ::
         ::    -> Gelec               -0.011897766846 Eh    ::
         ::    -> Gsasa                0.001629480087 Eh    ::
         ::    -> Ghb                 -0.009673543073 Eh    ::
         ::    -> Gshift               0.001080759698 Eh    ::
         :: repulsion energy           0.681963054859 Eh    ::
         :: add. restraining           0.000000000000 Eh    ::
         :: total charge               0.000000000000 e     ::
         :::::::::::::::::::::::::::::::::::::::::::::::::::::

      ----------------------------------------------------------- 
     |                   =====================                   |
     |                        A N C O P T                        |
     |                   =====================                   |
     |               Approximate Normal Coordinate               |
     |                Rational Function Optimizer                |
      ----------------------------------------------------------- 
      ----------------------------------------------------------- 
     |                   =====================                   |
     |                        A N C O P T                        |
     |                   =====================                   |
     |               Approximate Normal Coordinate               |
     |                Rational Function Optimizer                |
      ----------------------------------------------------------- 

          ...................................................
          :                      SETUP                      :
          :.................................................:
          :   optimization level         verytight          :
          :   max. optcycles                   620          :
          :   ANC micro-cycles                  20          :
          :   degrees of freedom                87          :
          :.................................................:
          :   RF solver                   davidson          :
          :   write xtbopt.log                true          :
          :   linear?                        false          :
          :   energy convergence         0.1000000E-06 Eh   :
          :   grad. convergence          0.2000000E-03 Eh/α :
          :   maxmium RF displ.          1.0000000          :
          :   Hlow (freq-cutoff)         0.1000000E-01      :
          :   Hmax (freq-cutoff)         5.0000000          :
          :   S6 in model hess.         20.0000000          :
          ...................................................

generating ANC from exact Hessian ...
Using Lindh-Hessian (1995)
 Shifting diagonal of input Hessian by   9.592979819101784E-003
 Lowest  eigenvalues of input Hessian
    0.000000    0.000000    0.000000    0.000000    0.000000    0.000000
    0.010000    0.010652    0.011797    0.012696    0.013523    0.014272
    0.015501    0.016122    0.018557    0.019008    0.021387    0.023086
 Highest eigenvalues
    1.786787    1.921186    1.929006    1.986729    2.107644    2.277291
 

........................................................................
.............................. CYCLE    1 ..............................
........................................................................

 iter      E             dE          RMSdq      gap      omega  full diag
   1    -50.0263685 -0.500264E+02  0.137E-04    3.00       0.0  T
   2    -50.0263685 -0.108926E-09  0.923E-05    3.00     194.6  T
   3    -50.0263685 -0.373603E-10  0.638E-05    3.00     281.5  T
     SCC iter.                  ...        0 min,  0.005 sec
     gradient                   ...        0 min,  0.015 sec
 * total energy  :   -49.3443630 Eh     change       -0.6202043E-09 Eh
   gradient norm :     0.0403122 Eh/α   predicted     0.0000000E+00 (-100.00%)
   displ. norm   :     0.1615154 α      lambda       -0.3277800E-02
   maximum displ.:     0.0566028 α      in ANC's #15, #17, #47, ...

........................................................................
.............................. CYCLE    2 ..............................
........................................................................

 iter      E             dE          RMSdq      gap      omega  full diag
   1    -50.0522229 -0.500522E+02  0.125E-01    3.04       0.0  T
   2    -50.0522596 -0.366350E-04  0.720E-02    3.04       1.0  T
   3    -50.0522587  0.904674E-06  0.304E-02    3.05       1.0  T
   4    -50.0522655 -0.680680E-05  0.510E-03    3.05       3.5  T
   5    -50.0522657 -0.217221E-06  0.311E-03    3.05       5.8  T
   6    -50.0522658 -0.912201E-07  0.171E-03    3.05      10.5  T
   7    -50.0522658 -0.928638E-08  0.632E-04    3.05      28.4  T
   8    -50.0522658 -0.504874E-08  0.274E-04    3.05      65.6  T
     SCC iter.                  ...        0 min,  0.010 sec
     gradient                   ...        0 min,  0.015 sec
 * total energy  :   -49.3464947 Eh     change       -0.2131729E-02 Eh
   gradient norm :     0.0186545 Eh/α   predicted    -0.1681687E-02 ( -21.11%)
   displ. norm   :     0.1290593 α      lambda       -0.7550726E-03
   maximum displ.:     0.0587368 α      in ANC's #9, #11, #15, ...

........................................................................
.............................. CYCLE    3 ..............................
........................................................................

 iter      E             dE          RMSdq      gap      omega  full diag
   1    -50.0620299 -0.500620E+02  0.735E-02    3.06       0.0  T
   2    -50.0620544 -0.244675E-04  0.401E-02    3.06       1.0  T
   3    -50.0620554 -0.105600E-05  0.196E-02    3.06       1.0  T
   4    -50.0620567 -0.131933E-05  0.500E-03    3.06       3.6  T
   5    -50.0620570 -0.251707E-06  0.199E-03    3.06       9.0  T
   6    -50.0620571 -0.551172E-07  0.110E-03    3.06      16.3  T
   7    -50.0620571 -0.516686E-08  0.344E-04    3.06      52.2  T
   8    -50.0620571 -0.971454E-09  0.189E-04    3.06      95.2  T
     SCC iter.                  ...        0 min,  0.010 sec
     gradient                   ...        0 min,  0.015 sec
 * total energy  :   -49.3469474 Eh     change       -0.4526547E-03 Eh
   gradient norm :     0.0070345 Eh/α   predicted    -0.3839144E-03 ( -15.19%)
   displ. norm   :     0.0914791 α      lambda       -0.1822793E-03
   maximum displ.:     0.0531155 α      in ANC's #9, #11, #10, ...

........................................................................
.............................. CYCLE    4 ..............................
........................................................................

 iter      E             dE          RMSdq      gap      omega  full diag
   1    -50.0620712 -0.500621E+02  0.384E-02    3.06       0.0  T
   2    -50.0620761 -0.491296E-05  0.211E-02    3.06       1.0  T
   3    -50.0620762 -0.489226E-07  0.894E-03    3.06       2.0  T
   4    -50.0620765 -0.309913E-06  0.257E-03    3.06       7.0  T
   5    -50.0620766 -0.864357E-07  0.888E-04    3.06      20.2  T
   6    -50.0620766 -0.100361E-07  0.504E-04    3.06      35.6  T
     SCC iter.                  ...        0 min,  0.008 sec
     gradient                   ...        0 min,  0.015 sec
 * total energy  :   -49.3470728 Eh     change       -0.1254335E-03 Eh
   gradient norm :     0.0031712 Eh/α   predicted    -0.9190612E-04 ( -26.73%)
   displ. norm   :     0.1145258 α      lambda       -0.1247799E-03
   maximum displ.:     0.0744300 α      in ANC's #9, #11, #3, ...

........................................................................
.............................. CYCLE    5 ..............................
........................................................................

 iter      E             dE          RMSdq      gap      omega  full diag
   1    -50.0599257 -0.500599E+02  0.376E-02    3.06       0.0  T
   2    -50.0599271 -0.142549E-05  0.219E-02    3.06       1.0  T
   3    -50.0599268  0.277540E-06  0.567E-03    3.06       3.2  T
   4    -50.0599272 -0.404211E-06  0.198E-03    3.06       9.1  T
   5    -50.0599273 -0.699794E-07  0.677E-04    3.06      26.5  T
   6    -50.0599273 -0.350553E-08  0.392E-04    3.06      45.8  T
     SCC iter.                  ...        0 min,  0.008 sec
     gradient                   ...        0 min,  0.015 sec
 * total energy  :   -49.3471508 Eh     change       -0.7796329E-04 Eh
   gradient norm :     0.0044872 Eh/α   predicted    -0.6320950E-04 ( -18.92%)
   displ. norm   :     0.0739981 α      lambda       -0.4859735E-04
   maximum displ.:     0.0519098 α      in ANC's #9, #11, #2, ...

........................................................................
.............................. CYCLE    6 ..............................
........................................................................

 iter      E             dE          RMSdq      gap      omega  full diag
   1    -50.0588744 -0.500589E+02  0.210E-02    3.06       0.0  T
   2    -50.0588746 -0.202574E-06  0.125E-02    3.06       1.4  T
   3    -50.0588746 -0.221107E-08  0.160E-03    3.06      11.2  T
   4    -50.0588747 -0.315479E-07  0.709E-04    3.06      25.3  T
   5    -50.0588747 -0.615732E-08  0.362E-04    3.06      49.6  T
     SCC iter.                  ...        0 min,  0.007 sec
     gradient                   ...        0 min,  0.015 sec
 * total energy  :   -49.3471853 Eh     change       -0.3456718E-04 Eh
   gradient norm :     0.0034900 Eh/α   predicted    -0.2445715E-04 ( -29.25%)
   displ. norm   :     0.0816833 α      lambda       -0.3783659E-04
   maximum displ.:     0.0592642 α      in ANC's #9, #11, #2, ...

........................................................................
.............................. CYCLE    7 ..............................
........................................................................

 iter      E             dE          RMSdq      gap      omega  full diag
   1    -50.0588851 -0.500589E+02  0.222E-02    3.06       0.0  T
   2    -50.0588857 -0.662530E-06  0.130E-02    3.06       1.4  T
   3    -50.0588857  0.297915E-07  0.320E-03    3.06       5.6  T
   4    -50.0588858 -0.762744E-07  0.103E-03    3.06      17.4  T
   5    -50.0588858 -0.177315E-07  0.376E-04    3.06      47.7  T
   6    -50.0588858 -0.926569E-09  0.236E-04    3.06      76.0  T
     SCC iter.                  ...        0 min,  0.008 sec
     gradient                   ...        0 min,  0.015 sec
 * total energy  :   -49.3472112 Eh     change       -0.2586401E-04 Eh
   gradient norm :     0.0018516 Eh/α   predicted    -0.1904612E-04 ( -26.36%)
   displ. norm   :     0.0921315 α      lambda       -0.1971495E-04
   maximum displ.:     0.0667385 α      in ANC's #9, #2, #11, ...

........................................................................
.............................. CYCLE    8 ..............................
........................................................................

 iter      E             dE          RMSdq      gap      omega  full diag
   1    -50.0599012 -0.500599E+02  0.240E-02    3.06       0.0  T
   2    -50.0599019 -0.633089E-06  0.141E-02    3.06       1.3  T
   3    -50.0599018  0.812631E-07  0.338E-03    3.06       5.3  T
   4    -50.0599019 -0.125756E-06  0.114E-03    3.06      15.8  T
   5    -50.0599019 -0.231364E-07  0.374E-04    3.06      48.0  T
   6    -50.0599019 -0.111782E-08  0.225E-04    3.06      79.9  T
     SCC iter.                  ...        0 min,  0.008 sec
     gradient                   ...        0 min,  0.015 sec
 * total energy  :   -49.3472277 Eh     change       -0.1652834E-04 Eh
   gradient norm :     0.0019043 Eh/α   predicted    -0.9897231E-05 ( -40.12%)
   displ. norm   :     0.0307429 α      lambda       -0.6883799E-05
   maximum displ.:     0.0184930 α      in ANC's #2, #9, #6, ...

........................................................................
.............................. CYCLE    9 ..............................
........................................................................

 iter      E             dE          RMSdq      gap      omega  full diag
   1    -50.0603274 -0.500603E+02  0.936E-03    3.05       0.0  T
   2    -50.0603275 -0.107488E-06  0.540E-03    3.05       3.3  T
   3    -50.0603275  0.720395E-08  0.123E-03    3.06      14.5  T
   4    -50.0603275 -0.133337E-07  0.451E-04    3.06      39.8  T
   5    -50.0603275 -0.414339E-08  0.139E-04    3.06     129.6  T
     SCC iter.                  ...        0 min,  0.006 sec
     gradient                   ...        0 min,  0.015 sec
 * total energy  :   -49.3472350 Eh     change       -0.7261336E-05 Eh
   gradient norm :     0.0008984 Eh/α   predicted    -0.3447682E-05 ( -52.52%)
   displ. norm   :     0.0355002 α      lambda       -0.3834865E-05
   maximum displ.:     0.0227141 α      in ANC's #2, #9, #3, ...

........................................................................
.............................. CYCLE   10 ..............................
........................................................................

 iter      E             dE          RMSdq      gap      omega  full diag
   1    -50.0601505 -0.500602E+02  0.100E-02    3.05       0.0  T
   2    -50.0601506 -0.835021E-07  0.581E-03    3.05       3.1  T
   3    -50.0601506  0.132748E-07  0.126E-03    3.05      14.3  T
   4    -50.0601506 -0.187059E-07  0.469E-04    3.05      38.3  T
   5    -50.0601506 -0.397807E-08  0.136E-04    3.05     131.7  T
     SCC iter.                  ...        0 min,  0.006 sec
     gradient                   ...        0 min,  0.015 sec
 * total energy  :   -49.3472384 Eh     change       -0.3409466E-05 Eh
   gradient norm :     0.0002994 Eh/α   predicted    -0.1919376E-05 ( -43.70%)
   displ. norm   :     0.0209957 α      lambda       -0.1305364E-05
   maximum displ.:     0.0156597 α      in ANC's #2, #3, #4, ...

........................................................................
.............................. CYCLE   11 ..............................
........................................................................

 iter      E             dE          RMSdq      gap      omega  full diag
   1    -50.0601232 -0.500601E+02  0.647E-03    3.05       0.0  T
   2    -50.0601232 -0.133433E-07  0.378E-03    3.05       4.7  T
   3    -50.0601232  0.333253E-08  0.546E-04    3.05      32.9  T
   4    -50.0601232 -0.514463E-08  0.180E-04    3.05      99.7  T
     SCC iter.                  ...        0 min,  0.005 sec
     gradient                   ...        0 min,  0.015 sec
 * total energy  :   -49.3472398 Eh     change       -0.1428733E-05 Eh
   gradient norm :     0.0004784 Eh/α   predicted    -0.6559396E-06 ( -54.09%)
   displ. norm   :     0.0242001 α      lambda       -0.1337487E-05
   maximum displ.:     0.0172250 α      in ANC's #2, #3, #8, ...

........................................................................
.............................. CYCLE   12 ..............................
........................................................................

 iter      E             dE          RMSdq      gap      omega  full diag
   1    -50.0600433 -0.500600E+02  0.733E-03    3.05       0.0  T
   2    -50.0600433 -0.507245E-08  0.431E-03    3.05       4.2  T
   3    -50.0600433  0.575625E-09  0.334E-04    3.05      53.8  T
   4    -50.0600433 -0.226292E-08  0.125E-04    3.05     143.4  T
     SCC iter.                  ...        0 min,  0.005 sec
     gradient                   ...        0 min,  0.015 sec
 * total energy  :   -49.3472416 Eh     change       -0.1744136E-05 Eh
   gradient norm :     0.0005034 Eh/α   predicted    -0.6691701E-06 ( -61.63%)
   displ. norm   :     0.0411899 α      lambda       -0.2117016E-05
   maximum displ.:     0.0296825 α      in ANC's #2, #3, #1, ...

........................................................................
.............................. CYCLE   13 ..............................
........................................................................

 iter      E             dE          RMSdq      gap      omega  full diag
   1    -50.0600044 -0.500600E+02  0.125E-02    3.06       0.0  T
   2    -50.0600044 -0.171186E-07  0.736E-03    3.06       2.4  T
   3    -50.0600044  0.546499E-08  0.668E-04    3.06      26.9  T
   4    -50.0600044 -0.115203E-07  0.224E-04    3.06      80.3  T
     SCC iter.                  ...        0 min,  0.006 sec
     gradient                   ...        0 min,  0.015 sec
 * total energy  :   -49.3472443 Eh     change       -0.2692581E-05 Eh
   gradient norm :     0.0003513 Eh/α   predicted    -0.1061917E-05 ( -60.56%)
   displ. norm   :     0.0520817 α      lambda       -0.2296827E-05
   maximum displ.:     0.0392024 α      in ANC's #2, #3, #1, ...

........................................................................
.............................. CYCLE   14 ..............................
........................................................................

 iter      E             dE          RMSdq      gap      omega  full diag
   1    -50.0599092 -0.500599E+02  0.156E-02    3.06       0.0  T
   2    -50.0599092 -0.183453E-07  0.918E-03    3.06       2.0  T
   3    -50.0599092  0.267216E-08  0.702E-04    3.06      25.6  T
   4    -50.0599092 -0.113830E-07  0.262E-04    3.06      68.6  T
     SCC iter.                  ...        0 min,  0.005 sec
     gradient                   ...        0 min,  0.015 sec
 * total energy  :   -49.3472473 Eh     change       -0.2985573E-05 Eh
   gradient norm :     0.0003409 Eh/α   predicted    -0.1151353E-05 ( -61.44%)
   displ. norm   :     0.0504125 α      lambda       -0.2190241E-05
   maximum displ.:     0.0390050 α      in ANC's #2, #3, #1, ...

........................................................................
.............................. CYCLE   15 ..............................
........................................................................

 iter      E             dE          RMSdq      gap      omega  full diag
   1    -50.0599902 -0.500600E+02  0.148E-02    3.06       0.0  T
   2    -50.0599902 -0.131844E-07  0.869E-03    3.06       2.1  T
   3    -50.0599902 -0.176452E-08  0.508E-04    3.06      35.4  T
   4    -50.0599902 -0.543916E-08  0.236E-04    3.06      76.2  T
     SCC iter.                  ...        0 min,  0.005 sec
     gradient                   ...        0 min,  0.016 sec
 * total energy  :   -49.3472504 Eh     change       -0.3095070E-05 Eh
   gradient norm :     0.0003439 Eh/α   predicted    -0.1100098E-05 ( -64.46%)
   displ. norm   :     0.0432253 α      lambda       -0.2180205E-05
   maximum displ.:     0.0346273 α      in ANC's #2, #3, #1, ...

........................................................................
.............................. CYCLE   16 ..............................
........................................................................

 iter      E             dE          RMSdq      gap      omega  full diag
   1    -50.0600435 -0.500600E+02  0.121E-02    3.06       0.0  T
   2    -50.0600435 -0.806264E-08  0.711E-03    3.06       2.5  T
   3    -50.0600435 -0.417840E-08  0.280E-04    3.06      64.0  T
   4    -50.0600435 -0.471729E-09  0.175E-04    3.06     102.4  T
     SCC iter.                  ...        0 min,  0.006 sec
     gradient                   ...        0 min,  0.016 sec
 * total energy  :   -49.3472535 Eh     change       -0.3180648E-05 Eh
   gradient norm :     0.0003148 Eh/α   predicted    -0.1094619E-05 ( -65.59%)
   displ. norm   :     0.0417076 α      lambda       -0.2341970E-05
   maximum displ.:     0.0343025 α      in ANC's #2, #1, #3, ...

........................................................................
.............................. CYCLE   17 ..............................
........................................................................

 iter      E             dE          RMSdq      gap      omega  full diag
   1    -50.0600997 -0.500601E+02  0.113E-02    3.06       0.0  T
   2    -50.0600997 -0.816041E-08  0.664E-03    3.06       2.7  T
   3    -50.0600997 -0.155964E-10  0.481E-04    3.06      37.3  T
   4    -50.0600997 -0.420746E-08  0.190E-04    3.06      94.5  T
     SCC iter.                  ...        0 min,  0.005 sec
     gradient                   ...        0 min,  0.015 sec
 * total energy  :   -49.3472569 Eh     change       -0.3332880E-05 Eh
   gradient norm :     0.0002287 Eh/α   predicted    -0.1173540E-05 ( -64.79%)
   displ. norm   :     0.0393866 α      lambda       -0.2209150E-05
   maximum displ.:     0.0330823 α      in ANC's #2, #1, #4, ...

........................................................................
.............................. CYCLE   18 ..............................
........................................................................

 iter      E             dE          RMSdq      gap      omega  full diag
   1    -50.0601357 -0.500601E+02  0.105E-02    3.06       0.0  T
   2    -50.0601357 -0.745635E-08  0.620E-03    3.06       2.9  T
   3    -50.0601357  0.119763E-08  0.510E-04    3.06      35.2  T
   4    -50.0601357 -0.524076E-08  0.186E-04    3.06      96.3  T
     SCC iter.                  ...        0 min,  0.006 sec
     gradient                   ...        0 min,  0.015 sec
 * total energy  :   -49.3472600 Eh     change       -0.3137237E-05 Eh
   gradient norm :     0.0001927 Eh/α   predicted    -0.1106673E-05 ( -64.72%)
   displ. norm   :     0.0356140 α      lambda       -0.1958393E-05
   maximum displ.:     0.0302839 α      in ANC's #2, #1, #11, ...

........................................................................
.............................. CYCLE   19 ..............................
........................................................................

 iter      E             dE          RMSdq      gap      omega  full diag
   1    -50.0601500 -0.500601E+02  0.957E-03    3.06       0.0  T
   2    -50.0601500 -0.748611E-08  0.565E-03    3.06       3.2  T
   3    -50.0601500  0.163080E-08  0.503E-04    3.06      35.7  T
   4    -50.0601500 -0.517135E-08  0.183E-04    3.06      98.4  T
     SCC iter.                  ...        0 min,  0.005 sec
     gradient                   ...        0 min,  0.015 sec
 * total energy  :   -49.3472628 Eh     change       -0.2835051E-05 Eh
   gradient norm :     0.0002068 Eh/α   predicted    -0.9812061E-06 ( -65.39%)
   displ. norm   :     0.0317745 α      lambda       -0.1763557E-05
   maximum displ.:     0.0269962 α      in ANC's #2, #1, #11, ...

........................................................................
.............................. CYCLE   20 ..............................
........................................................................

 iter      E             dE          RMSdq      gap      omega  full diag
   1    -50.0601608 -0.500602E+02  0.865E-03    3.05       0.0  T
   2    -50.0601608 -0.495412E-08  0.512E-03    3.05       3.5  T
   3    -50.0601608 -0.354611E-09  0.375E-04    3.06      47.9  T
   4    -50.0601608 -0.248339E-08  0.166E-04    3.05     108.4  T
     SCC iter.                  ...        0 min,  0.005 sec
     gradient                   ...        0 min,  0.015 sec
 * total energy  :   -49.3472654 Eh     change       -0.2608426E-05 Eh
   gradient norm :     0.0002142 Eh/α   predicted    -0.8832818E-06 ( -66.14%)
   displ. norm   :     0.0324095 α      lambda       -0.1859168E-05
   maximum displ.:     0.0271282 α      in ANC's #2, #1, #7, ...
 * RMSD in coord.:     0.1493650 α      energy gain  -0.2902452E-02 Eh

generating ANC from exact Hessian ...
Using Lindh-Hessian (1995)
 Shifting diagonal of input Hessian by   9.562535599523183E-003
 Lowest  eigenvalues of input Hessian
    0.000000    0.000000    0.000000    0.000000    0.000000    0.000000
    0.010000    0.010702    0.011943    0.012783    0.013739    0.014469
    0.015950    0.016587    0.018806    0.019366    0.021826    0.024075
 Highest eigenvalues
    1.831229    1.971992    1.976495    2.038630    2.164652    2.345302
 

........................................................................
.............................. CYCLE   21 ..............................
........................................................................

 iter      E             dE          RMSdq      gap      omega  full diag
   1    -50.0601583 -0.500602E+02  0.899E-03    3.05       0.0  T
   2    -50.0601583 -0.527626E-08  0.533E-03    3.05       3.4  T
   3    -50.0601583 -0.180099E-08  0.313E-04    3.05      57.4  T
   4    -50.0601583 -0.119324E-08  0.173E-04    3.05     103.9  T
     SCC iter.                  ...        0 min,  0.005 sec
     gradient                   ...        0 min,  0.015 sec
 * total energy  :   -49.3472682 Eh     change       -0.2752350E-05 Eh
   gradient norm :     0.0002192 Eh/α   predicted     0.0000000E+00 (-100.00%)
   displ. norm   :     0.0138656 α      lambda       -0.4757747E-07
   maximum displ.:     0.0130377 α      in ANC's #2, #4, #10, ...

........................................................................
.............................. CYCLE   22 ..............................
........................................................................

 iter      E             dE          RMSdq      gap      omega  full diag
   1    -50.0601270 -0.500601E+02  0.386E-03    3.06       0.0  T
   2    -50.0601270 -0.217240E-08  0.230E-03    3.06       7.8  T
   3    -50.0601270 -0.201346E-09  0.189E-04    3.05      95.2  T
   4    -50.0601270 -0.575433E-09  0.923E-05    3.05     194.5  T
     SCC iter.                  ...        0 min,  0.005 sec
     gradient                   ...        0 min,  0.016 sec
 * total energy  :   -49.3472697 Eh     change       -0.1464884E-05 Eh
   gradient norm :     0.0001457 Eh/α   predicted    -0.5150922E-06 ( -64.84%)
   displ. norm   :     0.0201407 α      lambda       -0.1361301E-05
   maximum displ.:     0.0181523 α      in ANC's #2, #4, #7, ...

........................................................................
.............................. CYCLE   23 ..............................
........................................................................

 iter      E             dE          RMSdq      gap      omega  full diag
   1    -50.0601148 -0.500601E+02  0.582E-03    3.06       0.0  T
   2    -50.0601148 -0.306571E-08  0.347E-03    3.06       5.2  T
   3    -50.0601148  0.451443E-09  0.322E-04    3.06      55.7  T
   4    -50.0601148 -0.213613E-08  0.133E-04    3.06     135.2  T
     SCC iter.                  ...        0 min,  0.006 sec
     gradient                   ...        0 min,  0.016 sec
 * total energy  :   -49.3472715 Eh     change       -0.1880936E-05 Eh
   gradient norm :     0.0001344 Eh/α   predicted    -0.6892980E-06 ( -63.35%)
   displ. norm   :     0.0225053 α      lambda       -0.1349081E-05
   maximum displ.:     0.0204984 α      in ANC's #2, #4, #7, ...

........................................................................
.............................. CYCLE   24 ..............................
........................................................................

 iter      E             dE          RMSdq      gap      omega  full diag
   1    -50.0601101 -0.500601E+02  0.669E-03    3.06       0.0  T
   2    -50.0601101 -0.321482E-08  0.398E-03    3.06       4.5  T
   3    -50.0601101 -0.918718E-09  0.257E-04    3.06      69.9  T
   4    -50.0601101 -0.913140E-09  0.142E-04    3.06     126.8  T
     SCC iter.                  ...        0 min,  0.005 sec
     gradient                   ...        0 min,  0.015 sec
 * total energy  :   -49.3472734 Eh     change       -0.1844535E-05 Eh
   gradient norm :     0.0001646 Eh/α   predicted    -0.6749268E-06 ( -63.41%)
   displ. norm   :     0.0206688 α      lambda       -0.1145859E-05
   maximum displ.:     0.0189762 α      in ANC's #2, #7, #1, ...

........................................................................
.............................. CYCLE   25 ..............................
........................................................................

 iter      E             dE          RMSdq      gap      omega  full diag
   1    -50.0600992 -0.500601E+02  0.597E-03    3.06       0.0  T
   2    -50.0600992 -0.253647E-08  0.355E-03    3.06       5.1  T
   3    -50.0600992 -0.962878E-09  0.197E-04    3.06      91.0  T
   4    -50.0600992 -0.401251E-09  0.120E-04    3.06     149.5  T
     SCC iter.                  ...        0 min,  0.005 sec
     gradient                   ...        0 min,  0.015 sec
 * total energy  :   -49.3472750 Eh     change       -0.1623269E-05 Eh
   gradient norm :     0.0001748 Eh/α   predicted    -0.5736796E-06 ( -64.66%)
   displ. norm   :     0.0191325 α      lambda       -0.1076418E-05
   maximum displ.:     0.0175837 α      in ANC's #2, #1, #7, ...

........................................................................
.............................. CYCLE   26 ..............................
........................................................................

 iter      E             dE          RMSdq      gap      omega  full diag
   1    -50.0601029 -0.500601E+02  0.547E-03    3.06       0.0  T
   2    -50.0601029 -0.177928E-08  0.324E-03    3.06       5.5  T
   3    -50.0601029 -0.962125E-09  0.145E-04    3.06     124.2  T
   4    -50.0601029 -0.808242E-10  0.881E-05    3.06     203.9  T
     SCC iter.                  ...        0 min,  0.005 sec
     gradient                   ...        0 min,  0.015 sec
 * total energy  :   -49.3472766 Eh     change       -0.1586743E-05 Eh
   gradient norm :     0.0001688 Eh/α   predicted    -0.5388361E-06 ( -66.04%)
   displ. norm   :     0.0204995 α      lambda       -0.1209444E-05
   maximum displ.:     0.0182978 α      in ANC's #2, #1, #7, ...

........................................................................
.............................. CYCLE   27 ..............................
........................................................................

 iter      E             dE          RMSdq      gap      omega  full diag
   1    -50.0601184 -0.500601E+02  0.572E-03    3.06       0.0  T
   2    -50.0601184 -0.193330E-08  0.338E-03    3.06       5.3  T
   3    -50.0601184 -0.213049E-09  0.230E-04    3.06      78.0  T
   4    -50.0601184 -0.856758E-09  0.100E-04    3.06     179.4  T
     SCC iter.                  ...        0 min,  0.005 sec
     gradient                   ...        0 min,  0.015 sec
 * total energy  :   -49.3472784 Eh     change       -0.1793871E-05 Eh
   gradient norm :     0.0001407 Eh/α   predicted    -0.6069940E-06 ( -66.16%)
   displ. norm   :     0.0260871 α      lambda       -0.1557457E-05
   maximum displ.:     0.0223751 α      in ANC's #2, #1, #3, ...

........................................................................
.............................. CYCLE   28 ..............................
........................................................................

 iter      E             dE          RMSdq      gap      omega  full diag
   1    -50.0601293 -0.500601E+02  0.712E-03    3.05       0.0  T
   2    -50.0601293 -0.277507E-08  0.420E-03    3.05       4.3  T
   3    -50.0601293 -0.239304E-09  0.279E-04    3.05      64.4  T
   4    -50.0601293 -0.133672E-08  0.118E-04    3.05     152.6  T
     SCC iter.                  ...        0 min,  0.005 sec
     gradient                   ...        0 min,  0.015 sec
 * total energy  :   -49.3472807 Eh     change       -0.2308238E-05 Eh
   gradient norm :     0.0001159 Eh/α   predicted    -0.7796918E-06 ( -66.22%)
   displ. norm   :     0.0349162 α      lambda       -0.2047582E-05
   maximum displ.:     0.0290768 α      in ANC's #2, #1, #3, ...

........................................................................
.............................. CYCLE   29 ..............................
........................................................................

 iter      E             dE          RMSdq      gap      omega  full diag
   1    -50.0601417 -0.500601E+02  0.956E-03    3.05       0.0  T
   2    -50.0601417 -0.480143E-08  0.563E-03    3.05       3.2  T
   3    -50.0601417 -0.758710E-09  0.344E-04    3.05      52.1  T
   4    -50.0601417 -0.195290E-08  0.152E-04    3.05     118.3  T
     SCC iter.                  ...        0 min,  0.006 sec
     gradient                   ...        0 min,  0.015 sec
 * total energy  :   -49.3472837 Eh     change       -0.3024855E-05 Eh
   gradient norm :     0.0001223 Eh/α   predicted    -0.1025541E-05 ( -66.10%)
   displ. norm   :     0.0456086 α      lambda       -0.2600937E-05
   maximum displ.:     0.0373174 α      in ANC's #2, #1, #3, ...

........................................................................
.............................. CYCLE   30 ..............................
........................................................................

 iter      E             dE          RMSdq      gap      omega  full diag
   1    -50.0601532 -0.500602E+02  0.125E-02    3.05       0.0  T
   2    -50.0601532 -0.788201E-08  0.736E-03    3.05       2.4  T
   3    -50.0601532 -0.206614E-08  0.402E-04    3.05      44.6  T
   4    -50.0601532 -0.240831E-08  0.193E-04    3.05      92.8  T
     SCC iter.                  ...        0 min,  0.005 sec
     gradient                   ...        0 min,  0.015 sec
 * total energy  :   -49.3472876 Eh     change       -0.3838804E-05 Eh
   gradient norm :     0.0001583 Eh/α   predicted    -0.1302692E-05 ( -66.07%)
   displ. norm   :     0.0551073 α      lambda       -0.3059973E-05
   maximum displ.:     0.0445784 α      in ANC's #2, #1, #3, ...

........................................................................
.............................. CYCLE   31 ..............................
........................................................................

 iter      E             dE          RMSdq      gap      omega  full diag
   1    -50.0601568 -0.500602E+02  0.152E-02    3.05       0.0  T
   2    -50.0601568 -0.112230E-07  0.894E-03    3.05       2.0  T
   3    -50.0601568 -0.388854E-08  0.441E-04    3.05      40.8  T
   4    -50.0601568 -0.254006E-08  0.231E-04    3.05      77.8  T
     SCC iter.                  ...        0 min,  0.005 sec
     gradient                   ...        0 min,  0.015 sec
 * total energy  :   -49.3472921 Eh     change       -0.4527784E-05 Eh
   gradient norm :     0.0002050 Eh/α   predicted    -0.1532764E-05 ( -66.15%)
   displ. norm   :     0.0626487 α      lambda       -0.3442158E-05
   maximum displ.:     0.0504315 α      in ANC's #2, #1, #3, ...

........................................................................
.............................. CYCLE   32 ..............................
........................................................................

 iter      E             dE          RMSdq      gap      omega  full diag
   1    -50.0601583 -0.500602E+02  0.173E-02    3.05       0.0  T
   2    -50.0601584 -0.145302E-07  0.102E-02    3.05       1.8  T
   3    -50.0601584 -0.564406E-08  0.474E-04    3.05      37.9  T
   4    -50.0601584 -0.266017E-08  0.262E-04    3.05      68.6  T
     SCC iter.                  ...        0 min,  0.005 sec
     gradient                   ...        0 min,  0.015 sec
 * total energy  :   -49.3472972 Eh     change       -0.5122907E-05 Eh
   gradient norm :     0.0002412 Eh/α   predicted    -0.1724913E-05 ( -66.33%)
   displ. norm   :     0.0696223 α      lambda       -0.3846303E-05
   maximum displ.:     0.0559624 α      in ANC's #2, #1, #3, ...

........................................................................
.............................. CYCLE   33 ..............................
........................................................................

 iter      E             dE          RMSdq      gap      omega  full diag
   1    -50.0601529 -0.500602E+02  0.193E-02    3.05       0.0  T
   2    -50.0601530 -0.176831E-07  0.114E-02    3.05       1.6  T
   3    -50.0601530 -0.743416E-08  0.497E-04    3.05      36.1  T
   4    -50.0601530 -0.272512E-08  0.287E-04    3.05      62.5  T
     SCC iter.                  ...        0 min,  0.005 sec
     gradient                   ...        0 min,  0.015 sec
 * total energy  :   -49.3473030 Eh     change       -0.5751763E-05 Eh
   gradient norm :     0.0002565 Eh/α   predicted    -0.1928131E-05 ( -66.48%)
   displ. norm   :     0.0787006 α      lambda       -0.4421696E-05
   maximum displ.:     0.0634438 α      in ANC's #2, #1, #3, ...

........................................................................
.............................. CYCLE   34 ..............................
........................................................................

 iter      E             dE          RMSdq      gap      omega  full diag
   1    -50.0601418 -0.500601E+02  0.219E-02    3.05       0.0  T
   2    -50.0601418 -0.229888E-07  0.129E-02    3.05       1.4  T
   3    -50.0601418 -0.951162E-08  0.564E-04    3.05      31.8  T
   4    -50.0601418 -0.364039E-08  0.326E-04    3.05      55.1  T
     SCC iter.                  ...        0 min,  0.005 sec
     gradient                   ...        0 min,  0.015 sec
 * total energy  :   -49.3473096 Eh     change       -0.6633531E-05 Eh
   gradient norm :     0.0002614 Eh/α   predicted    -0.2217518E-05 ( -66.57%)
   displ. norm   :     0.0929397 α      lambda       -0.5333055E-05
   maximum displ.:     0.0753528 α      in ANC's #2, #1, #3, ...

........................................................................
.............................. CYCLE   35 ..............................
........................................................................

 iter      E             dE          RMSdq      gap      omega  full diag
   1    -50.0601137 -0.500601E+02  0.259E-02    3.05       0.0  T
   2    -50.0601137 -0.322842E-07  0.153E-02    3.05       1.2  T
   3    -50.0601137 -0.130014E-07  0.669E-04    3.05      26.9  T
   4    -50.0601137 -0.540629E-08  0.385E-04    3.05      46.7  T
     SCC iter.                  ...        0 min,  0.006 sec
     gradient                   ...        0 min,  0.015 sec
 * total energy  :   -49.3473176 Eh     change       -0.8014633E-05 Eh
   gradient norm :     0.0002631 Eh/α   predicted    -0.2677016E-05 ( -66.60%)
   displ. norm   :     0.1017842 α      lambda       -0.5986314E-05
   maximum displ.:     0.0831693 α      in ANC's #2, #1, #3, ...

........................................................................
.............................. CYCLE   36 ..............................
........................................................................

 iter      E             dE          RMSdq      gap      omega  full diag
   1    -50.0600831 -0.500601E+02  0.285E-02    3.06       0.0  T
   2    -50.0600831 -0.392869E-07  0.168E-02    3.06       1.1  T
   3    -50.0600831 -0.153918E-07  0.746E-04    3.06      24.1  T
   4    -50.0600832 -0.710110E-08  0.427E-04    3.06      42.0  T
     SCC iter.                  ...        0 min,  0.005 sec
     gradient                   ...        0 min,  0.015 sec
 * total energy  :   -49.3473266 Eh     change       -0.9007652E-05 Eh
   gradient norm :     0.0002622 Eh/α   predicted    -0.3007595E-05 ( -66.61%)
   displ. norm   :     0.2218204 α      lambda       -0.1321393E-04
   maximum displ.:     0.1821242 α      in ANC's #2, #1, #3, ...

........................................................................
.............................. CYCLE   37 ..............................
........................................................................

 iter      E             dE          RMSdq      gap      omega  full diag
   1    -50.0597433 -0.500597E+02  0.622E-02    3.06       0.0  T
   2    -50.0597435 -0.195057E-06  0.367E-02    3.06       1.0  T
   3    -50.0597436 -0.665784E-07  0.167E-03    3.06      10.8  T
   4    -50.0597436 -0.399219E-07  0.913E-04    3.06      19.7  T
   5    -50.0597436 -0.199947E-08  0.404E-04    3.06      44.4  T
     SCC iter.                  ...        0 min,  0.006 sec
     gradient                   ...        0 min,  0.015 sec
 * total energy  :   -49.3473465 Eh     change       -0.1991118E-04 Eh
   gradient norm :     0.0005690 Eh/α   predicted    -0.6753528E-05 ( -66.08%)
   displ. norm   :     0.1698378 α      lambda       -0.1037715E-04
   maximum displ.:     0.1399004 α      in ANC's #2, #1, #3, ...

........................................................................
.............................. CYCLE   38 ..............................
........................................................................

 iter      E             dE          RMSdq      gap      omega  full diag
   1    -50.0594387 -0.500594E+02  0.479E-02    3.06       0.0  T
   2    -50.0594388 -0.118121E-06  0.282E-02    3.06       1.0  T
   3    -50.0594389 -0.384779E-07  0.128E-03    3.06      14.0  T
   4    -50.0594389 -0.248032E-07  0.700E-04    3.06      25.7  T
   5    -50.0594389 -0.974850E-09  0.317E-04    3.06      56.6  T
     SCC iter.                  ...        0 min,  0.007 sec
     gradient                   ...        0 min,  0.015 sec
 * total energy  :   -49.3473620 Eh     change       -0.1543920E-04 Eh
   gradient norm :     0.0008800 Eh/α   predicted    -0.5259545E-05 ( -65.93%)
   displ. norm   :     0.1330167 α      lambda       -0.8611292E-05
   maximum displ.:     0.1099457 α      in ANC's #2, #1, #3, ...

........................................................................
.............................. CYCLE   39 ..............................
........................................................................

 iter      E             dE          RMSdq      gap      omega  full diag
   1    -50.0593623 -0.500594E+02  0.377E-02    3.06       0.0  T
   2    -50.0593624 -0.690788E-07  0.222E-02    3.06       1.0  T
   3    -50.0593624 -0.281076E-07  0.913E-04    3.06      19.7  T
   4    -50.0593624 -0.101980E-07  0.541E-04    3.06      33.2  T
     SCC iter.                  ...        0 min,  0.005 sec
     gradient                   ...        0 min,  0.015 sec
 * total energy  :   -49.3473747 Eh     change       -0.1274947E-04 Eh
   gradient norm :     0.0009709 Eh/α   predicted    -0.4340653E-05 ( -65.95%)
   displ. norm   :     0.1206197 α      lambda       -0.8361061E-05
   maximum displ.:     0.1003314 α      in ANC's #2, #1, #3, ...

........................................................................
.............................. CYCLE   40 ..............................
........................................................................

 iter      E             dE          RMSdq      gap      omega  full diag
   1    -50.0594362 -0.500594E+02  0.344E-02    3.06       0.0  T
   2    -50.0594363 -0.577053E-07  0.203E-02    3.06       1.0  T
   3    -50.0594363 -0.188669E-07  0.937E-04    3.06      19.2  T
   4    -50.0594363 -0.140105E-07  0.531E-04    3.06      33.8  T
     SCC iter.                  ...        0 min,  0.006 sec
     gradient                   ...        0 min,  0.015 sec
 * total energy  :   -49.3473872 Eh     change       -0.1243356E-04 Eh
   gradient norm :     0.0009185 Eh/α   predicted    -0.4207968E-05 ( -66.16%)
   displ. norm   :     0.1355019 α      lambda       -0.9871898E-05
   maximum displ.:     0.1137262 α      in ANC's #2, #1, #3, ...

........................................................................
.............................. CYCLE   41 ..............................
........................................................................

 iter      E             dE          RMSdq      gap      omega  full diag
   1    -50.0595154 -0.500595E+02  0.388E-02    3.06       0.0  T
   2    -50.0595155 -0.733378E-07  0.229E-02    3.06       1.0  T
   3    -50.0595155 -0.258425E-07  0.106E-03    3.06      16.9  T
   4    -50.0595156 -0.157350E-07  0.616E-04    3.06      29.2  T
   5    -50.0595156 -0.155123E-08  0.282E-04    3.06      63.6  T
     SCC iter.                  ...        0 min,  0.006 sec
     gradient                   ...        0 min,  0.015 sec
 * total energy  :   -49.3474019 Eh     change       -0.1471156E-04 Eh
   gradient norm :     0.0008782 Eh/α   predicted    -0.4977011E-05 ( -66.17%)
   displ. norm   :     0.1619224 α      lambda       -0.1236912E-04
   maximum displ.:     0.1370792 α      in ANC's #2, #1, #3, ...

........................................................................
.............................. CYCLE   42 ..............................
........................................................................

 iter      E             dE          RMSdq      gap      omega  full diag
   1    -50.0594958 -0.500595E+02  0.466E-02    3.06       0.0  T
   2    -50.0594959 -0.105161E-06  0.275E-02    3.06       1.0  T
   3    -50.0594960 -0.430521E-07  0.113E-03    3.06      15.8  T
   4    -50.0594960 -0.147331E-07  0.690E-04    3.06      26.0  T
   5    -50.0594960 -0.148016E-08  0.320E-04    3.06      56.2  T
     SCC iter.                  ...        0 min,  0.007 sec
     gradient                   ...        0 min,  0.015 sec
 * total energy  :   -49.3474204 Eh     change       -0.1855792E-04 Eh
   gradient norm :     0.0009394 Eh/α   predicted    -0.6258431E-05 ( -66.28%)
   displ. norm   :     0.1766263 α      lambda       -0.1437853E-04
   maximum displ.:     0.1506924 α      in ANC's #2, #1, #3, ...
 * RMSD in coord.:     0.3180784 α      energy gain  -0.1549796E-03 Eh

generating ANC from exact Hessian ...
Using Lindh-Hessian (1995)
 Shifting diagonal of input Hessian by   9.563689538525839E-003
 Lowest  eigenvalues of input Hessian
    0.000000    0.000000    0.000000    0.000000    0.000000    0.000000
    0.010000    0.010727    0.011944    0.012702    0.013811    0.014329
    0.016014    0.016808    0.018697    0.019023    0.021600    0.024079
 Highest eigenvalues
    1.829540    1.971662    1.974746    2.037347    2.163542    2.344055
 

........................................................................
.............................. CYCLE   43 ..............................
........................................................................

 iter      E             dE          RMSdq      gap      omega  full diag
   1    -50.0593739 -0.500594E+02  0.510E-02    3.06       0.0  T
   2    -50.0593741 -0.127418E-06  0.301E-02    3.06       1.0  T
   3    -50.0593741 -0.521382E-07  0.125E-03    3.06      14.4  T
   4    -50.0593741 -0.176349E-07  0.753E-04    3.06      23.9  T
   5    -50.0593741 -0.130479E-08  0.351E-04    3.06      51.2  T
     SCC iter.                  ...        0 min,  0.006 sec
     gradient                   ...        0 min,  0.022 sec
 * total energy  :   -49.3474420 Eh     change       -0.2158619E-04 Eh
   gradient norm :     0.0010906 Eh/α   predicted     0.0000000E+00 (-100.00%)
   displ. norm   :     0.0320731 α      lambda       -0.8704879E-05
   maximum displ.:     0.0250355 α      in ANC's #2, #4, #3, ...

........................................................................
.............................. CYCLE   44 ..............................
........................................................................

 iter      E             dE          RMSdq      gap      omega  full diag
   1    -50.0604437 -0.500604E+02  0.949E-03    3.06       0.0  T
   2    -50.0604437 -0.501394E-07  0.563E-03    3.06       3.2  T
   3    -50.0604437  0.341980E-07  0.149E-03    3.06      12.1  T
   4    -50.0604437 -0.463479E-07  0.287E-04    3.06      62.6  T
   5    -50.0604437 -0.107515E-08  0.149E-04    3.06     120.6  T
     SCC iter.                  ...        0 min,  0.007 sec
     gradient                   ...        0 min,  0.016 sec
 * total energy  :   -49.3474520 Eh     change       -0.1001505E-04 Eh
   gradient norm :     0.0006058 Eh/α   predicted    -0.4367515E-05 ( -56.39%)
   displ. norm   :     0.0683951 α      lambda       -0.1173723E-04
   maximum displ.:     0.0519350 α      in ANC's #2, #4, #9, ...

........................................................................
.............................. CYCLE   45 ..............................
........................................................................

 iter      E             dE          RMSdq      gap      omega  full diag
   1    -50.0610860 -0.500611E+02  0.179E-02    3.06       0.0  T
   2    -50.0610860 -0.574353E-07  0.106E-02    3.06       1.7  T
   3    -50.0610860  0.411141E-07  0.156E-03    3.06      11.5  T
   4    -50.0610860 -0.608549E-07  0.431E-04    3.06      41.7  T
   5    -50.0610860 -0.135915E-08  0.220E-04    3.06      81.5  T
     SCC iter.                  ...        0 min,  0.007 sec
     gradient                   ...        0 min,  0.016 sec
 * total energy  :   -49.3474654 Eh     change       -0.1337081E-04 Eh
   gradient norm :     0.0008912 Eh/α   predicted    -0.5884048E-05 ( -55.99%)
   displ. norm   :     0.0814477 α      lambda       -0.1080950E-04
   maximum displ.:     0.0625107 α      in ANC's #2, #9, #1, ...

........................................................................
.............................. CYCLE   46 ..............................
........................................................................

 iter      E             dE          RMSdq      gap      omega  full diag
   1    -50.0607277 -0.500607E+02  0.217E-02    3.06       0.0  T
   2    -50.0607278 -0.730310E-07  0.129E-02    3.06       1.4  T
   3    -50.0607278  0.354918E-07  0.158E-03    3.06      11.4  T
   4    -50.0607278 -0.594715E-07  0.471E-04    3.06      38.2  T
   5    -50.0607278 -0.106289E-08  0.276E-04    3.06      65.1  T
     SCC iter.                  ...        0 min,  0.007 sec
     gradient                   ...        0 min,  0.016 sec
 * total energy  :   -49.3474773 Eh     change       -0.1192059E-04 Eh
   gradient norm :     0.0008813 Eh/α   predicted    -0.5421509E-05 ( -54.52%)
   displ. norm   :     0.0613403 α      lambda       -0.7113498E-05
   maximum displ.:     0.0500851 α      in ANC's #2, #9, #1, ...

........................................................................
.............................. CYCLE   47 ..............................
........................................................................

 iter      E             dE          RMSdq      gap      omega  full diag
   1    -50.0604191 -0.500604E+02  0.160E-02    3.06       0.0  T
   2    -50.0604192 -0.390573E-07  0.952E-03    3.06       1.9  T
   3    -50.0604192 -0.585061E-09  0.790E-04    3.06      22.7  T
   4    -50.0604192 -0.109165E-07  0.335E-04    3.06      53.6  T
     SCC iter.                  ...        0 min,  0.006 sec
     gradient                   ...        0 min,  0.016 sec
 * total energy  :   -49.3474862 Eh     change       -0.8889751E-05 Eh
   gradient norm :     0.0006350 Eh/α   predicted    -0.3563633E-05 ( -59.91%)
   displ. norm   :     0.0500037 α      lambda       -0.5851295E-05
   maximum displ.:     0.0428984 α      in ANC's #2, #9, #1, ...

........................................................................
.............................. CYCLE   48 ..............................
........................................................................

 iter      E             dE          RMSdq      gap      omega  full diag
   1    -50.0602528 -0.500603E+02  0.133E-02    3.06       0.0  T
   2    -50.0602529 -0.182259E-07  0.791E-03    3.06       2.3  T
   3    -50.0602528  0.374082E-08  0.757E-04    3.06      23.7  T
   4    -50.0602529 -0.115635E-07  0.302E-04    3.06      59.5  T
     SCC iter.                  ...        0 min,  0.006 sec
     gradient                   ...        0 min,  0.015 sec
 * total energy  :   -49.3474941 Eh     change       -0.7868866E-05 Eh
   gradient norm :     0.0005514 Eh/α   predicted    -0.2929456E-05 ( -62.77%)
   displ. norm   :     0.0516028 α      lambda       -0.6084790E-05
   maximum displ.:     0.0438659 α      in ANC's #2, #9, #3, ...

........................................................................
.............................. CYCLE   49 ..............................
........................................................................

 iter      E             dE          RMSdq      gap      omega  full diag
   1    -50.0601660 -0.500602E+02  0.138E-02    3.06       0.0  T
   2    -50.0601660 -0.140868E-07  0.814E-03    3.06       2.2  T
   3    -50.0601660  0.556253E-08  0.786E-04    3.06      22.8  T
   4    -50.0601660 -0.136116E-07  0.277E-04    3.06      64.9  T
     SCC iter.                  ...        0 min,  0.005 sec
     gradient                   ...        0 min,  0.015 sec
 * total energy  :   -49.3475022 Eh     change       -0.8160235E-05 Eh
   gradient norm :     0.0004802 Eh/α   predicted    -0.3047094E-05 ( -62.66%)
   displ. norm   :     0.0582214 α      lambda       -0.6173153E-05
   maximum displ.:     0.0486945 α      in ANC's #2, #3, #9, ...

........................................................................
.............................. CYCLE   50 ..............................
........................................................................

 iter      E             dE          RMSdq      gap      omega  full diag
   1    -50.0602095 -0.500602E+02  0.164E-02    3.06       0.0  T
   2    -50.0602095 -0.215216E-07  0.970E-03    3.06       1.9  T
   3    -50.0602095  0.260011E-08  0.764E-04    3.06      23.5  T
   4    -50.0602095 -0.119311E-07  0.315E-04    3.06      57.0  T
     SCC iter.                  ...        0 min,  0.006 sec
     gradient                   ...        0 min,  0.016 sec
 * total energy  :   -49.3475106 Eh     change       -0.8400894E-05 Eh
   gradient norm :     0.0004652 Eh/α   predicted    -0.3092044E-05 ( -63.19%)
   displ. norm   :     0.0622770 α      lambda       -0.6164806E-05
   maximum displ.:     0.0514114 α      in ANC's #2, #3, #9, ...

........................................................................
.............................. CYCLE   51 ..............................
........................................................................

 iter      E             dE          RMSdq      gap      omega  full diag
   1    -50.0602372 -0.500602E+02  0.182E-02    3.06       0.0  T
   2    -50.0602372 -0.215603E-07  0.107E-02    3.06       1.7  T
   3    -50.0602372  0.975540E-09  0.739E-04    3.06      24.3  T
   4    -50.0602373 -0.108680E-07  0.322E-04    3.06      55.8  T
     SCC iter.                  ...        0 min,  0.006 sec
     gradient                   ...        0 min,  0.016 sec
 * total energy  :   -49.3475194 Eh     change       -0.8711309E-05 Eh
   gradient norm :     0.0005317 Eh/α   predicted    -0.3088268E-05 ( -64.55%)
   displ. norm   :     0.0716211 α      lambda       -0.7162110E-05
   maximum displ.:     0.0580849 α      in ANC's #2, #3, #9, ...

........................................................................
.............................. CYCLE   52 ..............................
........................................................................

 iter      E             dE          RMSdq      gap      omega  full diag
   1    -50.0602911 -0.500603E+02  0.217E-02    3.06       0.0  T
   2    -50.0602911 -0.247426E-07  0.127E-02    3.06       1.4  T
   3    -50.0602911 -0.305375E-08  0.732E-04    3.06      24.5  T
   4    -50.0602912 -0.984245E-08  0.346E-04    3.06      51.9  T
     SCC iter.                  ...        0 min,  0.006 sec
     gradient                   ...        0 min,  0.015 sec
 * total energy  :   -49.3475297 Eh     change       -0.1034390E-04 Eh
   gradient norm :     0.0005467 Eh/α   predicted    -0.3593749E-05 ( -65.26%)
   displ. norm   :     0.0891961 α      lambda       -0.9196324E-05
   maximum displ.:     0.0716467 α      in ANC's #2, #3, #9, ...

........................................................................
.............................. CYCLE   53 ..............................
........................................................................

 iter      E             dE          RMSdq      gap      omega  full diag
   1    -50.0603166 -0.500603E+02  0.273E-02    3.06       0.0  T
   2    -50.0603166 -0.375456E-07  0.161E-02    3.06       1.1  T
   3    -50.0603166 -0.402638E-08  0.926E-04    3.06      19.4  T
   4    -50.0603166 -0.160895E-07  0.414E-04    3.06      43.4  T
     SCC iter.                  ...        0 min,  0.005 sec
     gradient                   ...        0 min,  0.015 sec
 * total energy  :   -49.3475430 Eh     change       -0.1328286E-04 Eh
   gradient norm :     0.0004685 Eh/α   predicted    -0.4615270E-05 ( -65.25%)
   displ. norm   :     0.1141811 α      lambda       -0.1178042E-04
   maximum displ.:     0.0917400 α      in ANC's #2, #3, #9, ...

........................................................................
.............................. CYCLE   54 ..............................
........................................................................

 iter      E             dE          RMSdq      gap      omega  full diag
   1    -50.0602863 -0.500603E+02  0.351E-02    3.06       0.0  T
   2    -50.0602864 -0.641154E-07  0.207E-02    3.06       1.0  T
   3    -50.0602864 -0.310322E-09  0.129E-03    3.06      13.9  T
   4    -50.0602864 -0.339245E-07  0.532E-04    3.06      33.8  T
   5    -50.0602864 -0.857781E-09  0.302E-04    3.06      59.5  T
     SCC iter.                  ...        0 min,  0.007 sec
     gradient                   ...        0 min,  0.015 sec
 * total energy  :   -49.3475599 Eh     change       -0.1687594E-04 Eh
   gradient norm :     0.0003664 Eh/α   predicted    -0.5925548E-05 ( -64.89%)
   displ. norm   :     0.1267994 α      lambda       -0.1282316E-04
   maximum displ.:     0.1033708 α      in ANC's #2, #3, #1, ...

........................................................................
.............................. CYCLE   55 ..............................
........................................................................

 iter      E             dE          RMSdq      gap      omega  full diag
   1    -50.0602408 -0.500602E+02  0.388E-02    3.06       0.0  T
   2    -50.0602409 -0.816622E-07  0.228E-02    3.06       1.0  T
   3    -50.0602409 -0.185825E-08  0.139E-03    3.06      12.9  T
   4    -50.0602410 -0.399695E-07  0.572E-04    3.06      31.4  T
   5    -50.0602410 -0.768459E-09  0.337E-04    3.06      53.3  T
     SCC iter.                  ...        0 min,  0.007 sec
     gradient                   ...        0 min,  0.015 sec
 * total energy  :   -49.3475781 Eh     change       -0.1828318E-04 Eh
   gradient norm :     0.0003685 Eh/α   predicted    -0.6458033E-05 ( -64.68%)
   displ. norm   :     0.1169728 α      lambda       -0.1168097E-04
   maximum displ.:     0.0970367 α      in ANC's #2, #3, #1, ...

........................................................................
.............................. CYCLE   56 ..............................
........................................................................

 iter      E             dE          RMSdq      gap      omega  full diag
   1    -50.0602473 -0.500602E+02  0.356E-02    3.06       0.0  T
   2    -50.0602474 -0.657858E-07  0.209E-02    3.06       1.0  T
   3    -50.0602474  0.215408E-08  0.132E-03    3.06      13.6  T
   4    -50.0602474 -0.378380E-07  0.528E-04    3.06      34.0  T
   5    -50.0602474 -0.604224E-09  0.302E-04    3.06      59.5  T
     SCC iter.                  ...        0 min,  0.007 sec
     gradient                   ...        0 min,  0.015 sec
 * total energy  :   -49.3475950 Eh     change       -0.1684364E-04 Eh
   gradient norm :     0.0004211 Eh/α   predicted    -0.5878115E-05 ( -65.10%)
   displ. norm   :     0.0992404 α      lambda       -0.1023409E-04
   maximum displ.:     0.0838397 α      in ANC's #2, #1, #3, ...

........................................................................
.............................. CYCLE   57 ..............................
........................................................................

 iter      E             dE          RMSdq      gap      omega  full diag
   1    -50.0603456 -0.500603E+02  0.299E-02    3.06       0.0  T
   2    -50.0603457 -0.445782E-07  0.176E-02    3.06       1.0  T
   3    -50.0603457  0.159576E-08  0.112E-03    3.06      16.0  T
   4    -50.0603457 -0.275365E-07  0.454E-04    3.06      39.5  T
   5    -50.0603457 -0.346319E-09  0.231E-04    3.06      77.8  T
     SCC iter.                  ...        0 min,  0.007 sec
     gradient                   ...        0 min,  0.015 sec
 * total energy  :   -49.3476099 Eh     change       -0.1491984E-04 Eh
   gradient norm :     0.0004290 Eh/α   predicted    -0.5141439E-05 ( -65.54%)
   displ. norm   :     0.0867147 α      lambda       -0.9436766E-05
   maximum displ.:     0.0738587 α      in ANC's #2, #1, #3, ...

........................................................................
.............................. CYCLE   58 ..............................
........................................................................

 iter      E             dE          RMSdq      gap      omega  full diag
   1    -50.0604598 -0.500605E+02  0.256E-02    3.06       0.0  T
   2    -50.0604599 -0.316574E-07  0.151E-02    3.06       1.2  T
   3    -50.0604599  0.205136E-08  0.979E-04    3.06      18.3  T
   4    -50.0604599 -0.210552E-07  0.398E-04    3.06      45.2  T
     SCC iter.                  ...        0 min,  0.005 sec
     gradient                   ...        0 min,  0.016 sec
 * total energy  :   -49.3476238 Eh     change       -0.1386752E-04 Eh
   gradient norm :     0.0004151 Eh/α   predicted    -0.4735941E-05 ( -65.85%)
   displ. norm   :     0.0838628 α      lambda       -0.9559816E-05
   maximum displ.:     0.0706779 α      in ANC's #2, #1, #3, ...

........................................................................
.............................. CYCLE   59 ..............................
........................................................................

 iter      E             dE          RMSdq      gap      omega  full diag
   1    -50.0605389 -0.500605E+02  0.246E-02    3.06       0.0  T
   2    -50.0605389 -0.293854E-07  0.145E-02    3.06       1.2  T
   3    -50.0605389  0.433580E-08  0.103E-03    3.06      17.4  T
   4    -50.0605389 -0.226609E-07  0.409E-04    3.06      43.9  T
   5    -50.0605389 -0.345629E-09  0.186E-04    3.06      96.6  T
     SCC iter.                  ...        0 min,  0.007 sec
     gradient                   ...        0 min,  0.015 sec
 * total energy  :   -49.3476379 Eh     change       -0.1414982E-04 Eh
   gradient norm :     0.0003790 Eh/α   predicted    -0.4797093E-05 ( -66.10%)
   displ. norm   :     0.0942982 α      lambda       -0.1099319E-04
   maximum displ.:     0.0776359 α      in ANC's #2, #1, #7, ...

........................................................................
.............................. CYCLE   60 ..............................
........................................................................

 iter      E             dE          RMSdq      gap      omega  full diag
   1    -50.0605521 -0.500606E+02  0.273E-02    3.06       0.0  T
   2    -50.0605521 -0.347171E-07  0.161E-02    3.06       1.1  T
   3    -50.0605521 -0.209045E-08  0.972E-04    3.06      18.5  T
   4    -50.0605522 -0.184976E-07  0.448E-04    3.06      40.1  T
     SCC iter.                  ...        0 min,  0.005 sec
     gradient                   ...        0 min,  0.015 sec
 * total energy  :   -49.3476541 Eh     change       -0.1614079E-04 Eh
   gradient norm :     0.0003454 Eh/α   predicted    -0.5520730E-05 ( -65.80%)
   displ. norm   :     0.1210935 α      lambda       -0.1373892E-04
   maximum displ.:     0.0971384 α      in ANC's #2, #1, #7, ...

........................................................................
.............................. CYCLE   61 ..............................
........................................................................

 iter      E             dE          RMSdq      gap      omega  full diag
   1    -50.0604748 -0.500605E+02  0.351E-02    3.06       0.0  T
   2    -50.0604748 -0.559086E-07  0.208E-02    3.06       1.0  T
   3    -50.0604748  0.335903E-08  0.137E-03    3.06      13.1  T
   4    -50.0604749 -0.379977E-07  0.592E-04    3.06      30.4  T
   5    -50.0604749 -0.827889E-09  0.246E-04    3.06      73.0  T
     SCC iter.                  ...        0 min,  0.007 sec
     gradient                   ...        0 min,  0.015 sec
 * total energy  :   -49.3476739 Eh     change       -0.1982796E-04 Eh
   gradient norm :     0.0003235 Eh/α   predicted    -0.6916860E-05 ( -65.12%)
   displ. norm   :     0.1710381 α      lambda       -0.1794838E-04
   maximum displ.:     0.1350740 α      in ANC's #2, #1, #7, ...

........................................................................
.............................. CYCLE   62 ..............................
........................................................................

 iter      E             dE          RMSdq      gap      omega  full diag
   1    -50.0602655 -0.500603E+02  0.495E-02    3.06       0.0  T
   2    -50.0602656 -0.113182E-06  0.293E-02    3.06       1.0  T
   3    -50.0602656 -0.517879E-09  0.180E-03    3.06      10.0  T
   4    -50.0602657 -0.647471E-07  0.823E-04    3.06      21.8  T
   5    -50.0602657 -0.172494E-08  0.396E-04    3.06      45.4  T
     SCC iter.                  ...        0 min,  0.006 sec
     gradient                   ...        0 min,  0.015 sec
 * total energy  :   -49.3476989 Eh     change       -0.2505292E-04 Eh
   gradient norm :     0.0004783 Eh/α   predicted    -0.9091521E-05 ( -63.71%)
   displ. norm   :     0.2739802 α      lambda       -0.2488616E-04
   maximum displ.:     0.2148139 α      in ANC's #2, #1, #7, ...

........................................................................
.............................. CYCLE   63 ..............................
........................................................................

 iter      E             dE          RMSdq      gap      omega  full diag
   1    -50.0596797 -0.500597E+02  0.796E-02    3.06       0.0  T
   2    -50.0596800 -0.305220E-06  0.471E-02    3.06       1.0  T
   3    -50.0596800  0.402069E-07  0.311E-03    3.06       5.8  T
   4    -50.0596802 -0.208821E-06  0.133E-03    3.06      13.5  T
   5    -50.0596802 -0.540139E-08  0.683E-04    3.06      26.3  T
   6    -50.0596802 -0.343966E-08  0.183E-04    3.06      98.0  T
     SCC iter.                  ...        0 min,  0.008 sec
     gradient                   ...        0 min,  0.015 sec
 * total energy  :   -49.3477305 Eh     change       -0.3157846E-04 Eh
   gradient norm :     0.0011213 Eh/α   predicted    -0.1286089E-04 ( -59.27%)
   displ. norm   :     0.5346361 α      lambda       -0.3564059E-04
   maximum displ.:     0.4200578 α      in ANC's #2, #1, #3, ...

........................................................................
.............................. CYCLE   64 ..............................
........................................................................

 iter      E             dE          RMSdq      gap      omega  full diag
   1    -50.0574258 -0.500574E+02  0.156E-01    3.07       0.0  T
   2    -50.0574273 -0.142114E-05  0.925E-02    3.07       1.0  T
   3    -50.0574268  0.426967E-06  0.699E-03    3.07       2.6  T
   4    -50.0574279 -0.110487E-05  0.269E-03    3.07       6.7  T
[...]
       ...           ...                  ...                  ...
        32        2.0000           -0.4702773             -12.7969
        33        2.0000           -0.4679331             -12.7331
        34        2.0000           -0.4617807             -12.5657
        35        2.0000           -0.4584438             -12.4749
        36        2.0000           -0.4481826             -12.1957
        37        2.0000           -0.4409365             -11.9985
        38        2.0000           -0.4363805             -11.8745
        39        2.0000           -0.4308336             -11.7236
        40        2.0000           -0.4218459             -11.4790
        41        2.0000           -0.4147944             -11.2871
        42        2.0000           -0.4123321             -11.2201
        43        2.0000           -0.3904992             -10.6260
        44        2.0000           -0.3710355             -10.0964 (HOMO)
        45                         -0.2581646              -7.0250 (LUMO)
        46                         -0.2429127              -6.6100
        47                         -0.2210312              -6.0146
        48                         -0.1882615              -5.1229
        49                         -0.1425501              -3.8790
        50                         -0.0562209              -1.5298
        51                          0.0265911               0.7236
        52                          0.0624606               1.6996
        53                          0.0793776               2.1600
        54                          0.1021776               2.7804
        55                          0.1110144               3.0209
       ...                                ...                  ...
        82                          0.7028311              19.1250
      -------------------------------------------------------------
                  HL-Gap            0.1128709 Eh            3.0714 eV
             Fermi-level           -0.3146001 Eh           -8.5607 eV

     #   Z          covCN         q      C6AA      α(0)
     1   6 C        3.755    -0.117    22.789     6.807
     2   6 C        3.857    -0.043    21.300     6.564
     3   1 H        0.924     0.062     2.178     2.308
     4   6 C        2.977     0.009    27.811     8.650
     5   6 C        2.919    -0.041    29.028     8.835
     6   6 C        2.918    -0.043    29.067     8.841
     7   6 C        2.988     0.008    27.822     8.652
     8   6 C        2.916    -0.082    30.040     8.988
     9   6 C        2.861     0.140    24.936     8.185
    10   6 C        2.916    -0.057    29.415     8.894
    11   6 C        2.917    -0.040    29.005     8.832
    12   6 C        2.986     0.003    27.953     8.673
    13   6 C        2.923    -0.046    29.140     8.852
    14   8 O        1.705    -0.301    19.017     5.888
    15   6 C        3.642     0.021    20.562     6.519
    16   6 C        2.700     0.370    20.724     7.451
    17   8 O        0.856    -0.502    23.826     6.544
    18   8 O        1.659    -0.400    20.854     6.165
    19   1 H        0.925     0.051     2.306     2.375
    20   1 H        0.925     0.065     2.139     2.287
    21   1 H        0.925     0.058     2.217     2.328
    22   1 H        0.926     0.039     2.463     2.454
    23   1 H        0.926     0.042     2.424     2.435
    24   1 H        0.926     0.044     2.397     2.421
    25   1 H        0.926     0.054     2.274     2.358
    26   1 H        0.926     0.052     2.298     2.370
    27   1 H        0.926     0.050     2.314     2.379
    28   1 H        0.924     0.053     2.278     2.361
    29   1 H        0.925     0.080     1.981     2.201
    30   1 H        0.924     0.054     2.269     2.356
    31   1 H        0.803     0.415     0.458     1.063

 Mol. C6AA /au·bohr⁶  :      11153.522411
 Mol. C8AA /au·bohr⁸  :     267694.750040
 Mol. α(0) /au        :        165.035404


Wiberg/Mayer (AO) data.
largest (>0.10) Wiberg bond orders for each atom

 ---------------------------------------------------------------------------
     #   Z sym  total        # sym  WBO       # sym  WBO       # sym  WBO
 ---------------------------------------------------------------------------
     1   6 C    3.987 --     2 C    0.992    19 H    0.985    21 H    0.985
                            20 H    0.982
     2   6 C    3.990 --     1 C    0.992     4 C    0.963     3 H    0.961
                            16 C    0.958
     3   1 H    0.996 --     2 C    0.961
     4   6 C    3.977 --    13 C    1.513     5 C    1.302     2 C    0.963
     5   6 C    3.991 --     6 C    1.554     4 C    1.302    22 H    0.967
     6   6 C    3.991 --     5 C    1.554     7 C    1.281    23 H    0.967
                            13 C    0.114
     7   6 C    3.989 --     6 C    1.281     8 C    1.279    12 C    1.250
     8   6 C    3.984 --     9 C    1.478     7 C    1.279    24 H    0.963
                            11 C    0.105
     9   6 C    3.930 --     8 C    1.478    10 C    1.244    14 O    1.058
    10   6 C    3.988 --    11 C    1.589     9 C    1.244    25 H    0.967
    11   6 C    3.988 --    10 C    1.589    12 C    1.260    26 H    0.966
                             8 C    0.105
    12   6 C    3.991 --    13 C    1.294    11 C    1.260     7 C    1.250
    13   6 C    3.990 --     4 C    1.513    12 C    1.294    27 H    0.962
                             6 C    0.114
    14   8 O    2.205 --     9 C    1.058    15 C    0.972
    15   6 C    3.932 --    29 H    0.978    28 H    0.977    30 H    0.976
                            14 O    0.972
    16   6 C    3.902 --    17 O    1.689    18 O    1.191     2 C    0.958
    17   8 O    1.959 --    16 C    1.689    18 O    0.172
    18   8 O    2.200 --    16 C    1.191    31 H    0.802    17 O    0.172
    19   1 H    0.997 --     1 C    0.985
    20   1 H    0.996 --     1 C    0.982
    21   1 H    0.997 --     1 C    0.985
    22   1 H    0.998 --     5 C    0.967
    23   1 H    0.997 --     6 C    0.967
    24   1 H    0.998 --     8 C    0.963
    25   1 H    0.997 --    10 C    0.967
    26   1 H    0.996 --    11 C    0.966
    27   1 H    0.997 --    13 C    0.962
    28   1 H    0.997 --    15 C    0.977
    29   1 H    0.993 --    15 C    0.978
    30   1 H    0.997 --    15 C    0.976
    31   1 H    0.828 --    18 O    0.802
 ---------------------------------------------------------------------------

Topologies differ in total number of bonds
Writing topology from bond orders to xtbtopo.mol

molecular dipole:
                 x           y           z       tot (Debye)
 q only:        0.651       0.755      -0.410
   full:        0.600       0.603      -0.359       2.347
molecular quadrupole (traceless):
                xx          xy          yy          xz          yz          zz
 q only:       -1.160     -20.414      -0.984      -1.061       7.719       2.144
  q+dip:        0.846     -21.003      -1.739      -1.780      11.768       0.893
   full:       -0.254     -21.557      -2.402      -2.261       9.159       2.655

           -------------------------------------------------
          |                Geometry Summary                 |
           -------------------------------------------------

      molecular mass/u    :      230.2596879
   center of mass at/Å    :       -0.0045653       0.0323956       0.0696553
  moments of inertia/u·Å² :        0.4023616E+03   0.2316072E+04   0.2463089E+04
rotational constants/cm⁻¹ :        0.4189672E-01   0.7278544E-02   0.6844103E-02

 * 30 selected distances

     #   Z          #   Z                                           value/Å
     1   6 C        2   6 C                                       1.5288492 (max)
     2   6 C        3   1 H                                       1.0937711
     4   6 C        5   6 C                                       1.4066382
     5   6 C        6   6 C                                       1.3669274
     6   6 C        7   6 C                                       1.4097582
     7   6 C        8   6 C                                       1.4106845
     8   6 C        9   6 C                                       1.3722781
     9   6 C       10   6 C                                       1.4152638
    10   6 C       11   6 C                                       1.3614000
     7   6 C       12   6 C                                       1.4178768
    11   6 C       12   6 C                                       1.4130718
     4   6 C       13   6 C                                       1.3723775
    12   6 C       13   6 C                                       1.4069933
     9   6 C       14   8 O                                       1.3636365
    14   8 O       15   6 C                                       1.4143248
    16   6 C       17   8 O                                       1.2147986
    16   6 C       18   8 O                                       1.3196498
     1   6 C       19   1 H                                       1.0870630
     1   6 C       20   1 H                                       1.0852551
     1   6 C       21   1 H                                       1.0864573
     5   6 C       22   1 H                                       1.0800192
     6   6 C       23   1 H                                       1.0800876
     8   6 C       24   1 H                                       1.0785352
    10   6 C       25   1 H                                       1.0785342
    11   6 C       26   1 H                                       1.0794739
    13   6 C       27   1 H                                       1.0799058
    15   6 C       28   1 H                                       1.0931602
    15   6 C       29   1 H                                       1.0875357
    15   6 C       30   1 H                                       1.0931104
    18   8 O       31   1 H                                       0.9768751 (min)

 * 4 distinct bonds (by element types)

   Z      Z             #   av. dist./Å        max./Å        min./Å
   1 H    6 C          13     1.0848391     1.0937711     1.0785342
   6 C    6 C          12     1.4068432     1.5288492     1.3614000
   1 H    8 O           1     0.9768751     0.9768751     0.9768751
   6 C    8 O           4     1.3281024     1.4143248     1.2147986

           -------------------------------------------------
          |               Frequency Printout                |
           -------------------------------------------------
 projected vibrational frequencies (cm⁻¹)
eigval :       -0.00    -0.00    -0.00    -0.00     0.00     0.00
eigval :       27.11    38.16    54.26    83.05   116.55   140.02
eigval :      162.13   173.82   188.97   214.63   233.54   257.77
eigval :      295.73   362.85   371.29   379.22   394.82   449.24
eigval :      476.13   501.29   513.30   540.45   578.96   580.90
eigval :      620.43   642.37   657.00   715.96   726.30   770.20
eigval :      793.34   833.72   847.80   852.94   860.58   886.62
eigval :      912.94   916.66   932.85   954.95  1028.82  1047.45
eigval :     1067.57  1094.87  1115.38  1118.57  1131.95  1149.93
eigval :     1168.76  1174.13  1176.37  1210.46  1236.68  1248.96
eigval :     1263.11  1274.85  1296.00  1327.16  1380.73  1389.97
eigval :     1398.85  1403.97  1424.43  1458.11  1458.43  1471.27
eigval :     1481.80  1485.76  1501.50  1566.10  1606.68  1609.61
eigval :     1697.25  2944.47  2957.09  2960.36  3035.91  3038.78
eigval :     3048.12  3066.99  3071.11  3083.51  3083.86  3087.60
eigval :     3100.15  3105.30  3338.39
 reduced masses (amu)
   1: 12.17   2: 12.99   3: 12.07   4: 11.99   5: 11.46   6: 11.84   7: 11.28   8: 13.80
   9: 13.27  10: 11.37  11: 11.69  12: 10.71  13:  8.60  14:  9.38  15:  2.73  16:  7.21
  17:  7.19  18:  9.26  19: 11.48  20: 11.34  21:  9.40  22: 11.08  23: 11.50  24:  8.84
  25: 10.57  26: 11.68  27: 11.60  28: 10.01  29:  9.40  30: 10.39  31:  9.06  32:  9.23
  33:  9.28  34: 11.37  35: 11.39  36: 10.56  37:  4.84  38:  5.16  39:  9.47  40:  3.63
  41:  9.24  42:  3.49  43:  3.35  44:  3.48  45:  9.50  46:  9.38  47:  6.48  48: 11.75
  49:  5.57  50:  7.12  51:  3.72  52:  7.88  53:  4.45  54:  4.95  55:  4.12  56:  3.75
  57:  6.68  58:  4.92  59:  8.69  60:  9.22  61:  5.26  62:  6.32  63:  7.05  64:  7.01
  65:  8.67  66:  4.97  67:  6.44  68:  5.32  69: 11.56  70:  1.56  71:  9.79  72:  1.86
  73:  1.73  74:  1.59  75: 10.79  76: 11.68  77: 11.53  78: 11.52  79: 13.28  80:  1.96
  81:  1.44  82:  1.76  83:  1.71  84:  1.85  85:  1.67  86:  1.64  87:  1.77  88:  1.83
  89:  1.85  90:  1.82  91:  1.82  92:  1.86  93:  1.85
 IR intensities (km·mol⁻¹)
   1:  0.04   2:  0.12   3:  0.00   4:  0.06   5:  0.05   6:  0.20   7:  2.60   8:  2.60
   9:  2.07  10:  1.80  11:  2.74  12:  1.54  13:  0.09  14:  2.93  15:  0.17  16:  1.78
  17:  1.42  18:  2.90  19:  3.58  20:  1.81  21:  0.27  22:  0.26  23:  3.99  24:  3.73
  25:  6.08  26: 12.66  27: 10.75  28: 29.24  29: 58.81  30: 78.56  31: 29.49  32: 56.63
  33: 40.82  34: 47.63  35:104.41  36:  1.27  37: 13.13  38: 37.94  39:  8.45  40:  0.33
  41: 24.53  42:  7.33  43:  0.25  44:  0.44  45: 83.90  46: 21.10  47: 70.44  48: 59.54
  49: 73.20  50:128.36  51:  2.74  52:113.62  53: 73.31  54: 11.43  55:105.62  56:  3.14
  57:239.17  58:  8.85  59:165.57  60:212.37  61: 88.08  62: 33.66  63: 29.49  64:  1.58
  65:106.33  66: 30.13  67: 12.16  68:  4.43  69: 53.21  70:  7.44  71: 89.57  72: 19.31
  73:  2.79  74:  7.53  75:  2.67  76: 22.73  77:  2.88  78:289.08  79:802.85  80: 45.76
  81: 43.63  82: 41.38  83: 16.95  84: 58.84  85: 33.31  86: 16.37  87: 30.32  88:116.63
  89: 80.28  90: 34.74  91: 82.88  92: 59.34  93:198.21
 Raman intensities (Ä⁴*amu⁻¹)
   1:  0.00   2:  0.00   3:  0.00   4:  0.00   5:  0.00   6:  0.00   7:  0.00   8:  0.00
   9:  0.00  10:  0.00  11:  0.00  12:  0.00  13:  0.00  14:  0.00  15:  0.00  16:  0.00
  17:  0.00  18:  0.00  19:  0.00  20:  0.00  21:  0.00  22:  0.00  23:  0.00  24:  0.00
  25:  0.00  26:  0.00  27:  0.00  28:  0.00  29:  0.00  30:  0.00  31:  0.00  32:  0.00
  33:  0.00  34:  0.00  35:  0.00  36:  0.00  37:  0.00  38:  0.00  39:  0.00  40:  0.00
  41:  0.00  42:  0.00  43:  0.00  44:  0.00  45:  0.00  46:  0.00  47:  0.00  48:  0.00
  49:  0.00  50:  0.00  51:  0.00  52:  0.00  53:  0.00  54:  0.00  55:  0.00  56:  0.00
  57:  0.00  58:  0.00  59:  0.00  60:  0.00  61:  0.00  62:  0.00  63:  0.00  64:  0.00
  65:  0.00  66:  0.00  67:  0.00  68:  0.00  69:  0.00  70:  0.00  71:  0.00  72:  0.00
  73:  0.00  74:  0.00  75:  0.00  76:  0.00  77:  0.00  78:  0.00  79:  0.00  80:  0.00
  81:  0.00  82:  0.00  83:  0.00  84:  0.00  85:  0.00  86:  0.00  87:  0.00  88:  0.00
  89:  0.00  90:  0.00  91:  0.00  92:  0.00  93:  0.00
 output can be read by thermo (or use thermo option).
 writing <g98.out> molden fake output.
 recommended (thermochemical) frequency scaling factor: 1.0
           -------------------------------------------------
          |             Thermodynamic Functions             |
           -------------------------------------------------

Molecule has no symmetry elements
It seems to be the C1 point group
c1  symmetry found (for desy threshold:  0.10E+00) used in thermo

          ...................................................
          :                      SETUP                      :
          :.................................................:
          :  # frequencies                          87      :
          :  # imaginary freq.                       0      :
          :  linear?                             false      :
          :  only rotor calc.                    false      :
          :  symmetry                               c1      :
          :  rotational number                       1      :
          :  scaling factor                  1.0000000      :
          :  rotor cutoff                    0.0000000 cm⁻¹ :
          :  imag. cutoff                 -100.0000000 cm⁻¹ :
          :.................................................:

    mode    ω/cm⁻¹     T·S(HO)/kcal·mol⁻¹    T·S(FR)/kcal·mol⁻¹   T·S(vib)
   ------------------------------------------------------------------------
       1     27.11    -1.79796 (100.00%)    -1.23778 (  0.00%)    -1.79796
       2     38.16    -1.59578 (100.00%)    -1.13652 (  0.00%)    -1.59578
       3     54.26    -1.38809 (100.00%)    -1.03226 (  0.00%)    -1.38809
       4     83.05    -1.13815 (100.00%)    -0.90618 (  0.00%)    -1.13815
       5    116.55    -0.94121 (100.00%)    -0.80582 (  0.00%)    -0.94121
       6    140.02    -0.83590 (100.00%)    -0.75147 (  0.00%)    -0.83590
       7    162.13    -0.75278 (100.00%)    -0.70805 (  0.00%)    -0.75278
       8    173.82    -0.71369 (100.00%)    -0.68741 (  0.00%)    -0.71369
       9    188.97    -0.66725 (100.00%)    -0.66267 (  0.00%)    -0.66725
      10    214.63    -0.59748 (100.00%)    -0.62495 (  0.00%)    -0.59748
      11    233.54    -0.55205 (100.00%)    -0.59994 (  0.00%)    -0.55205
      12    257.77    -0.49995 (100.00%)    -0.57069 (  0.00%)    -0.49995
      13    295.73    -0.42962 (100.00%)    -0.53000 (  0.00%)    -0.42962
   ------------------------------------------------------------------------

   temp. (K)  partition function   enthalpy   heat capacity  entropy
                                   cal/mol     cal/K/mol   cal/K/mol   J/K/mol
 298.15  VIB  0.410E+06             8164.588     54.730     53.066
         ROT  0.366E+07              888.752      2.981     33.014
         INT  0.150E+13             9053.341     57.710     86.080
         TR   0.338E+28             1481.254      4.968     42.185
         TOT                       10534.5945    62.6786   128.2654   536.6626

       T/K    H(0)-H(T)+PV         H(T)/Eh          T*S/Eh         G(T)/Eh
   ------------------------------------------------------------------------
    298.15    0.167879E-01    0.259290E+00    0.609430E-01    0.198347E+00
   ------------------------------------------------------------------------

         :::::::::::::::::::::::::::::::::::::::::::::::::::::
         ::                  THERMODYNAMIC                  ::
         :::::::::::::::::::::::::::::::::::::::::::::::::::::
         :: total free energy         -49.149463686096 Eh   ::
         ::.................................................::
         :: total energy              -49.347810234046 Eh   ::
         :: zero point energy           0.242501650530 Eh   ::
         :: G(RRHO) w/o ZPVE           -0.044155102579 Eh   ::
         :: G(RRHO) contrib.            0.198346547950 Eh   ::
         :::::::::::::::::::::::::::::::::::::::::::::::::::::

optimized geometry written to: xtbopt.coord


           -------------------------------------------------
          | TOTAL ENERGY              -49.347810234046 Eh   |
          | TOTAL ENTHALPY            -49.088520638626 Eh   |
          | TOTAL FREE ENERGY         -49.149463686096 Eh   |
          | GRADIENT NORM               0.000016738500 Eh/α |
          | HOMO-LUMO GAP               3.071373422071 eV   |
           -------------------------------------------------

------------------------------------------------------------------------
 * finished run on 2025/04/11 at 16:56:21.559     
------------------------------------------------------------------------
 total:
 * wall-time:     0 d,  0 h,  0 min,  8.496 sec
 *  cpu-time:     0 d,  0 h,  0 min,  8.200 sec
 * ratio c/w:     0.965 speedup
 SCF:
 * wall-time:     0 d,  0 h,  0 min,  0.053 sec
 *  cpu-time:     0 d,  0 h,  0 min,  0.042 sec
 * ratio c/w:     0.785 speedup
 ANC optimizer:
 * wall-time:     0 d,  0 h,  0 min,  2.713 sec
 *  cpu-time:     0 d,  0 h,  0 min,  2.684 sec
 * ratio c/w:     0.990 speedup
 analytical hessian:
 * wall-time:     0 d,  0 h,  0 min,  5.642 sec
 *  cpu-time:     0 d,  0 h,  0 min,  5.444 sec
 * ratio c/w:     0.965 speedup

