16
 energy: -213.721803432359 gnorm: 0.022345730729 xtb: 6.7.1 (edcfbbe)
C            1.59193079290543       -0.84602775417490       -0.44381056609666
C            1.30246725167716        0.56972012305246        0.03853265481707
C            0.01627200390721        0.67091338619730        0.85964363988093
C           -1.26641019456118        0.55164101924445        0.03376225541496
N           -1.49151325236093       -0.80725789435772       -0.44311432079636
H            1.73943394657079       -1.51157209566982        0.40396479667901
H            0.75707916923548       -1.21509924903844       -1.03113531765692
H            2.49258047940453       -0.86152743758177       -1.05306079486664
H            2.13596287634650        0.91595454710588        0.65513137829031
H            1.22766564704401        1.23844207084879       -0.82136092776397
H            0.01793045670795       -0.10234144544535        1.63125907162285
H           -0.00378591120168        1.64168733852748        1.36005459110268
H           -1.19263813722849        1.19915138203138       -0.84502557147445
H           -2.10604585613324        0.92188788610851        0.64990669498799
H           -2.36351416404734       -0.84836125557593       -0.95819926672460
H           -1.57164582029644       -1.43611524033638        0.34943581905484
16
 energy: -213.723419145497 gnorm: 0.009048107323 xtb: 6.7.1 (edcfbbe)
C            1.63925780011145       -0.84853168991376       -0.44973702256593
C            1.30783587832678        0.56188197870262        0.03647634204599
C            0.00953559916357        0.66708477427372        0.84466961684538
C           -1.28464596021061        0.55191633728294        0.03645796888638
N           -1.54066738393177       -0.81098306825051       -0.44623490859814
H            1.77016422595149       -1.52290010613642        0.40209932083648
H            0.82474773025927       -1.23779713043095       -1.05888956834025
H            2.55832539476991       -0.86171510394447       -1.04185692244973
H            2.13671321873234        0.92421603244643        0.65601676321598
H            1.23830187982900        1.24078513836975       -0.82174939957506
H            0.00731296819366       -0.09956542951629        1.63061152697489
H           -0.01138838238788        1.63751682760336        1.35359713956078
H           -1.21196910164284        1.21485885865492       -0.83442571388980
H           -2.11154012248620        0.93844696938430        0.65803046424277
H           -2.43143571784402       -0.83863988751469       -0.92948961554578
H           -1.61478167673196       -1.43547167150167        0.35040639683201
16
 energy: -213.724004900158 gnorm: 0.005349612507 xtb: 6.7.1 (edcfbbe)
C            1.67486737429248       -0.85024709450119       -0.45108571104895
C            1.30916041400372        0.55646988312329        0.02897241958713
C            0.00492686568688        0.65147844270435        0.83209044770727
C           -1.29624432727656        0.55501682010161        0.03452522991941
N           -1.57975971753761       -0.81048962916360       -0.45099660181101
H            1.79282378394914       -1.53096500845016        0.40257678519574
H            0.89235139212066       -1.26414456232477       -1.09478046382117
H            2.61835019942284       -0.84762500130001       -1.01263847800219
H            2.12781853064866        0.93595832949384        0.65609587011190
H            1.24525884902468        1.23982680373737       -0.83018609474166
H           -0.00005939145613       -0.10839940522865        1.62996408592916
H           -0.01268853636146        1.62299554847902        1.34360698498405
H           -1.23105772200484        1.22609302685289       -0.83327713396444
H           -2.11039598308590        0.94873163121723        0.66693942011877
H           -2.49725284066697       -0.81891285973052       -0.89071759901312
H           -1.65233540088478       -1.42467670587499        0.35489132870626
16
 energy: -213.724139029996 gnorm: 0.004177395482 xtb: 6.7.1 (edcfbbe)
C            1.68973280040211       -0.85060994243005       -0.45075537867659
C            1.30748247626612        0.55214990362567        0.02463872759942
C            0.00285748599599        0.64613702095914        0.82711549232528
C           -1.30067225009313        0.55688076556414        0.03477475410038
N           -1.59419643002827       -0.80831425230534       -0.45266763968159
H            1.80025323323835       -1.53157389315661        0.40307679170480
H            0.92595075677840       -1.27185886248177       -1.11227437095815
H            2.64423632141227       -0.83768734326987       -0.99337400053468
H            2.12177606117041        0.93785001249986        0.65312301000191
H            1.24230848263325        1.23259471194607       -0.83631430788858
H           -0.00240033332742       -0.11566007578736        1.62232220598330
H           -0.01062200491721        1.61645721708734        1.34113216276343
H           -1.23711815907453        1.22732857271710       -0.83314172792228
H           -2.11112874053422        0.94965338342899        0.67130277824454
H           -2.52192983256404       -0.80601135574383       -0.87158206122737
H           -1.67076761627681       -1.41622228873107        0.35860311034663
16
 energy: -213.724206533315 gnorm: 0.001712693577 xtb: 6.7.1 (edcfbbe)
C            1.69759275723746       -0.85069991753475       -0.44901003131650
C            1.30492005259494        0.54968776688007        0.01950857821897
C            0.00190899784421        0.64164563611194        0.82464486677599
C           -1.30285841708861        0.55889991776078        0.03553765183089
N           -1.60178828026518       -0.80567390590596       -0.45279513074226
H            1.79935887767015       -1.53108497646736        0.40492751299038
H            0.95105219223009       -1.27497255812460       -1.12550686800500
H            2.66043941904952       -0.82986909696934       -0.97374774512857
H            2.11663223828329        0.94126496412710        0.64623783767303
H            1.23502171114891        1.22455186416477       -0.84437428704096
H           -0.00303718679666       -0.12491802120017        1.61363517871536
H           -0.00708233136975        1.60948329979402        1.34226668886725
H           -1.23950272152891        1.22809481997179       -0.83240298179968
H           -2.11111146289717        0.95025462075073        0.67475341793596
H           -2.53333068915712       -0.79575447310565       -0.85941527944600
H           -1.68245360494383       -1.40979421991024        0.36171935435844
16
 energy: -213.724235838222 gnorm: 0.001660262488 xtb: 6.7.1 (edcfbbe)
C            1.70171755336789       -0.85094714038137       -0.44723429277127
C            1.30201233143385        0.54891462785547        0.01399022621977
C            0.00182431418819        0.63861201968718        0.82419203041676
C           -1.30390483074843        0.56058673346882        0.03733806587279
N           -1.60596284533301       -0.80287579973318       -0.45206282302842
H            1.78907709823252       -1.53068236702600        0.40827102132236
H            0.97089882829022       -1.27558012787607       -1.13859386290088
H            2.67359336092962       -0.82771766846716       -0.95300248051088
H            2.11315743100343        0.94851231491769        0.63555441861740
H            1.22464342211281        1.21705965606909       -0.85388569514889
H           -0.00166417901028       -0.13412270234978        1.60637596820515
H           -0.00386114454959        1.60285831407255        1.34754259853004
H           -1.24040165204915        1.22978850643582       -0.83009193874609
H           -2.11040690731210        0.95233636613849        0.67829308655110
H           -2.53868869956538       -0.78869522008532       -0.85332495258936
H           -1.68627285374835       -1.40693050387006        0.36261665415447
16
 energy: -213.724255890517 gnorm: 0.001009163962 xtb: 6.7.1 (edcfbbe)
C            1.70225289372429       -0.85129104658038       -0.44573393520798
C            1.30046059970774        0.55012612847636        0.01001055619377
C            0.00251740094626        0.63752441261678        0.82452998104702
C           -1.30473775953718        0.56185868766733        0.03976587438477
N           -1.60631891385034       -0.80039958755329       -0.45121959748625
H            1.77418946947280       -1.53161107741849        0.41119898899412
H            0.98014967659218       -1.27357295737103       -1.14743514834277
H            2.68128910423941       -0.83209760172038       -0.93746368327064
H            2.11315734810084        0.95614942243593        0.62543448885073
H            1.21647555282847        1.21346676771324       -0.86119713759540
H            0.00118973486952       -0.13927886080634        1.60311483331596
H           -0.00217887536878        1.59888824131660        1.35293477658451
H           -1.24144359978630        1.23277901872222       -0.82661397771209
H           -2.11068466528579        0.95369142990414        0.68170021982890
H           -2.53845895869061       -0.78736740549145       -0.85416960476327
H           -1.68209773783585       -1.40774836233142        0.36112088943511
16
 energy: -213.724263015197 gnorm: 0.000536510740 xtb: 6.7.1 (edcfbbe)
C            1.70192907261011       -0.85194389245344       -0.44497887938312
C            1.29920010244511        0.55095984816005        0.00714906399430
C            0.00331139830591        0.63821512903336        0.82510615843895
C           -1.30510349800287        0.56270558014354        0.04207723007942
N           -1.60512470807420       -0.79833788224591       -0.45152666194580
H            1.76043198659349       -1.53302114834841        0.41245944360853
H            0.98562809796159       -1.27170378174654       -1.15472094747446
H            2.68689204102840       -0.83779750352672       -0.92543979686745
H            2.11300319956680        0.96154394237844        0.61820938076682
H            1.21136673424780        1.21100729350268       -0.86643833752650
H            0.00378084918272       -0.14018753487336        1.60248905234206
H           -0.00094427760619        1.59831324013925        1.35608416895525
H           -1.24392874079785        1.23647990326607       -0.82253807197080
H           -2.11067179332992        0.95227872800517        0.68622422028931
H           -2.53684404380802       -0.78838779355798       -0.85665668766487
H           -1.67716503214725       -1.40900704788952        0.35847780681053
16
 energy: -213.724265297316 gnorm: 0.000412784528 xtb: 6.7.1 (edcfbbe)
C            1.70060946946381       -0.85247986381816       -0.44449129075807
C            1.29942917284136        0.55126289538654        0.00664231619076
C            0.00370233587466        0.63906347465173        0.82479438762953
C           -1.30584662036622        0.56291398281605        0.04352917503814
N           -1.60269944734978       -0.79769327216068       -0.45240307392592
H            1.75523355777296       -1.53410182006248        0.41252138956638
H            0.98498537621383       -1.27041239621661       -1.15569570598838
H            2.68636996801315       -0.84045796107731       -0.92258527426991
H            2.11382870316589        0.96195722489683        0.61673919444498
H            1.21125498126919        1.21068322034021       -0.86738167639204
H            0.00482382698576       -0.13814080749043        1.60341509581341
H           -0.00044187744089        1.59984367993169        1.35452030722233
H           -1.24647750269413        1.23849682419150       -0.81981398781929
H           -2.11139041400142        0.95018676326328        0.68917012444188
H           -2.53377187854941       -0.78972910533044       -0.85915140156041
H           -1.67384812511522       -1.41027611343915        0.35616745881908
16
 energy: -213.724265297316 gnorm: 0.000412784528 xtb: 6.7.1 (edcfbbe)
C            1.70060946946381       -0.85247986381816       -0.44449129075807
C            1.29942917284136        0.55126289538654        0.00664231619076
C            0.00370233587466        0.63906347465173        0.82479438762953
C           -1.30584662036622        0.56291398281605        0.04352917503814
N           -1.60269944734978       -0.79769327216068       -0.45240307392592
H            1.75523355777296       -1.53410182006248        0.41252138956638
H            0.98498537621383       -1.27041239621661       -1.15569570598838
H            2.68636996801315       -0.84045796107731       -0.92258527426991
H            2.11382870316589        0.96195722489683        0.61673919444498
H            1.21125498126919        1.21068322034021       -0.86738167639204
H            0.00482382698576       -0.13814080749043        1.60341509581341
H           -0.00044187744089        1.59984367993169        1.35452030722233
H           -1.24647750269413        1.23849682419150       -0.81981398781929
H           -2.11139041400142        0.95018676326328        0.68917012444188
H           -2.53377187854941       -0.78972910533044       -0.85915140156041
H           -1.67384812511522       -1.41027611343915        0.35616745881908
