      -----------------------------------------------------------      
     |                   =====================                   |     
     |                           x T B                           |     
     |                   =====================                   |     
     |                         S. Grimme                         |     
     |          Mulliken Center for Theoretical Chemistry        |     
     |                    University of Bonn                     |     
      -----------------------------------------------------------      

   * xtb version 6.7.1 (edcfbbe) compiled by 'albert@albert-system' on 2024-07-22

   xtb is free software: you can redistribute it and/or modify it under
   the terms of the GNU Lesser General Public License as published by
   the Free Software Foundation, either version 3 of the License, or
   (at your option) any later version.
   
   xtb is distributed in the hope that it will be useful,
   but WITHOUT ANY WARRANTY; without even the implied warranty of
   MERCHANTABILITY or FITNESS FOR A PARTICULAR PURPOSE.  See the
   GNU Lesser General Public License for more details.
   
   Cite this work as:
   * C. Bannwarth, E. Caldeweyher, S. Ehlert, A. Hansen, P. Pracht,
     J. Seibert, S. Spicher, S. Grimme, WIREs Comput. Mol. Sci., 2020, 11,
     e01493. DOI: 10.1002/wcms.1493
   
   for GFN2-xTB:
   * C. Bannwarth, S. Ehlert and S. Grimme., J. Chem. Theory Comput., 2019,
     15, 1652-1671. DOI: 10.1021/acs.jctc.8b01176
   for GFN1-xTB:
   * S. Grimme, C. Bannwarth, P. Shushkov, J. Chem. Theory Comput., 2017,
     13, 1989-2009. DOI: 10.1021/acs.jctc.7b00118
   for GFN0-xTB:
   * P. Pracht, E. Caldeweyher, S. Ehlert, S. Grimme, ChemRxiv, 2019, preprint.
     DOI: 10.26434/chemrxiv.8326202.v1
   for GFN-FF:
   * S. Spicher and S. Grimme, Angew. Chem. Int. Ed., 2020, 59, 15665-15673.
     DOI: 10.1002/anie.202004239
   
   for ALPB and GBSA implicit solvation:
   * S. Ehlert, M. Stahn, S. Spicher, S. Grimme, J. Chem. Theory Comput.,
     2021, 17, 4250-4261. DOI: 10.1021/acs.jctc.1c00471
   
   for ddCOSMO and CPCM-X implicit solvation:
   * M. Stahn, S. Ehlert, S. Grimme, J. Phys. Chem. A,
     2023, XX, XXXX-XXXX. DOI: 10.1021/acs.jpca.3c04382
   
   for DFT-D4:
   * E. Caldeweyher, C. Bannwarth and S. Grimme, J. Chem. Phys., 2017,
     147, 034112. DOI: 10.1063/1.4993215
   * E. Caldeweyher, S. Ehlert, A. Hansen, H. Neugebauer, S. Spicher,
     C. Bannwarth and S. Grimme, J. Chem. Phys., 2019, 150, 154122.
     DOI: 10.1063/1.5090222
   * E. Caldeweyher, J.-M. Mewes, S. Ehlert and S. Grimme, Phys. Chem. Chem. Phys.
     2020, 22, 8499-8512. DOI: 10.1039/D0CP00502A
   
   for sTDA-xTB:
   * S. Grimme and C. Bannwarth, J. Chem. Phys., 2016, 145, 054103.
     DOI: 10.1063/1.4959605
   
   in the mass-spec context:
   * V. Asgeirsson, C. Bauer and S. Grimme, Chem. Sci., 2017, 8, 4879.
     DOI: 10.1039/c7sc00601b
   * J. Koopman and S. Grimme, ACS Omega 2019, 4, 12, 15120-15133.
     DOI: 10.1021/acsomega.9b02011
   
   for metadynamics refer to:
   * S. Grimme, J. Chem. Theory Comput., 2019, 155, 2847-2862
     DOI: 10.1021/acs.jctc.9b00143
   
   for SPH calculations refer to:
   * S. Spicher and S. Grimme, J. Chem. Theory Comput., 2021, 17, 1701-1714
     DOI: 10.1021/acs.jctc.0c01306
   
   for ONIOM refer to:
   * C. Plett, A. Katbashev, S. Ehlert, S. Grimme, M. Bursch,
     Phys. Chem. Chem. Phys., 2023, 25, 17860-17868. DOI: 10.1039/D3CP02178E
   
   for DIPRO refer to:
   * J. Kohn, N. Gildemeister, S. Grimme, D. Fazzi, A. Hansen,
     J. Chem. Phys., 2023, just accepted.
   
   for PTB refer to:
   * S. Grimme, M. Mueller, A. Hansen, J. Chem. Phys., 2023, 158, 124111.
     DOI: 10.1063/5.0137838
   
   with help from (in alphabetical order)
   P. Atkinson, C. Bannwarth, F. Bohle, G. Brandenburg, E. Caldeweyher
   M. Checinski, S. Dohm, S. Ehlert, S. Ehrlich, I. Gerasimov, C. Hölzer
   A. Katbashev, J. Kohn, J. Koopman, C. Lavigne, S. Lehtola, F. März, M. Müller,
   F. Musil, H. Neugebauer, J. Pisarek, C. Plett, P. Pracht, F. Pultar,
   J. Seibert, P. Shushkov, S. Spicher, M. Stahn, M. Steiner, T. Strunk,
   J. Stückrath, T. Rose, and J. Unsleber
   
 * started run on 2025/04/11 at 15:53:53.633     
   ID    Z sym.   atoms
    1    6 C      1-4, 7, 8
    2    8 O      5, 6
    3    1 H      9-20

           -------------------------------------------------
          |                Calculation Setup                |
           -------------------------------------------------

          program call               : /srv/scratch/z5358697/.xtb/bin/xtb solv.coord --gfn2 --sp --chrg 0 --norestart --parallel 1 --alpb water reference -I xtb_sp-xcontrol-inp
          hostname                   : k061
          coordinate file            : solv.coord
          omp threads                :                     1


           -------------------------------------------------
          |                 G F N 2 - x T B                 |
           -------------------------------------------------

        Reference                      10.1021/acs.jctc.8b01176
      * Hamiltonian:
        H0-scaling (s, p, d)           1.850000    2.230000    2.230000
        zeta-weighting                 0.500000
      * Dispersion:
        s8                             2.700000
        a1                             0.520000
        a2                             5.000000
        s9                             5.000000
      * Repulsion:
        kExp                           1.500000    1.000000
        rExp                           1.000000
      * Coulomb:
        alpha                          2.000000
        third order                    shell-resolved
        anisotropic                    true
        a3                             3.000000
        a5                             4.000000
        cn-shift                       1.200000
        cn-exp                         4.000000
        max-rad                        5.000000

      * Solvation model:               ALPB
        Solvent                        water
        Parameter file                 internal GFN2-xTB/ALPB
        Dielectric constant                8.0200E+01
        Reference state                gsolv=reference [X=1]
        Free energy shift                  2.8945E-03 Eh       1.8164E+00 kcal/mol
        Temperature                        2.9815E+02 K
        Density                            1.0000E+00 kg/L
        Solvent mass                       1.8000E+01 g/mol
        Interaction kernel             P16
        Born radius scaling (c1)           1.4744E+00
        Born radii integrator          GBOBC
        Born offset                        0.0000E+00 a0       0.0000E+00 AA
        H-bond correction              true
        Ion screening                  false
        Surface tension                    1.0000E-05 Eh       1.5569E+01 dyn/cm
        Grid points                               974 per atom

          ...................................................
          :                      SETUP                      :
          :.................................................:
          :  # basis functions                  44          :
          :  # atomic orbitals                  44          :
          :  # shells                           28          :
          :  # electrons                        48          :
          :  max. iterations                   250          :
          :  Hamiltonian                  GFN2-xTB          :
          :  restarted?                      false          :
          :  GBSA solvation                   true          :
          :  PC potential                    false          :
          :  electronic temp.          300.0000000     K    :
          :  accuracy                    1.0000000          :
          :  -> integral cutoff          0.2500000E+02      :
          :  -> integral neglect         0.1000000E-07      :
          :  -> SCF convergence          0.1000000E-05 Eh   :
          :  -> wf. convergence          0.1000000E-03 e    :
          :  Broyden damping             0.4000000          :
          :  net charge                          0          :
          :  unpaired electrons                  0          :
          ...................................................

 iter      E             dE          RMSdq      gap      omega  full diag
   1    -27.3746027 -0.273746E+02  0.397E+00    5.81       0.0  T
   2    -27.4341360 -0.595332E-01  0.200E+00    4.86       1.0  T
   3    -27.4358596 -0.172363E-02  0.102E+00    5.18       1.0  T
   4    -27.4373438 -0.148423E-02  0.155E-01    4.94       1.0  T
   5    -27.4375359 -0.192099E-03  0.677E-02    5.00       1.0  T
   6    -27.4375379 -0.196957E-05  0.228E-02    4.99       1.0  T
   7    -27.4375387 -0.839832E-06  0.408E-03    4.99       5.5  T
   8    -27.4375388 -0.275085E-07  0.232E-03    4.99       9.6  T
   9    -27.4375388 -0.923683E-08  0.409E-04    4.99      54.6  T
  10    -27.4375388 -0.447269E-09  0.216E-04    4.99     103.5  T

   *** convergence criteria satisfied after 10 iterations ***

         #    Occupation            Energy/Eh            Energy/eV
      -------------------------------------------------------------
         1        2.0000           -0.7491713             -20.3860
       ...           ...                  ...                  ...
        18        2.0000           -0.4678823             -12.7317
        19        2.0000           -0.4511553             -12.2766
        20        2.0000           -0.4468559             -12.1596
        21        2.0000           -0.4460964             -12.1389
        22        2.0000           -0.4452069             -12.1147
        23        2.0000           -0.4353632             -11.8468
        24        2.0000           -0.4199205             -11.4266 (HOMO)
        25                         -0.2364658              -6.4346 (LUMO)
        26                         -0.0053572              -0.1458
        27                          0.0975913               2.6556
        28                          0.1115182               3.0346
        29                          0.1185510               3.2259
       ...                                ...                  ...
        44                          0.6205958              16.8873
      -------------------------------------------------------------
                  HL-Gap            0.1834548 Eh            4.9921 eV
             Fermi-level           -0.3281932 Eh           -8.9306 eV

 SCC (total)                   0 d,  0 h,  0 min,  0.028 sec
 SCC setup                      ...        0 min,  0.001 sec (  4.657%)
 Dispersion                     ...        0 min,  0.000 sec (  0.438%)
 classical contributions        ...        0 min,  0.000 sec (  0.093%)
 integral evaluation            ...        0 min,  0.002 sec (  5.696%)
 iterations                     ...        0 min,  0.019 sec ( 69.031%)
 molecular gradient             ...        0 min,  0.005 sec ( 19.453%)
 printout                       ...        0 min,  0.000 sec (  0.570%)

         :::::::::::::::::::::::::::::::::::::::::::::::::::::
         ::                     SUMMARY                     ::
         :::::::::::::::::::::::::::::::::::::::::::::::::::::
         :: total energy             -27.121120768722 Eh    ::
         :: total w/o Gsasa/hb       -27.122890984723 Eh    ::
         :: gradient norm              0.000137671185 Eh/a0 ::
         :: HOMO-LUMO gap              4.992058312575 eV    ::
         ::.................................................::
         :: SCC energy               -27.437528746528 Eh    ::
         :: -> isotropic ES            0.058802793204 Eh    ::
         :: -> anisotropic ES          0.000997398522 Eh    ::
         :: -> anisotropic XC          0.008180714705 Eh    ::
         :: -> dispersion             -0.011713160819 Eh    ::
         :: -> Gsolv                  -0.006985553703 Eh    ::
         ::    -> Gelec               -0.008755769704 Eh    ::
         ::    -> Gsasa                0.001036123803 Eh    ::
         ::    -> Ghb                 -0.002160456962 Eh    ::
         ::    -> Gshift               0.002894549160 Eh    ::
         :: repulsion energy           0.316407977806 Eh    ::
         :: add. restraining           0.000000000000 Eh    ::
         :: total charge               0.000000000000 e     ::
         :::::::::::::::::::::::::::::::::::::::::::::::::::::

           -------------------------------------------------
          |                Property Printout                |
           -------------------------------------------------

    * Orbital Energies and Occupations

         #    Occupation            Energy/Eh            Energy/eV
      -------------------------------------------------------------
         1        2.0000           -0.7491713             -20.3860
       ...           ...                  ...                  ...
        12        2.0000           -0.5200966             -14.1525
        13        2.0000           -0.5159361             -14.0393
        14        2.0000           -0.5007991             -13.6274
        15        2.0000           -0.4946215             -13.4593
        16        2.0000           -0.4906923             -13.3524
        17        2.0000           -0.4789781             -13.0337
        18        2.0000           -0.4678823             -12.7317
        19        2.0000           -0.4511553             -12.2766
        20        2.0000           -0.4468559             -12.1596
        21        2.0000           -0.4460964             -12.1389
        22        2.0000           -0.4452069             -12.1147
        23        2.0000           -0.4353632             -11.8468
        24        2.0000           -0.4199205             -11.4266 (HOMO)
        25                         -0.2364658              -6.4346 (LUMO)
        26                         -0.0053572              -0.1458
        27                          0.0975913               2.6556
        28                          0.1115182               3.0346
        29                          0.1185510               3.2259
        30                          0.1282975               3.4912
        31                          0.1499400               4.0801
        32                          0.1542131               4.1964
        33                          0.1587924               4.3210
        34                          0.1643901               4.4733
        35                          0.1796816               4.8894
       ...                                ...                  ...
        44                          0.6205958              16.8873
      -------------------------------------------------------------
                  HL-Gap            0.1834548 Eh            4.9921 eV
             Fermi-level           -0.3281932 Eh           -8.9306 eV

     #   Z          covCN         q      C6AA      α(0)
     1   6 C        3.752    -0.112    22.712     6.796
     2   6 C        3.802    -0.058    21.618     6.620
     3   6 C        3.804    -0.102    22.443     6.744
     4   6 C        2.711     0.367    20.776     7.461
     5   8 O        0.856    -0.484    23.424     6.489
     6   8 O        1.703    -0.277    18.604     5.823
     7   6 C        3.693     0.068    19.606     6.335
     8   6 C        3.750    -0.127    23.004     6.840
     9   1 H        0.925     0.048     2.348     2.396
    10   1 H        0.925     0.029     2.607     2.525
    11   1 H        0.925     0.047     2.360     2.403
    12   1 H        0.925     0.056     2.249     2.345
    13   1 H        0.924     0.048     2.342     2.393
    14   1 H        0.925     0.080     1.974     2.197
    15   1 H        0.924     0.090     1.878     2.143
    16   1 H        0.924     0.081     1.971     2.196
    17   1 H        0.924     0.058     2.226     2.333
    18   1 H        0.925     0.052     2.291     2.367
    19   1 H        0.925     0.066     2.130     2.282
    20   1 H        0.925     0.071     2.078     2.254

 Mol. C6AA /au·bohr⁶  :       2997.370575
 Mol. C8AA /au·bohr⁸  :      63835.013690
 Mol. α(0) /au        :         80.943328


Wiberg/Mayer (AO) data.
largest (>0.10) Wiberg bond orders for each atom

 ---------------------------------------------------------------------------
     #   Z sym  total        # sym  WBO       # sym  WBO       # sym  WBO
 ---------------------------------------------------------------------------
     1   6 C    3.996 --     2 C    1.021    10 H    0.988    11 H    0.987
                             9 H    0.986
     2   6 C    3.993 --     1 C    1.021     3 C    0.997    13 H    0.976
                            12 H    0.976
     3   6 C    3.989 --     2 C    0.997     4 C    0.979    14 H    0.967
                            15 H    0.940
     4   6 C    3.903 --     5 O    1.698     6 O    1.161     3 C    0.979
     5   8 O    1.978 --     4 C    1.698     6 O    0.169
     6   8 O    2.312 --     4 C    1.161     7 C    0.920     5 O    0.169
     7   6 C    3.912 --     8 C    1.014    17 H    0.970    16 H    0.969
                             6 O    0.920
     8   6 C    3.989 --     7 C    1.014    18 H    0.986    19 H    0.985
                            20 H    0.980
     9   1 H    0.998 --     1 C    0.986
    10   1 H    0.999 --     1 C    0.988
    11   1 H    0.998 --     1 C    0.987
    12   1 H    0.996 --     2 C    0.976
    13   1 H    0.998 --     2 C    0.976
    14   1 H    0.994 --     3 C    0.967
    15   1 H    0.992 --     3 C    0.940
    16   1 H    0.993 --     7 C    0.969
    17   1 H    0.997 --     7 C    0.970
    18   1 H    0.997 --     8 C    0.986
    19   1 H    0.996 --     8 C    0.985
    20   1 H    0.994 --     8 C    0.980
 ---------------------------------------------------------------------------

Topologies differ in total number of bonds
Writing topology from bond orders to xtbtopo.mol

molecular dipole:
                 x           y           z       tot (Debye)
 q only:        0.230      -0.041       1.029
   full:        0.249      -0.052       1.046       2.735
molecular quadrupole (traceless):
                xx          xy          yy          xz          yz          zz
 q only:        9.254      -1.907      -1.573      -0.821       1.473      -7.681
  q+dip:        7.121      -2.150      -0.331      -0.869       1.556      -6.790
   full:        7.567      -1.723       0.207      -0.880       1.756      -7.774


           -------------------------------------------------
          | TOTAL ENERGY              -27.121120768722 Eh   |
          | GRADIENT NORM               0.000137671185 Eh/α |
          | HOMO-LUMO GAP               4.992058312575 eV   |
           -------------------------------------------------

------------------------------------------------------------------------
 * finished run on 2025/04/11 at 15:53:53.715     
------------------------------------------------------------------------
 total:
 * wall-time:     0 d,  0 h,  0 min,  0.081 sec
 *  cpu-time:     0 d,  0 h,  0 min,  0.027 sec
 * ratio c/w:     0.332 speedup
 SCF:
 * wall-time:     0 d,  0 h,  0 min,  0.028 sec
 *  cpu-time:     0 d,  0 h,  0 min,  0.016 sec
 * ratio c/w:     0.557 speedup

