      -----------------------------------------------------------      
     |                   =====================                   |     
     |                           x T B                           |     
     |                   =====================                   |     
     |                         S. Grimme                         |     
     |          Mulliken Center for Theoretical Chemistry        |     
     |                    University of Bonn                     |     
      -----------------------------------------------------------      

   * xtb version 6.7.1 (edcfbbe) compiled by 'albert@albert-system' on 2024-07-22

   xtb is free software: you can redistribute it and/or modify it under
   the terms of the GNU Lesser General Public License as published by
   the Free Software Foundation, either version 3 of the License, or
   (at your option) any later version.
   
   xtb is distributed in the hope that it will be useful,
   but WITHOUT ANY WARRANTY; without even the implied warranty of
   MERCHANTABILITY or FITNESS FOR A PARTICULAR PURPOSE.  See the
   GNU Lesser General Public License for more details.
   
   Cite this work as:
   * C. Bannwarth, E. Caldeweyher, S. Ehlert, A. Hansen, P. Pracht,
     J. Seibert, S. Spicher, S. Grimme, WIREs Comput. Mol. Sci., 2020, 11,
     e01493. DOI: 10.1002/wcms.1493
   
   for GFN2-xTB:
   * C. Bannwarth, S. Ehlert and S. Grimme., J. Chem. Theory Comput., 2019,
     15, 1652-1671. DOI: 10.1021/acs.jctc.8b01176
   for GFN1-xTB:
   * S. Grimme, C. Bannwarth, P. Shushkov, J. Chem. Theory Comput., 2017,
     13, 1989-2009. DOI: 10.1021/acs.jctc.7b00118
   for GFN0-xTB:
   * P. Pracht, E. Caldeweyher, S. Ehlert, S. Grimme, ChemRxiv, 2019, preprint.
     DOI: 10.26434/chemrxiv.8326202.v1
   for GFN-FF:
   * S. Spicher and S. Grimme, Angew. Chem. Int. Ed., 2020, 59, 15665-15673.
     DOI: 10.1002/anie.202004239
   
   for ALPB and GBSA implicit solvation:
   * S. Ehlert, M. Stahn, S. Spicher, S. Grimme, J. Chem. Theory Comput.,
     2021, 17, 4250-4261. DOI: 10.1021/acs.jctc.1c00471
   
   for ddCOSMO and CPCM-X implicit solvation:
   * M. Stahn, S. Ehlert, S. Grimme, J. Phys. Chem. A,
     2023, XX, XXXX-XXXX. DOI: 10.1021/acs.jpca.3c04382
   
   for DFT-D4:
   * E. Caldeweyher, C. Bannwarth and S. Grimme, J. Chem. Phys., 2017,
     147, 034112. DOI: 10.1063/1.4993215
   * E. Caldeweyher, S. Ehlert, A. Hansen, H. Neugebauer, S. Spicher,
     C. Bannwarth and S. Grimme, J. Chem. Phys., 2019, 150, 154122.
     DOI: 10.1063/1.5090222
   * E. Caldeweyher, J.-M. Mewes, S. Ehlert and S. Grimme, Phys. Chem. Chem. Phys.
     2020, 22, 8499-8512. DOI: 10.1039/D0CP00502A
   
   for sTDA-xTB:
   * S. Grimme and C. Bannwarth, J. Chem. Phys., 2016, 145, 054103.
     DOI: 10.1063/1.4959605
   
   in the mass-spec context:
   * V. Asgeirsson, C. Bauer and S. Grimme, Chem. Sci., 2017, 8, 4879.
     DOI: 10.1039/c7sc00601b
   * J. Koopman and S. Grimme, ACS Omega 2019, 4, 12, 15120-15133.
     DOI: 10.1021/acsomega.9b02011
   
   for metadynamics refer to:
   * S. Grimme, J. Chem. Theory Comput., 2019, 155, 2847-2862
     DOI: 10.1021/acs.jctc.9b00143
   
   for SPH calculations refer to:
   * S. Spicher and S. Grimme, J. Chem. Theory Comput., 2021, 17, 1701-1714
     DOI: 10.1021/acs.jctc.0c01306
   
   for ONIOM refer to:
   * C. Plett, A. Katbashev, S. Ehlert, S. Grimme, M. Bursch,
     Phys. Chem. Chem. Phys., 2023, 25, 17860-17868. DOI: 10.1039/D3CP02178E
   
   for DIPRO refer to:
   * J. Kohn, N. Gildemeister, S. Grimme, D. Fazzi, A. Hansen,
     J. Chem. Phys., 2023, just accepted.
   
   for PTB refer to:
   * S. Grimme, M. Mueller, A. Hansen, J. Chem. Phys., 2023, 158, 124111.
     DOI: 10.1063/5.0137838
   
   with help from (in alphabetical order)
   P. Atkinson, C. Bannwarth, F. Bohle, G. Brandenburg, E. Caldeweyher
   M. Checinski, S. Dohm, S. Ehlert, S. Ehrlich, I. Gerasimov, C. Hölzer
   A. Katbashev, J. Kohn, J. Koopman, C. Lavigne, S. Lehtola, F. März, M. Müller,
   F. Musil, H. Neugebauer, J. Pisarek, C. Plett, P. Pracht, F. Pultar,
   J. Seibert, P. Shushkov, S. Spicher, M. Stahn, M. Steiner, T. Strunk,
   J. Stückrath, T. Rose, and J. Unsleber
   
 * started run on 2025/04/11 at 15:56:47.379     
   ID    Z sym.   atoms
    1    6 C      1-7, 9-15, 18, 19
    2    8 O      8, 16, 20
    3    7 N      17
    4    1 H      21-33

           -------------------------------------------------
          |                Calculation Setup                |
           -------------------------------------------------

          program call               : /srv/scratch/z5358697/.xtb/bin/xtb solv.coord --gfn2 --sp --chrg 0 --norestart --parallel 1 --alpb water reference -I xtb_sp-xcontrol-inp
          hostname                   : k030
          coordinate file            : solv.coord
          omp threads                :                     1


           -------------------------------------------------
          |                 G F N 2 - x T B                 |
           -------------------------------------------------

        Reference                      10.1021/acs.jctc.8b01176
      * Hamiltonian:
        H0-scaling (s, p, d)           1.850000    2.230000    2.230000
        zeta-weighting                 0.500000
      * Dispersion:
        s8                             2.700000
        a1                             0.520000
        a2                             5.000000
        s9                             5.000000
      * Repulsion:
        kExp                           1.500000    1.000000
        rExp                           1.000000
      * Coulomb:
        alpha                          2.000000
        third order                    shell-resolved
        anisotropic                    true
        a3                             3.000000
        a5                             4.000000
        cn-shift                       1.200000
        cn-exp                         4.000000
        max-rad                        5.000000

      * Solvation model:               ALPB
        Solvent                        water
        Parameter file                 internal GFN2-xTB/ALPB
        Dielectric constant                8.0200E+01
        Reference state                gsolv=reference [X=1]
        Free energy shift                  2.8945E-03 Eh       1.8164E+00 kcal/mol
        Temperature                        2.9815E+02 K
        Density                            1.0000E+00 kg/L
        Solvent mass                       1.8000E+01 g/mol
        Interaction kernel             P16
        Born radius scaling (c1)           1.4744E+00
        Born radii integrator          GBOBC
        Born offset                        0.0000E+00 a0       0.0000E+00 AA
        H-bond correction              true
        Ion screening                  false
        Surface tension                    1.0000E-05 Eh       1.5569E+01 dyn/cm
        Grid points                               974 per atom

          ...................................................
          :                      SETUP                      :
          :.................................................:
          :  # basis functions                  93          :
          :  # atomic orbitals                  93          :
          :  # shells                           53          :
          :  # electrons                       100          :
          :  max. iterations                   250          :
          :  Hamiltonian                  GFN2-xTB          :
          :  restarted?                      false          :
          :  GBSA solvation                   true          :
          :  PC potential                    false          :
          :  electronic temp.          300.0000000     K    :
          :  accuracy                    1.0000000          :
          :  -> integral cutoff          0.2500000E+02      :
          :  -> integral neglect         0.1000000E-07      :
          :  -> SCF convergence          0.1000000E-05 Eh   :
          :  -> wf. convergence          0.1000000E-03 e    :
          :  Broyden damping             0.4000000          :
          :  net charge                          0          :
          :  unpaired electrons                  0          :
          ...................................................

 iter      E             dE          RMSdq      gap      omega  full diag
   1    -56.7217850 -0.567218E+02  0.529E+00    0.98       0.0  T
   2    -56.8118369 -0.900519E-01  0.307E+00    1.60       1.0  T
   3    -56.8031760  0.866093E-02  0.162E+00    1.29       1.0  T
   4    -56.8277918 -0.246158E-01  0.523E-01    1.42       1.0  T
   5    -56.8349275 -0.713574E-02  0.128E-01    1.34       1.0  T
   6    -56.8351091 -0.181514E-03  0.595E-02    1.36       1.0  T
   7    -56.8351290 -0.199571E-04  0.249E-02    1.36       1.0  T
   8    -56.8351311 -0.207454E-05  0.907E-03    1.36       1.9  T
   9    -56.8351318 -0.746963E-06  0.426E-03    1.36       4.1  T
  10    -56.8351320 -0.141937E-06  0.156E-03    1.36      11.1  T
  11    -56.8351320 -0.987722E-08  0.807E-04    1.36      21.6  T
  12    -56.8351320 -0.338195E-08  0.328E-04    1.36      53.1  T

   *** convergence criteria satisfied after 12 iterations ***

         #    Occupation            Energy/Eh            Energy/eV
      -------------------------------------------------------------
         1        2.0000           -0.7142516             -19.4358
       ...           ...                  ...                  ...
        44        2.0000           -0.4291611             -11.6781
        45        2.0000           -0.4236663             -11.5285
        46        2.0000           -0.4211161             -11.4592
        47        2.0000           -0.4189607             -11.4005
        48        2.0000           -0.4088554             -11.1255
        49        2.0000           -0.3894320             -10.5970
        50        2.0000           -0.3744375             -10.1890 (HOMO)
        51                         -0.3246025              -8.8329 (LUMO)
        52                         -0.2722899              -7.4094
        53                         -0.2428706              -6.6088
        54                         -0.2311105              -6.2888
        55                         -0.1855691              -5.0496
       ...                                ...                  ...
        93                          0.7092293              19.2991
      -------------------------------------------------------------
                  HL-Gap            0.0498350 Eh            1.3561 eV
             Fermi-level           -0.3495200 Eh           -9.5109 eV

 SCC (total)                   0 d,  0 h,  0 min,  0.053 sec
 SCC setup                      ...        0 min,  0.003 sec (  4.968%)
 Dispersion                     ...        0 min,  0.000 sec (  0.789%)
 classical contributions        ...        0 min,  0.000 sec (  0.121%)
 integral evaluation            ...        0 min,  0.006 sec ( 11.669%)
 iterations                     ...        0 min,  0.024 sec ( 45.026%)
 molecular gradient             ...        0 min,  0.020 sec ( 36.892%)
 printout                       ...        0 min,  0.000 sec (  0.497%)

         :::::::::::::::::::::::::::::::::::::::::::::::::::::
         ::                     SUMMARY                     ::
         :::::::::::::::::::::::::::::::::::::::::::::::::::::
         :: total energy             -56.018170910639 Eh    ::
         :: total w/o Gsasa/hb       -56.015234829921 Eh    ::
         :: gradient norm              0.000081519118 Eh/a0 ::
         :: HOMO-LUMO gap              1.356079391341 eV    ::
         ::.................................................::
         :: SCC energy               -56.835208961299 Eh    ::
         :: -> isotropic ES            0.110131262107 Eh    ::
         :: -> anisotropic ES         -0.003573074913 Eh    ::
         :: -> anisotropic XC          0.019031147923 Eh    ::
         :: -> dispersion             -0.036293013899 Eh    ::
         :: -> Gsolv                  -0.020791138632 Eh    ::
         ::    -> Gelec               -0.017855057914 Eh    ::
         ::    -> Gsasa                0.001345414981 Eh    ::
         ::    -> Ghb                 -0.007176044859 Eh    ::
         ::    -> Gshift               0.002894549160 Eh    ::
         :: repulsion energy           0.817038050659 Eh    ::
         :: add. restraining           0.000000000000 Eh    ::
         :: total charge              -0.000000000000 e     ::
         :::::::::::::::::::::::::::::::::::::::::::::::::::::

           -------------------------------------------------
          |                Property Printout                |
           -------------------------------------------------

    * Orbital Energies and Occupations

         #    Occupation            Energy/Eh            Energy/eV
      -------------------------------------------------------------
         1        2.0000           -0.7142516             -19.4358
       ...           ...                  ...                  ...
        38        2.0000           -0.4585896             -12.4789
        39        2.0000           -0.4548756             -12.3778
        40        2.0000           -0.4546285             -12.3711
        41        2.0000           -0.4483357             -12.1998
        42        2.0000           -0.4441659             -12.0864
        43        2.0000           -0.4358619             -11.8604
        44        2.0000           -0.4291611             -11.6781
        45        2.0000           -0.4236663             -11.5285
        46        2.0000           -0.4211161             -11.4592
        47        2.0000           -0.4189607             -11.4005
        48        2.0000           -0.4088554             -11.1255
        49        2.0000           -0.3894320             -10.5970
        50        2.0000           -0.3744375             -10.1890 (HOMO)
        51                         -0.3246025              -8.8329 (LUMO)
        52                         -0.2722899              -7.4094
        53                         -0.2428706              -6.6088
        54                         -0.2311105              -6.2888
        55                         -0.1855691              -5.0496
        56                         -0.1831761              -4.9845
        57                         -0.1102126              -2.9990
        58                         -0.0613432              -1.6692
        59                          0.0017660               0.0481
        60                          0.0542268               1.4756
        61                          0.0763242               2.0769
       ...                                ...                  ...
        93                          0.7092293              19.2991
      -------------------------------------------------------------
                  HL-Gap            0.0498350 Eh            1.3561 eV
             Fermi-level           -0.3495200 Eh           -9.5109 eV

     #   Z          covCN         q      C6AA      α(0)
     1   6 C        2.917    -0.025    28.639     8.776
     2   6 C        2.918    -0.024    28.610     8.771
     3   6 C        2.924    -0.020    28.515     8.757
     4   6 C        2.976    -0.012    28.321     8.729
     5   6 C        2.976    -0.017    28.440     8.748
     6   6 C        2.923    -0.018    28.466     8.749
     7   6 C        2.835     0.225    23.282     7.907
     8   8 O        0.858    -0.450    22.715     6.390
     9   6 C        2.972    -0.018    28.443     8.748
    10   6 C        2.925    -0.029    28.733     8.791
    11   6 C        2.912    -0.024    28.606     8.770
    12   6 C        2.920    -0.052    29.289     8.875
    13   6 C        2.899     0.091    25.975     8.356
    14   6 C        2.971    -0.056    29.391     8.893
    15   6 C        2.831     0.211    23.531     7.949
    16   8 O        0.858    -0.485    23.458     6.494
    17   7 N        2.694    -0.138    23.988     7.274
    18   6 C        3.735    -0.021    21.030     6.545
    19   6 C        3.676     0.068    19.654     6.352
    20   8 O        1.655    -0.505    22.999     6.474
    21   1 H        0.926     0.067     2.118     2.276
    22   1 H        0.926     0.068     2.104     2.268
    23   1 H        0.926     0.068     2.105     2.269
    24   1 H        0.926     0.063     2.162     2.299
    25   1 H        0.926     0.059     2.209     2.324
    26   1 H        0.926     0.067     2.115     2.274
    27   1 H        0.926     0.073     2.058     2.243
    28   1 H        0.860     0.222     1.000     1.566
    29   1 H        0.924     0.072     2.066     2.248
    30   1 H        0.924     0.081     1.966     2.193
    31   1 H        0.924     0.041     2.437     2.441
    32   1 H        0.924     0.069     2.097     2.264
    33   1 H        0.805     0.350     0.588     1.204

 Mol. C6AA /au·bohr⁶  :      14296.878674
 Mol. C8AA /au·bohr⁸  :     351965.660330
 Mol. α(0) /au        :        188.217683


Wiberg/Mayer (AO) data.
largest (>0.10) Wiberg bond orders for each atom

 ---------------------------------------------------------------------------
     #   Z sym  total        # sym  WBO       # sym  WBO       # sym  WBO
 ---------------------------------------------------------------------------
     1   6 C    3.980 --     6 C    1.447     2 C    1.422    21 H    0.967
     2   6 C    3.982 --     3 C    1.444     1 C    1.422    22 H    0.967
     3   6 C    3.981 --     2 C    1.444     4 C    1.392    23 H    0.964
     4   6 C    3.988 --     3 C    1.392     5 C    1.326    15 C    1.042
     5   6 C    3.988 --     6 C    1.385     4 C    1.326     7 C    1.050
     6   6 C    3.983 --     1 C    1.447     5 C    1.385    24 H    0.965
     7   6 C    3.924 --     8 O    1.704     5 C    1.050     9 C    1.047
     8   8 O    1.982 --     7 C    1.704
     9   6 C    3.988 --    10 C    1.437    14 C    1.279     7 C    1.047
    10   6 C    3.982 --     9 C    1.437    11 C    1.351    25 H    0.965
    11   6 C    3.986 --    12 C    1.533    10 C    1.351    26 H    0.966
    12   6 C    3.982 --    11 C    1.533    13 C    1.248    27 H    0.962
    13   6 C    3.973 --    17 N    1.323    12 C    1.248    14 C    1.235
    14   6 C    3.978 --     9 C    1.279    13 C    1.235    15 C    1.149
    15   6 C    3.942 --    16 O    1.600    14 C    1.149     4 C    1.042
    16   8 O    1.976 --    15 C    1.600
    17   7 N    3.498 --    13 C    1.323    18 C    0.998    28 H    0.875
    18   6 C    3.967 --    17 N    0.998    19 C    0.996    30 H    0.958
                            29 H    0.958
    19   6 C    3.953 --    20 O    1.001    18 C    0.996    32 H    0.970
                            31 H    0.967
    20   8 O    1.922 --    19 C    1.001    33 H    0.863
    21   1 H    0.995 --     1 C    0.967
    22   1 H    0.994 --     2 C    0.967
    23   1 H    0.995 --     3 C    0.964
    24   1 H    0.996 --     6 C    0.965
    25   1 H    0.996 --    10 C    0.965
    26   1 H    0.994 --    11 C    0.966
    27   1 H    0.994 --    12 C    0.962
    28   1 H    0.950 --    17 N    0.875
    29   1 H    0.993 --    18 C    0.958
    30   1 H    0.992 --    18 C    0.958
    31   1 H    0.998 --    19 C    0.967
    32   1 H    0.995 --    19 C    0.970
    33   1 H    0.877 --    20 O    0.863
 ---------------------------------------------------------------------------

Topologies differ in total number of bonds
Writing topology from bond orders to xtbtopo.mol

molecular dipole:
                 x           y           z       tot (Debye)
 q only:        1.328      -0.412       0.455
   full:        1.008      -0.355       0.540       3.042
molecular quadrupole (traceless):
                xx          xy          yy          xz          yz          zz
 q only:       11.533      25.443      -8.549       9.199      -0.319      -2.984
  q+dip:       10.844      28.519      -4.828      11.172      -1.247      -6.016
   full:        7.734      28.134      -8.408      10.607      -1.173       0.674


           -------------------------------------------------
          | TOTAL ENERGY              -56.018170910639 Eh   |
          | GRADIENT NORM               0.000081519118 Eh/α |
          | HOMO-LUMO GAP               1.356079391341 eV   |
           -------------------------------------------------

------------------------------------------------------------------------
 * finished run on 2025/04/11 at 15:56:47.478     
------------------------------------------------------------------------
 total:
 * wall-time:     0 d,  0 h,  0 min,  0.098 sec
 *  cpu-time:     0 d,  0 h,  0 min,  0.065 sec
 * ratio c/w:     0.666 speedup
 SCF:
 * wall-time:     0 d,  0 h,  0 min,  0.054 sec
 *  cpu-time:     0 d,  0 h,  0 min,  0.052 sec
 * ratio c/w:     0.972 speedup

