      -----------------------------------------------------------      
     |                   =====================                   |     
     |                           x T B                           |     
     |                   =====================                   |     
     |                         S. Grimme                         |     
     |          Mulliken Center for Theoretical Chemistry        |     
     |                    University of Bonn                     |     
      -----------------------------------------------------------      

   * xtb version 6.7.1 (edcfbbe) compiled by 'albert@albert-system' on 2024-07-22

   xtb is free software: you can redistribute it and/or modify it under
   the terms of the GNU Lesser General Public License as published by
   the Free Software Foundation, either version 3 of the License, or
   (at your option) any later version.
   
   xtb is distributed in the hope that it will be useful,
   but WITHOUT ANY WARRANTY; without even the implied warranty of
   MERCHANTABILITY or FITNESS FOR A PARTICULAR PURPOSE.  See the
   GNU Lesser General Public License for more details.
   
   Cite this work as:
   * C. Bannwarth, E. Caldeweyher, S. Ehlert, A. Hansen, P. Pracht,
     J. Seibert, S. Spicher, S. Grimme, WIREs Comput. Mol. Sci., 2020, 11,
     e01493. DOI: 10.1002/wcms.1493
   
   for GFN2-xTB:
   * C. Bannwarth, S. Ehlert and S. Grimme., J. Chem. Theory Comput., 2019,
     15, 1652-1671. DOI: 10.1021/acs.jctc.8b01176
   for GFN1-xTB:
   * S. Grimme, C. Bannwarth, P. Shushkov, J. Chem. Theory Comput., 2017,
     13, 1989-2009. DOI: 10.1021/acs.jctc.7b00118
   for GFN0-xTB:
   * P. Pracht, E. Caldeweyher, S. Ehlert, S. Grimme, ChemRxiv, 2019, preprint.
     DOI: 10.26434/chemrxiv.8326202.v1
   for GFN-FF:
   * S. Spicher and S. Grimme, Angew. Chem. Int. Ed., 2020, 59, 15665-15673.
     DOI: 10.1002/anie.202004239
   
   for ALPB and GBSA implicit solvation:
   * S. Ehlert, M. Stahn, S. Spicher, S. Grimme, J. Chem. Theory Comput.,
     2021, 17, 4250-4261. DOI: 10.1021/acs.jctc.1c00471
   
   for ddCOSMO and CPCM-X implicit solvation:
   * M. Stahn, S. Ehlert, S. Grimme, J. Phys. Chem. A,
     2023, XX, XXXX-XXXX. DOI: 10.1021/acs.jpca.3c04382
   
   for DFT-D4:
   * E. Caldeweyher, C. Bannwarth and S. Grimme, J. Chem. Phys., 2017,
     147, 034112. DOI: 10.1063/1.4993215
   * E. Caldeweyher, S. Ehlert, A. Hansen, H. Neugebauer, S. Spicher,
     C. Bannwarth and S. Grimme, J. Chem. Phys., 2019, 150, 154122.
     DOI: 10.1063/1.5090222
   * E. Caldeweyher, J.-M. Mewes, S. Ehlert and S. Grimme, Phys. Chem. Chem. Phys.
     2020, 22, 8499-8512. DOI: 10.1039/D0CP00502A
   
   for sTDA-xTB:
   * S. Grimme and C. Bannwarth, J. Chem. Phys., 2016, 145, 054103.
     DOI: 10.1063/1.4959605
   
   in the mass-spec context:
   * V. Asgeirsson, C. Bauer and S. Grimme, Chem. Sci., 2017, 8, 4879.
     DOI: 10.1039/c7sc00601b
   * J. Koopman and S. Grimme, ACS Omega 2019, 4, 12, 15120-15133.
     DOI: 10.1021/acsomega.9b02011
   
   for metadynamics refer to:
   * S. Grimme, J. Chem. Theory Comput., 2019, 155, 2847-2862
     DOI: 10.1021/acs.jctc.9b00143
   
   for SPH calculations refer to:
   * S. Spicher and S. Grimme, J. Chem. Theory Comput., 2021, 17, 1701-1714
     DOI: 10.1021/acs.jctc.0c01306
   
   for ONIOM refer to:
   * C. Plett, A. Katbashev, S. Ehlert, S. Grimme, M. Bursch,
     Phys. Chem. Chem. Phys., 2023, 25, 17860-17868. DOI: 10.1039/D3CP02178E
   
   for DIPRO refer to:
   * J. Kohn, N. Gildemeister, S. Grimme, D. Fazzi, A. Hansen,
     J. Chem. Phys., 2023, just accepted.
   
   for PTB refer to:
   * S. Grimme, M. Mueller, A. Hansen, J. Chem. Phys., 2023, 158, 124111.
     DOI: 10.1063/5.0137838
   
   with help from (in alphabetical order)
   P. Atkinson, C. Bannwarth, F. Bohle, G. Brandenburg, E. Caldeweyher
   M. Checinski, S. Dohm, S. Ehlert, S. Ehrlich, I. Gerasimov, C. Hölzer
   A. Katbashev, J. Kohn, J. Koopman, C. Lavigne, S. Lehtola, F. März, M. Müller,
   F. Musil, H. Neugebauer, J. Pisarek, C. Plett, P. Pracht, F. Pultar,
   J. Seibert, P. Shushkov, S. Spicher, M. Stahn, M. Steiner, T. Strunk,
   J. Stückrath, T. Rose, and J. Unsleber
   
 * started run on 2025/04/11 at 12:27:46.367     
   ID    Z sym.   atoms
    1    6 C      1, 2, 4
    2   17 Cl     3, 5
    3    1 H      6-11

           -------------------------------------------------
          |                Calculation Setup                |
           -------------------------------------------------

          program call               : /srv/scratch/z5358697/.xtb/bin/xtb xtb_opt.coord --opt normal --orca -I xtb_opt-xcontrol-inp
          hostname                   : k112
          coordinate file            : xtb_opt.coord
          omp threads                :                     5

           -------------------------------------------------
          |                   Orca driver                   |
           -------------------------------------------------
orca executable           : /apps/z_install_tree/linux-rocky8-ivybridge/gcc-12.2.0/orca-6.0.0-srtngmq3qlimg2qxbl6avaaiffipurdx/bin/orca
orca input file           : xtb_opt.inp
orca input line           : 
orca parallel             : true
orca number of threads    : 5
                         * ORCA takes the control...
  ------------------------------------------------------------------------

                                 *****************
                                 * O   R   C   A *
                                 *****************

                                            #,                                       
                                            ###                                      
                                            ####                                     
                                            #####                                    
                                            ######                                   
                                           ########,                                 
                                     ,,################,,,,,                         
                               ,,#################################,,                 
                          ,,##########################################,,             
                       ,#########################################, ''#####,          
                    ,#############################################,,   '####,        
                  ,##################################################,,,,####,       
                ,###########''''           ''''###############################       
              ,#####''   ,,,,##########,,,,          '''####'''          '####       
            ,##' ,,,,###########################,,,                        '##       
           ' ,,###''''                  '''############,,,                           
         ,,##''                                '''############,,,,        ,,,,,,###''
      ,#''                                            '''#######################'''  
     '                                                          ''''####''''         
             ,#######,   #######,   ,#######,      ##                                
            ,#'     '#,  ##    ##  ,#'     '#,    #''#        ,####,   ,####,        
            ##       ##  ##   ,#'  ##            #'  '#       #'       #'  '#        
            ##       ##  #######   ##           ,######,      #####,   #    #        
            '#,     ,#'  ##    ##  '#,     ,#' ,#      #,     #,   #   #,  ,#        
             '#######'   ##     ##  '#######'  #'      '#     '####' # '####'        



                #########################################################
                #                        -***-                          #
                #          Department of theory and spectroscopy        #
                #                                                       #
                #                      Frank Neese                      #
                #                                                       #
                #     Directorship, Architecture, Infrastructure        #
                #                    SHARK, DRIVERS                     #
                #        Core code/Algorithms in most modules           #
                #                                                       #
                #        Max Planck Institute fuer Kohlenforschung      #
                #                Kaiser Wilhelm Platz 1                 #
                #                 D-45470 Muelheim/Ruhr                 #
                #                      Germany                          #
                #                                                       #
                #                  All rights reserved                  #
                #                        -***-                          #
                #########################################################


                         Program Version 6.0.0  -   RELEASE  -


 With contributions from (in alphabetic order):
   Daniel Aravena         : Magnetic Suceptibility
   Michael Atanasov       : Ab Initio Ligand Field Theory (pilot matlab implementation)
   Alexander A. Auer      : GIAO ZORA, VPT2 properties, NMR spectrum
   Ute Becker             : All parallelization in ORCA, NUMFREQ, NUMCALC
   Giovanni Bistoni       : ED, misc. LED, open-shell LED, HFLD
   Martin Brehm           : Molecular dynamics
   Dmytro Bykov           : pre 5.0 version of the SCF Hessian
   Marcos Casanova-Páez   : Triplet and SCS-CIS(D). UHF-(DLPNO)-IP/EA/STEOM-CCSD. UHF-CVS-IP/STEOM-CCSD
   Vijay G. Chilkuri      : MRCI spin determinant printing, contributions to CSF-ICE
   Pauline Colinet        : FMM embedding
   Dipayan Datta          : RHF DLPNO-CCSD density
   Achintya Kumar Dutta   : EOM-CC, STEOM-CC
   Nicolas Foglia         : Exact transition moments, OPA infrastructure, MCD improvements
   Dmitry Ganyushin       : Spin-Orbit,Spin-Spin,Magnetic field MRCI
   Miquel Garcia          : C-PCM and meta-GGA Hessian, CCSD/C-PCM, Gaussian charge scheme
   Tiago L. C. Gouveia    : GS-ROHF, GS-ROCIS
   Yang Guo               : DLPNO-NEVPT2, F12-NEVPT2, CIM, IAO-localization
   Andreas Hansen         : Spin unrestricted coupled pair/coupled cluster methods
   Ingolf Harden          : AUTO-CI MPn and infrastructure 
   Benjamin Helmich-Paris : MC-RPA, TRAH-(SCF,CASSCF), AVAS, COSX integrals, SCF dyn. polar.
   Lee Huntington         : MR-EOM, pCC
   Robert Izsak           : Overlap fitted RIJCOSX, COSX-SCS-MP3, EOM
   Riya Kayal             : Wick's Theorem for AUTO-CI, AUTO-CI UHF-CCSDT
   Emily Kempfer          : AUTO-CI, RHF CISDT and CCSDT
   Christian Kollmar      : KDIIS, OOCD, Brueckner-CCSD(T), CCSD density, CASPT2, CASPT2-K, improved NEVPT2
   Axel Koslowski         : Symmetry handling
   Simone Kossmann        : Meta GGA functionals, TD-DFT gradient, OOMP2, (MP2 Hessian; deprecated post 5.0)
   Lucas Lang             : DCDCAS
   Marvin Lechner         : AUTO-CI (C++ implementation), FIC-MRCC
   Spencer Leger          : CASSCF response
   Dagmar Lenk            : GEPOL surface, SMD, ORCA-2-JSON
   Dimitrios Liakos       : Extrapolation schemes; Compound Job, initial MDCI parallelization
   Dimitrios Manganas     : Further ROCIS development; embedding schemes. LFT, Crystal Embedding
   Dimitrios Pantazis     : SARC Basis sets
   Anastasios Papadopoulos: AUTO-CI, single reference methods and gradients
   Taras Petrenko         : pre 6.0 DFT Hessian and TD-DFT gradient, (ASA, deprecated), ECA, 1-Electron XAS/XES, NRVS
   Peter Pinski           : DLPNO-MP2, DLPNO-MP2 Gradient
   Christoph Reimann      : Effective Core Potentials
   Marius Retegan         : Local ZFS, SOC
   Christoph Riplinger    : Optimizer, TS searches, QM/MM, DLPNO-CCSD(T), (RO)-DLPNO pert. Triples
   Michael Roemelt        : Original ROCIS implementation
   Masaaki Saitow         : Open-shell DLPNO-CCSD energy and density
   Barbara Sandhoefer     : DKH picture change effects
   Kantharuban Sivalingam : CASSCF convergence/infrastructure, NEVPT2 and variants, FIC-MRCI
   Bernardo de Souza      : ESD, SOC TD-DFT
   Georgi Stoychev        : AutoAux, RI-MP2 NMR, DLPNO-MP2 response, X2C
   Van Anh Tran           : RI-MP2 g-tensors
   Willem Van den Heuvel  : Paramagnetic NMR
   Zikuan Wang            : NOTCH, Electric field optimization 
   Frank Wennmohs         : Technical directorship and infrastructure
   Hang Xu                : AUTO-CI-Response properties 


 We gratefully acknowledge several colleagues who have allowed us to
 interface, adapt or use parts of their codes:
   Stefan Grimme, W. Hujo, H. Kruse, P. Pracht,  : VdW corrections, initial TS optimization,
                  C. Bannwarth, S. Ehlert,         DFT functionals, gCP, sTDA/sTD-DF
                  L. Wittmann, M. Mueller
   Ed Valeev, F. Pavosevic, A. Kumar             : LibInt (2-el integral package), F12 methods
   Garnet Chan, S. Sharma, J. Yang, R. Olivares  : DMRG
   Ulf Ekstrom                                   : XCFun DFT Library
   Mihaly Kallay                                 : mrcc  (arbitrary order and MRCC methods)
   Frank Weinhold                                : gennbo (NPA and NBO analysis)
   Simon Mueller                                 : openCOSMO-RS
   Christopher J. Cramer and Donald G. Truhlar   : smd solvation model
   Lars Goerigk                                  : TD-DFT with DH, B97 family of functionals
   V. Asgeirsson, H. Jonsson                     : NEB implementation
   FAccTs GmbH                                   : IRC, NEB, NEB-TS, DLPNO-Multilevel, CI-OPT
                                                   MM, QMMM, 2- and 3-layer-ONIOM, Crystal-QMMM,
                                                   LR-CPCM, SF, NACMEs, symmetry and pop. for TD-DFT,
                                                   nearIR, NL-DFT gradient (VV10), updates on ESD,
                                                   ML-optimized integration grids, MBIS, APM,
                                                   GOAT, DOCKER, SOLVATOR, interface openCOSMO-RS
   S Lehtola, MJT Oliveira, MAL Marques          : LibXC Library
   Liviu Ungur et al                             : ANISO software


 Your calculation uses the libint2 library for the computation of 2-el integrals
 For citations please refer to: http://libint.valeyev.net

 Your ORCA version has been built with support for libXC version: 6.2.2
 For citations please refer to: https://libxc.gitlab.io

 This ORCA versions uses:
   CBLAS   interface :  Fast vector & matrix operations
   LAPACKE interface :  Fast linear algebra routines
   SCALAPACK package :  Parallel linear algebra routines
   Shared memory     :  Shared parallel matrices
   BLAS/LAPACK       :  OpenBLAS 0.3.27  USE64BITINT DYNAMIC_ARCH NO_AFFINITY SkylakeX SINGLE_THREADED
        Core in use  :  SkylakeX
   Copyright (c) 2011-2014, The OpenBLAS Project




***************************************
The coordinates will be read from file: xtb_opt.xyz
***************************************


Your calculation utilizes the geometrical counterpoise correction gCP
Please cite in your paper:
H.Kruse, S. Grimme J.Chem.Phys., 136, (2012), 154101 
   

Your calculation utilizes the atom-pairwise dispersion correction
based on EEQ partial charges (D4)


Your calculation utilizes the SMD solvation module
Please cite in your paper:
A.V. Marenich, C.J. Cramer, D.G. Truhlar J. Phys. Chem. B, 113, (2009), 6378 

================================================================================

----- Orbital basis set information -----
Your calculation utilizes the basis: def2-mTZVPP
   Stefan Grimme, Andreas Hansen, Sebastian Ehlert, and Jan-Michael Mewes 
   J. Chem. Phys. 154, 064103 (2021). DOI: 10.1063/5.0040021

----- AuxJ basis set information -----
Your calculation utilizes the auxiliary basis: def2/J
   F. Weigend, Phys. Chem. Chem. Phys. 8, 1057 (2006).

================================================================================
                                        WARNINGS
                       Please study these warnings very carefully!
================================================================================

Using LibXC functional ID 497 : Re-regularized SCAN exchange by Furness et al
[ 1]  J. W. Furness, A. D. Kaplan, J. Ning, J. P. Perdew, and J. Sun.,  J. Phys. Chem. Lett. 11, 8208-8215 (2020)
[ 2]  J. W. Furness, A. D. Kaplan, J. Ning, J. P. Perdew, and J. Sun.,  J. Phys. Chem. Lett. 11, 9248-9248 (2020)
Using LibXC functional ID 498 : Re-regularized SCAN correlation by Furness et al
[ 1]  J. W. Furness, A. D. Kaplan, J. Ning, J. P. Perdew, and J. Sun.,  J. Phys. Chem. Lett. 11, 8208-8215 (2020)
[ 2]  J. W. Furness, A. D. Kaplan, J. Ning, J. P. Perdew, and J. Sun.,  J. Phys. Chem. Lett. 11, 9248-9248 (2020)
Using LibXC functional ID 497 : Re-regularized SCAN exchange by Furness et al
[ 1]  J. W. Furness, A. D. Kaplan, J. Ning, J. P. Perdew, and J. Sun.,  J. Phys. Chem. Lett. 11, 8208-8215 (2020)
[ 2]  J. W. Furness, A. D. Kaplan, J. Ning, J. P. Perdew, and J. Sun.,  J. Phys. Chem. Lett. 11, 9248-9248 (2020)
Using LibXC functional ID 498 : Re-regularized SCAN correlation by Furness et al
[ 1]  J. W. Furness, A. D. Kaplan, J. Ning, J. P. Perdew, and J. Sun.,  J. Phys. Chem. Lett. 11, 8208-8215 (2020)
[ 2]  J. W. Furness, A. D. Kaplan, J. Ning, J. P. Perdew, and J. Sun.,  J. Phys. Chem. Lett. 11, 9248-9248 (2020)

================================================================================
                                       INPUT FILE
================================================================================
NAME = xtb_opt.inp
|  1> ! r2scan-3c def2/J RI DEFGRID2 scfconv7 ENGRAD tightSCF miniprint
|  2> %cpcm
|  3>     smd true
|  4>     smdsolvent "water"
|  5> end
|  6> * xyzfile 0 1 xtb_opt.xyz
|  7> 
|  8>                          ****END OF INPUT****
================================================================================

                     *******************************
                     * Energy+Gradient Calculation *
                     *******************************

---------------------------------
CARTESIAN COORDINATES (ANGSTROEM)
---------------------------------
  C     -0.000010   -0.124229   -0.000014
  C     -1.243267    0.746829   -0.112931
  Cl    -2.706948   -0.287876   -0.247715
  C      1.243235    0.746824    0.113090
  Cl     2.706967   -0.287846    0.247661
  H     -0.079994   -0.765060    0.879088
  H      0.079919   -0.764738   -0.879317
  H     -1.384007    1.364699    0.771554
  H     -1.221106    1.366160   -1.007380
  H      1.221152    1.366077    1.007607
  H      1.383878    1.364868   -0.771363

----------------------------
CARTESIAN COORDINATES (A.U.)
----------------------------
  NO LB      ZA    FRAG     MASS         X           Y           Z
   0 C     6.0000    0    12.011   -0.000020   -0.234759   -0.000027
   1 C     6.0000    0    12.011   -2.349435    1.411303   -0.213408
   2 Cl   17.0000    0    35.453   -5.115390   -0.544007   -0.468114
   3 C     6.0000    0    12.011    2.349373    1.411292    0.213709
   4 Cl   17.0000    0    35.453    5.115426   -0.543949    0.468011
   5 H     1.0000    0     1.008   -0.151166   -1.445754    1.661236
   6 H     1.0000    0     1.008    0.151025   -1.445145   -1.661669
   7 H     1.0000    0     1.008   -2.615394    2.578908    1.458026
   8 H     1.0000    0     1.008   -2.307555    2.581668   -1.903672
   9 H     1.0000    0     1.008    2.307643    2.581512    1.904102
  10 H     1.0000    0     1.008    2.615151    2.579226   -1.457665

------------------------------------------------------------------------------
                   ___                                                        
                  /   \      - P O W E R E D   B Y -                         
                 /     \                                                     
                 |  |  |   _    _      __       _____    __    __             
                 |  |  |  | |  | |    /  \     |  _  \  |  |  /  |          
                  \  \/   | |  | |   /    \    | | | |  |  | /  /          
                 / \  \   | |__| |  /  /\  \   | |_| |  |  |/  /          
                |  |  |   |  __  | /  /__\  \  |    /   |      \           
                |  |  |   | |  | | |   __   |  |    \   |  |\   \          
                \     /   | |  | | |  |  |  |  | |\  \  |  | \   \       
                 \___/    |_|  |_| |__|  |__|  |_| \__\ |__|  \__/        
                                                                              
                      - O R C A' S   B I G   F R I E N D -                    
                                      &                                       
                       - I N T E G R A L  F E E D E R -                       
                                                                              
 v1 FN, 2020, v2 2021, v3 2022-2024                                           
------------------------------------------------------------------------------


----------------------
SHARK INTEGRAL PACKAGE
----------------------

Number of atoms                             ...     11
Number of basis functions                   ...    141
Number of shells                            ...     67
Maximum angular momentum                    ...      2
Integral batch strategy                     ... SHARK/LIBINT Hybrid
RI-J (if used) integral strategy            ... SPLIT-RIJ (Revised 2003 algorithm where possible)
Printlevel                                  ...      1
Contraction scheme used                     ... SEGMENTED contraction
Prescreening option                         ... SCHWARTZ
   Thresh                                   ... 3.000e-11
   Tcut                                     ... 1.000e-12
   Tpresel                                  ... 1.000e-12 
Coulomb Range Separation                    ... NOT USED
Exchange Range Separation                   ... NOT USED
Multipole approximations                    ... NOT USED
Finite Nucleus Model                        ... NOT USED
CABS basis                                  ... NOT available
Auxiliary Coulomb fitting basis             ... AVAILABLE
   # of basis functions in Aux-J            ...    315
   # of shells in Aux-J                     ...    109
   Maximum angular momentum in Aux-J        ...      4
Auxiliary J/K fitting basis                 ... NOT available
Auxiliary Correlation fitting basis         ... NOT available
Auxiliary 'external' fitting basis          ... NOT available

Checking pre-screening integrals            ... done (  0.0 sec) Dimension = 67
Check shell pair data                       ... done (  0.0 sec)
Shell pair information
Shell pair cut-off parameter TPreSel        ...   1.0e-12
Total number of shell pairs                 ...      2278
Shell pairs after pre-screening             ...      2102
Total number of primitive shell pairs       ...      9209
Primitive shell pairs kept                  ...      6180
          la=0 lb=0:    634 shell pairs
          la=1 lb=0:    787 shell pairs
          la=1 lb=1:    260 shell pairs
          la=2 lb=0:    239 shell pairs
          la=2 lb=1:    155 shell pairs
          la=2 lb=2:     27 shell pairs

Calculating one electron integrals          ... done (  0.0 sec)
Calculating RI/J V-Matrix + Cholesky decomp.... done (  0.0 sec)
Calculating Nuclear repulsion               ... done (  0.0 sec) ENN=    259.635392640282 Eh

Diagonalization of the overlap matrix:
Smallest eigenvalue                        ... 4.243e-04
Time for diagonalization                   ...    0.002 sec
Threshold for overlap eigenvalues          ... 1.000e-07
Number of eigenvalues below threshold      ... 0
Time for construction of square roots      ...    0.015 sec
Total time needed                          ...    0.028 sec

-------------------
DFT GRID GENERATION
-------------------

General Integration Accuracy     IntAcc      ... 4.388
Radial Grid Type                 RadialGrid  ... OptM3 with GC (2021)
Angular Grid (max. ang.)         AngularGrid ... 4 (Lebedev-302)
Angular grid pruning method      GridPruning ... 4 (adaptive)
Weight generation scheme         WeightScheme... mBecke (2022)
Basis function cutoff            BFCut       ... 1.0000e-11
Integration weight cutoff        WCut        ... 1.0000e-14
Partially contracted basis set               ... off
Rotationally invariant grid construction     ... off
Angular grids for H and He will be reduced by one unit

Total number of grid points                  ...    52140
Total number of batches                      ...      820
Average number of points per batch           ...       63
Average number of grid points per atom       ...     4740
Initializing property integral containers    ... done (  0.0 sec)

SHARK setup successfully completed in   1.2 seconds

Maximum memory used throughout the entire STARTUP-calculation: 23.6 MB
Occupation numbers will be reassigned to an Aufbau configuration
             **** ENERGY FILE WAS UPDATED (xtb_opt.en.tmp) ****
Finished Guess after   0.4 sec
Maximum memory used throughout the entire GUESS-calculation: 9.7 MB
--------------------
CPCM SOLVATION MODEL
--------------------
CPCM parameters:
  Epsilon                                         ...      78.3550
  Refrac                                          ...       1.3328
  Rsolv                                           ...       1.3000
  Surface type                                    ... GAUSSIAN VDW
  Discretization scheme                           ... Constant charge density
    Threshold for H atoms                         ...       5.0000 (charges/Ang^2)
    Threshold for non-H atoms                     ...       5.0000 (charges/Ang^2)
  Epsilon function type                           ...         CPCM
Solvent:                                          ... WATER
SMD-CDS solvent descriptors:
  Soln                                            ...       1.3328
  Soln25                                          ...       1.3323
  Sola                                            ...       0.0000
  Solb                                            ...       0.0000
  Solg                                            ...       0.0000
  Solc                                            ...       0.0000
  Solh                                            ...       0.0000
Radii:
  Scheme                                          ... Element-dependent radii
  Radius for C  used is    3.4960 Bohr (=   1.8500 Ang.)
  Radius for Cl used is    4.4975 Bohr (=   2.3800 Ang.)
  Radius for H  used is    2.2677 Bohr (=   1.2000 Ang.)
Calculating surface                               ...        done! (  0.0s)
Cavity surface points                             ...         1067
Cavity Volume                                     ...     971.2273
Cavity Surface-area                               ...     569.0917
Calculating surface distance matrix               ...        done! (  0.0s)
Performing Cholesky decomposition & store         ...        done! (  0.1s)
Overall time for CPCM initialization              ...                 0.1s

----------------------------------------D-I-I-S--------------------------------------------
Iteration    Energy (Eh)           Delta-E    RMSDP     MaxDP     DIISErr   Damp  Time(sec)
-------------------------------------------------------------------------------------------
               ***  Starting incremental Fock matrix formation  ***
                              *** Initializing SOSCF ***
---------------------------------------S-O-S-C-F--------------------------------------
Iteration    Energy (Eh)           Delta-E    RMSDP     MaxDP     MaxGrad    Time(sec)
--------------------------------------------------------------------------------------
    1    -1038.2646415596627776     0.00e+00  2.87e-07  4.18e-06  7.44e-07     2.0
               *** Restarting incremental Fock matrix formation ***
    2    -1038.2646415598487692    -1.86e-10  1.74e-07  4.42e-06  1.65e-06     1.8
                  *** Gradient check signals convergence ***

               *****************************************************
               *                     SUCCESS                       *
               *           SCF CONVERGED AFTER   2 CYCLES          *
               *****************************************************


SMD CDS free energy correction energy :                 2.15395     Kcal/mol
Total Energy after SMD CDS correction =             -1038.261209022 Eh
             **** ENERGY FILE WAS UPDATED (xtb_opt.en.tmp) ****

----------------
TOTAL SCF ENERGY
----------------

Total Energy       :      -1038.26120902169600 Eh          -28252.52383 eV

Components:
Nuclear Repulsion  :        259.63539264028242 Eh            7065.03821 eV
Electronic Energy  :      -1297.88763628279685 Eh          -35317.31808 eV
One Electron Energy:      -1944.66986325027938 Eh          -52917.15724 eV
Two Electron Energy:        646.78222696748264 Eh           17599.83915 eV
CPCM Dielectric    :         -0.01239791733420 Eh              -0.33736 eV
SMD CDS (Gcds)     :          0.00343253815282 Eh               0.09340 eV

Virial components:
Potential Energy   :      -2073.83410414270202 Eh          -56431.89492 eV
Kinetic Energy     :       1035.57289512100624 Eh           28179.37109 eV
Virial Ratio       :          2.00259596781005

DFT components:
N(Alpha)           :       28.999990622993 electrons
N(Beta)            :       28.999990622993 electrons
N(Total)           :       57.999981245986 electrons
E(X)               :      -72.837655072290 Eh       
E(C)               :       -2.065065834455 Eh       
E(XC)              :      -74.902720906745 Eh       

CPCM Solvation Model Properties:
Surface-charge          :         -0.01533819070626
Corrected charge        :          0.00000000000000
Outlying charge corr.   :          0.00001750220086 Eh               0.00048 eV
Free-energy (cav+disp)  :          0.00343253815282 Eh               0.09340 eV

---------------
SCF CONVERGENCE
---------------

  Last Energy change         ...    1.8599e-10  Tolerance :   1.0000e-07
  Last MAX-Density change    ...    4.4200e-06  Tolerance :   1.0000e-07
  Last RMS-Density change    ...    1.7417e-07  Tolerance :   5.0000e-09
  Last DIIS Error            ...    6.4188e-06  Tolerance :   1.0000e-07
  Last Orbital Gradient      ...    1.6545e-06  Tolerance :   1.0000e-04
  Last Orbital Rotation      ...    2.0133e-06  Tolerance :   1.0000e-04


----------------
ORBITAL ENERGIES
----------------

  NO   OCC          E(Eh)            E(eV) 
   0   2.0000    -101.203883     -2753.8977 
   1   2.0000    -101.203881     -2753.8976 
   2   2.0000     -10.087505      -274.4950 
   3   2.0000     -10.087497      -274.4947 
   4   2.0000     -10.041628      -273.2466 
   5   2.0000      -9.360044      -254.6997 
   6   2.0000      -9.360042      -254.6997 
   7   2.0000      -7.106015      -193.3645 
   8   2.0000      -7.106014      -193.3645 
   9   2.0000      -7.096212      -193.0978 
  10   2.0000      -7.096212      -193.0977 
  11   2.0000      -7.096191      -193.0972 
  12   2.0000      -7.096190      -193.0972 
  13   2.0000      -0.831027       -22.6134 
  14   2.0000      -0.811273       -22.0759 
  15   2.0000      -0.721298       -19.6275 
  16   2.0000      -0.618141       -16.8205 
  17   2.0000      -0.565626       -15.3915 
  18   2.0000      -0.460843       -12.5402 
  19   2.0000      -0.416615       -11.3367 
  20   2.0000      -0.411490       -11.1972 
  21   2.0000      -0.402970       -10.9654 
  22   2.0000      -0.357481        -9.7276 
  23   2.0000      -0.344478        -9.3737 
  24   2.0000      -0.326105        -8.8738 
  25   2.0000      -0.281131        -7.6500 
  26   2.0000      -0.270324        -7.3559 
  27   2.0000      -0.266628        -7.2553 
  28   2.0000      -0.261388        -7.1127 
  29   0.0000      -0.015667        -0.4263 
  30   0.0000       0.041013         1.1160 
  31   0.0000       0.105242         2.8638 
  32   0.0000       0.106926         2.9096 
  33   0.0000       0.147169         4.0047 
  34   0.0000       0.149765         4.0753 
  35   0.0000       0.165139         4.4937 
  36   0.0000       0.176133         4.7928 
  37   0.0000       0.184332         5.0159 
  38   0.0000       0.189211         5.1487 
  39   0.0000       0.215627         5.8675 
*Only the first 10 virtual orbitals were printed.
Total SCF time: 0 days 0 hours 0 min 4 sec 
Finished LeanSCF after   4.3 sec

Maximum memory used throughout the entire LEANSCF-calculation: 16.6 MB


-------------------------------------------------------------------------------
                          DFT DISPERSION CORRECTION                            
                                                                               
                                DFTD4 V3.4.0                                   
-------------------------------------------------------------------------------
-------------------------   ----------------
Dispersion correction           -0.002753041
-------------------------   ----------------

------------------   -----------------
gCP correction             0.009781270
------------------   -----------------

-------------------------   --------------------
FINAL SINGLE POINT ENERGY     -1038.254180792596
-------------------------   --------------------

------------------------------------------------------------------------------
                         ORCA SCF GRADIENT CALCULATION
------------------------------------------------------------------------------

Nuc. rep. gradient        (SHARK) ... done (  0.0 sec)
HCore & Overlap gradient  (SHARK) ... done (  0.1 sec)
Split-RIJ-J gradient      (SHARK) ... done (  0.6 sec)
XC gradient                       ... done (  2.4 sec)
CPCM gradient                     ... done (  0.3 sec)
SMD gradient                      ... done (  0.0 sec)
Dispersion correction             ... done (  0.0 sec)

-------------------
DISPERSION GRADIENT
-------------------

   1   C   :   -0.000000001   -0.000007608   -0.000000001
   2   C   :   -0.000037184    0.000017656   -0.000003382
   3   Cl  :   -0.000111698   -0.000020347   -0.000010216
   4   C   :    0.000037184    0.000017659    0.000003383
   5   Cl  :    0.000111701   -0.000020345    0.000010214
   6   H   :   -0.000000611   -0.000008145    0.000006790
   7   H   :    0.000000608   -0.000008142   -0.000006792
   8   H   :   -0.000023496    0.000007316    0.000003723
   9   H   :   -0.000022426    0.000007321   -0.000007892
  10   H   :    0.000022427    0.000007320    0.000007894
  11   H   :    0.000023495    0.000007316   -0.000003720

Difference to translation invariance:
           :    0.0000000000   -0.0000000000   -0.0000000000

Difference to rotation invariance:
           :    0.0000000000    0.0000000000    0.0000000000

Norm of the Dispersion gradient    ...    0.0001793372
RMS gradient                       ...    0.0000312186
MAX gradient                       ...    0.0001117009
gCP correction                   ... done

------------------
CARTESIAN GRADIENT
------------------

   1   C   :    0.000004081   -0.002178718   -0.000018479
   2   C   :   -0.010849278   -0.001827075   -0.000970083
   3   Cl  :    0.010852903    0.007105184    0.001049030
   4   C   :    0.010843114   -0.001853431    0.001000540
   5   Cl  :   -0.010848225    0.007103520   -0.001044840
   6   H   :    0.000154351    0.001135586   -0.002145426
   7   H   :   -0.000163158    0.001151020    0.002158737
   8   H   :   -0.000462662   -0.002664619   -0.001331874
   9   H   :   -0.000659795   -0.002669926    0.001132396
  10   H   :    0.000668199   -0.002659462   -0.001129962
  11   H   :    0.000460470   -0.002642079    0.001299963

Difference to translation invariance:
           :   -0.0000000000   -0.0000000000    0.0000000000

Difference to rotation invariance:
           :    0.0000004237   -0.0000462738   -0.0000001117

Norm of the Cartesian gradient     ...    0.0251969969
RMS gradient                       ...    0.0043862342
MAX gradient                       ...    0.0108529028

-------
TIMINGS
-------

Total SCF gradient time     ....        3.832 sec

Densities                   ....       0.000 sec  (  0.0%)
One electron gradient       ....       0.085 sec  (  2.2%)
RI-J Coulomb gradient       ....       0.617 sec  ( 16.1%)
XC gradient                 ....       2.412 sec  ( 63.0%)
CPCM gradient               ....       0.350 sec  (  9.1%)
   A-Matrix (El+Nuc)        ....       0.033 sec  (  0.9%)
   Potential                ....       0.317 sec  (  8.3%)
SMD gradient                ....       0.012 sec  (  0.3%)

Maximum memory used throughout the entire SCFGRAD-calculation: 29.7 MB

------------------------------------------------------------------------------
                              ORCA PROPERTY CALCULATIONS
------------------------------------------------------------------------------

GBWName                                 ... xtb_opt.gbw
Number of atoms                         ...     11
Number of basis functions               ...    141
Max core memory                         ...   1024 MB

Electric properties:
Dipole moment                           ... YES
Quadrupole moment                       ...  NO
Static polarizability (Dipole/Dipole)   ...  NO
Static polarizability (Dipole/Quad.)    ...  NO
Static polarizability (Quad./Quad.)     ...  NO
Static polarizability (Velocity)        ...  NO

Atomic electric properties:
Dipole moment                           ...  NO
Quadrupole moment                       ...  NO
Static polarizability                   ...  NO

Choice of electric origin               ... Center of mass
Position of electric origin             ...    -0.000000     0.000009     0.000000

General magnetic properties:
Magnetizability                         ...  NO

EPR properties:
g-Tensor (aka g-matrix)                 ...  NO
Zero-Field splitting spin-orbit         ...  NO
Zero-field splitting spin-spin          ...  NO
Hyperfine couplings                     ...  NO (   0 nuclei)
Quadrupole couplings                    ...  NO (   0 nuclei)
Contact density                         ...  NO (   0 nuclei)

NMR properties:
Chemical shifts                         ...  NO (   0 nuclei)
Spin-rotation constants                 ...  NO (   0 nuclei)
Spin-spin couplings                     ...  NO (   0 nuclei,    0 pairs)

Choice of magnetic origin               ... GIAO
Position of magnetic origin             ...     0.000000     0.000000     0.000000

Properties with geometric perturbations:
SCF Hessian                             ...  NO
IR spectrum                             ...  NO
VCD spectrum                            ...  NO
X-ray spectroscopy properties:
SCF XES/XAS/RIXS spectra                ...  NO


-------------
DIPOLE MOMENT
-------------

Method             : SCF
Type of density    : Electron Density
Multiplicity       :   1
Irrep              :   0
Energy             : -1038.2612090216960041 Eh
Relativity type    : 
Basis              : AO
                                X                 Y                 Z
Electronic contribution:      0.000136765      -3.322768757      -0.000173931
Nuclear contribution   :     -0.000172831       4.461638687       0.000250174
                        -----------------------------------------
Total Dipole Moment    :     -0.000036066       1.138869930       0.000076244
                        -----------------------------------------
Magnitude (a.u.)       :      1.138869933
Magnitude (Debye)      :      2.894777318



--------------------
Rotational spectrum 
--------------------
 
Rotational constants in cm-1:             0.511704             0.029418             0.028265 
Rotational constants in MHz :         15340.496973           881.921126           847.366327 

Dipole components along the rotational axes: 
x,y,z [a.u.] :    -0.000023    -1.138870    -0.000032 
x,y,z [Debye]:    -0.000059    -2.894777    -0.000081 

 

Dipole moment calculation done in   0.0 sec 

Maximum memory used throughout the entire PROP-calculation: 7.9 MB

--------------------------------
SUGGESTED CITATIONS FOR THIS RUN
--------------------------------

Below you find a list of papers that are relevant to this ORCA run
We neither can nor want to force you to cite these papers, but we appreciate if you do
You receive ORCA, which is the product of decades of hard work by many enthusiastic individuals, for free
The only thing we kindly ask in return is that you cite our papers,
We deeply appreciate it, if you show your appreciation for ORCA by not just citing the generic ORCA reference.

Please note that relegating all ORCA citations to the supporting information does *not* help us.
SI sections are not indexed - citations you put there will not count into any citation statistics
But we need these citations in order to attract the funding resources that allow us to do what we are doing

Therefore, if you are a happy ORCA user, please consider citing a few of the papers listed below in the main body of your paper

In addition to the list printed below, the program has created the file xtb_opt.bibtex that contains the list in bibtex format
You can import this file easily into all common literature databanks and citation aid programs


List of essential papers. We consider these as the minimum necessary citations

  1. Neese,F.
     Software update: the ORCA program system, version 5.0
     WIRES Comput. Molec. Sci., 2022 12(1)e1606
     doi.org/10.1002/wcms.1606
  2. Grimme,S.; Hansen,A.; Ehlert,S.; Mewes,J.
     r2SCAN-3c: A 'Swiss army knife' composite electronic-structure method
     J. Chem. Phys., 2021 154 064103
     doi.org/10.1063/5.0040021

List of papers to cite with high priority. The work reported in these papers was absolutely
necessary for this run to complete.
Our perspective: the developers of density functionals and basis sets usually get cited in chemistry papers
Good! But without the algorithms to do something with them, the functionals or basis sets would not do anything.
Hence, in our opinion, the algorithm design and method developments papers are equally worthy of getting cited

  1. Neese,F.
     An improvement of the resolution of the identity approximation for the formation of the Coulomb matrix
     J. Comp. Chem., 2003 24(14)1740-1747
     doi.org/10.1002/jcc.10318
  2. Garcia-Rates,M.; Neese,F.
     Effect of the Solute Cavity on the Solvation Energy and its Derivatives within the Framework of the Gaussian Charge Scheme
     J. Comput. Chem., 2020 41 922-939
     doi.org/10.1002/jcc.26139
  3. Neese,F.
     The SHARK Integral Generation and Digestion System
     J. Comp. Chem., 2022  1-16
     doi.org/10.1002/jcc.26942
  4. Lehtola,S.; Steigemann,C.; Oliveira,M.; Marques,M.
     Recent developments in Libxc - A comprehensive library of functionals for density functional theory
     Software X, 2018 7 
     doi.org/10.1016/j.softx.2017.11.002
  5. Caldeweyher,E.; Bannwarth,C.; Grimme,S.
     Extension of the D3 dispersion coefficient model
     J. Chem. Phys., 2017 147 034112-XXXX
     doi.org/10.1063/1.4993215
  6. Caldeweyher,E.; Ehlert,S.; Hansen,A.; Neugebauer,H.; Spicher,S.; Bannwarth,C.; Grimme,S.
     A generally applicable atomic-charge dependent London dispersion correction
     J. Chem. Phys., 2019 150 154122-XXXX
     doi.org/10.1063/1.5090222
  7. Caldeweyher,E.; Mewes,J.; Ehlert,S.; Grimme,S.
     Extension and evaluation of the D4 London-dispersion model for periodic systems
     Phys. Chem. Chem. Phys., 2020 22(16)8499-8512
     doi.org/10.1039/D0CP00502A

List of suggested additional citations. These are papers that are important in the 'surrounding' of 
of this run, or papers that preceded the highly important papers. If you like your results we are grateful for a citation.

  1. Neese,F.
     The ORCA program system
     WIRES Comput. Molec. Sci., 2012 2(1)73-78
     doi.org/10.1002/wcms.81
  2. Neese,F.
     Software update: the ORCA program system, version 4.0
     WIRES Comput. Molec. Sci., 2018 8(1)1-6
     doi.org/10.1002/wcms.1327
  3. Neese,F.; Wennmohs,F.; Becker,U.; Riplinger,C.
     The ORCA quantum chemistry program package
     J. Chem. Phys., 2020 152 Art. No. L224108
     doi.org/10.1063/5.0004608

List of optional additional citations

  1. Neese,F.
     Approximate second-order SCF convergence for spin unrestricted wavefunctions
     Chem. Phys. Lett., 2000 325(1-3)93-98
     doi.org/10.1016/s0009-2614(00)00662-x

Timings for individual modules:

Sum of individual times          ...       10.050 sec (=   0.168 min)
Startup calculation              ...        1.264 sec (=   0.021 min)  12.6 %
SCF iterations                   ...        4.752 sec (=   0.079 min)  47.3 %
Property calculations            ...        0.107 sec (=   0.002 min)   1.1 %
SCF Gradient evaluation          ...        3.927 sec (=   0.065 min)  39.1 %
                             ****ORCA TERMINATED NORMALLY****
TOTAL RUN TIME: 0 days 0 hours 0 minutes 10 seconds 818 msec
  ------------------------------------------------------------------------
          * successful ORCA run, taking over control again...

         :::::::::::::::::::::::::::::::::::::::::::::::::::::
         ::                  ORCA SUMMARY                   ::
         :::::::::::::::::::::::::::::::::::::::::::::::::::::
         :: total energy           -1038.254180792596 Eh    ::
         :: gradient norm              0.025196996920 Eh/a0 ::
         :: HOMO-LUMO gap              0.000000000000 eV    ::
         :::::::::::::::::::::::::::::::::::::::::::::::::::::

      ----------------------------------------------------------- 
     |                       L-ANC optimizer                     |
      ----------------------------------------------------------- 
          low memory version by Sebastian Ehlert

          ...................................................
          :                      SETUP                      :
          :.................................................:
          :   energy convergence        0.5000000E-05 Eh    :
          :   grad. convergence         0.1000000E-02 Eh/a0 :
          :   optimization log               true           :
          :   writing optlog all                1     steps :
          :   Hessian reset                     8     steps :
          :   maximium step len.        1.0000000     a0    :
          :   LBFGS images                      8           :
          ...................................................
 * calculating model hessian...
Using Lindh-Hessian (1995)
 Shifting diagonal of input Hessian by   1.000000000000000E-002
 Lowest  eigenvalues of input Hessian
    0.000000    0.000000    0.000000    0.000000    0.000000    0.000000
    0.017300    0.017682    0.020539    0.041238    0.042059    0.050272
    0.059585    0.068424    0.074212    0.083026    0.088073    0.097775
 Highest eigenvalues
    1.047943    1.055302    1.104775    1.190625    1.210775    1.249725
 

........................................................................
.............................. CYCLE    1 ..............................
........................................................................
                         * ORCA takes the control...
  ------------------------------------------------------------------------

                                 *****************
                                 * O   R   C   A *
                                 *****************

                                            #,                                       
                                            ###                                      
                                            ####                                     
                                            #####                                    
                                            ######                                   
                                           ########,                                 
                                     ,,################,,,,,                         
                               ,,#################################,,                 
                          ,,##########################################,,             
                       ,#########################################, ''#####,          
                    ,#############################################,,   '####,        
                  ,##################################################,,,,####,       
                ,###########''''           ''''###############################       
              ,#####''   ,,,,##########,,,,          '''####'''          '####       
            ,##' ,,,,###########################,,,                        '##       
           ' ,,###''''                  '''############,,,                           
         ,,##''                                '''############,,,,        ,,,,,,###''
      ,#''                                            '''#######################'''  
     '                                                          ''''####''''         
             ,#######,   #######,   ,#######,      ##                                
            ,#'     '#,  ##    ##  ,#'     '#,    #''#        ,####,   ,####,        
            ##       ##  ##   ,#'  ##            #'  '#       #'       #'  '#        
            ##       ##  #######   ##           ,######,      #####,   #    #        
            '#,     ,#'  ##    ##  '#,     ,#' ,#      #,     #,   #   #,  ,#        
             '#######'   ##     ##  '#######'  #'      '#     '####' # '####'        



                #########################################################
                #                        -***-                          #
                #          Department of theory and spectroscopy        #
                #                                                       #
                #                      Frank Neese                      #
                #                                                       #
                #     Directorship, Architecture, Infrastructure        #
                #                    SHARK, DRIVERS                     #
                #        Core code/Algorithms in most modules           #
                #                                                       #
                #        Max Planck Institute fuer Kohlenforschung      #
                #                Kaiser Wilhelm Platz 1                 #
                #                 D-45470 Muelheim/Ruhr                 #
                #                      Germany                          #
                #                                                       #
                #                  All rights reserved                  #
                #                        -***-                          #
                #########################################################


                         Program Version 6.0.0  -   RELEASE  -


 With contributions from (in alphabetic order):
   Daniel Aravena         : Magnetic Suceptibility
   Michael Atanasov       : Ab Initio Ligand Field Theory (pilot matlab implementation)
   Alexander A. Auer      : GIAO ZORA, VPT2 properties, NMR spectrum
   Ute Becker             : All parallelization in ORCA, NUMFREQ, NUMCALC
   Giovanni Bistoni       : ED, misc. LED, open-shell LED, HFLD
   Martin Brehm           : Molecular dynamics
   Dmytro Bykov           : pre 5.0 version of the SCF Hessian
   Marcos Casanova-Páez   : Triplet and SCS-CIS(D). UHF-(DLPNO)-IP/EA/STEOM-CCSD. UHF-CVS-IP/STEOM-CCSD
   Vijay G. Chilkuri      : MRCI spin determinant printing, contributions to CSF-ICE
   Pauline Colinet        : FMM embedding
   Dipayan Datta          : RHF DLPNO-CCSD density
   Achintya Kumar Dutta   : EOM-CC, STEOM-CC
   Nicolas Foglia         : Exact transition moments, OPA infrastructure, MCD improvements
   Dmitry Ganyushin       : Spin-Orbit,Spin-Spin,Magnetic field MRCI
   Miquel Garcia          : C-PCM and meta-GGA Hessian, CCSD/C-PCM, Gaussian charge scheme
   Tiago L. C. Gouveia    : GS-ROHF, GS-ROCIS
   Yang Guo               : DLPNO-NEVPT2, F12-NEVPT2, CIM, IAO-localization
   Andreas Hansen         : Spin unrestricted coupled pair/coupled cluster methods
   Ingolf Harden          : AUTO-CI MPn and infrastructure 
   Benjamin Helmich-Paris : MC-RPA, TRAH-(SCF,CASSCF), AVAS, COSX integrals, SCF dyn. polar.
   Lee Huntington         : MR-EOM, pCC
   Robert Izsak           : Overlap fitted RIJCOSX, COSX-SCS-MP3, EOM
   Riya Kayal             : Wick's Theorem for AUTO-CI, AUTO-CI UHF-CCSDT
   Emily Kempfer          : AUTO-CI, RHF CISDT and CCSDT
   Christian Kollmar      : KDIIS, OOCD, Brueckner-CCSD(T), CCSD density, CASPT2, CASPT2-K, improved NEVPT2
   Axel Koslowski         : Symmetry handling
   Simone Kossmann        : Meta GGA functionals, TD-DFT gradient, OOMP2, (MP2 Hessian; deprecated post 5.0)
   Lucas Lang             : DCDCAS
   Marvin Lechner         : AUTO-CI (C++ implementation), FIC-MRCC
   Spencer Leger          : CASSCF response
   Dagmar Lenk            : GEPOL surface, SMD, ORCA-2-JSON
   Dimitrios Liakos       : Extrapolation schemes; Compound Job, initial MDCI parallelization
   Dimitrios Manganas     : Further ROCIS development; embedding schemes. LFT, Crystal Embedding
   Dimitrios Pantazis     : SARC Basis sets
   Anastasios Papadopoulos: AUTO-CI, single reference methods and gradients
   Taras Petrenko         : pre 6.0 DFT Hessian and TD-DFT gradient, (ASA, deprecated), ECA, 1-Electron XAS/XES, NRVS
   Peter Pinski           : DLPNO-MP2, DLPNO-MP2 Gradient
   Christoph Reimann      : Effective Core Potentials
   Marius Retegan         : Local ZFS, SOC
   Christoph Riplinger    : Optimizer, TS searches, QM/MM, DLPNO-CCSD(T), (RO)-DLPNO pert. Triples
   Michael Roemelt        : Original ROCIS implementation
   Masaaki Saitow         : Open-shell DLPNO-CCSD energy and density
   Barbara Sandhoefer     : DKH picture change effects
   Kantharuban Sivalingam : CASSCF convergence/infrastructure, NEVPT2 and variants, FIC-MRCI
   Bernardo de Souza      : ESD, SOC TD-DFT
   Georgi Stoychev        : AutoAux, RI-MP2 NMR, DLPNO-MP2 response, X2C
   Van Anh Tran           : RI-MP2 g-tensors
   Willem Van den Heuvel  : Paramagnetic NMR
   Zikuan Wang            : NOTCH, Electric field optimization 
   Frank Wennmohs         : Technical directorship and infrastructure
   Hang Xu                : AUTO-CI-Response properties 


 We gratefully acknowledge several colleagues who have allowed us to
 interface, adapt or use parts of their codes:
   Stefan Grimme, W. Hujo, H. Kruse, P. Pracht,  : VdW corrections, initial TS optimization,
                  C. Bannwarth, S. Ehlert,         DFT functionals, gCP, sTDA/sTD-DF
                  L. Wittmann, M. Mueller
   Ed Valeev, F. Pavosevic, A. Kumar             : LibInt (2-el integral package), F12 methods
   Garnet Chan, S. Sharma, J. Yang, R. Olivares  : DMRG
   Ulf Ekstrom                                   : XCFun DFT Library
   Mihaly Kallay                                 : mrcc  (arbitrary order and MRCC methods)
   Frank Weinhold                                : gennbo (NPA and NBO analysis)
   Simon Mueller                                 : openCOSMO-RS
   Christopher J. Cramer and Donald G. Truhlar   : smd solvation model
   Lars Goerigk                                  : TD-DFT with DH, B97 family of functionals
   V. Asgeirsson, H. Jonsson                     : NEB implementation
   FAccTs GmbH                                   : IRC, NEB, NEB-TS, DLPNO-Multilevel, CI-OPT
                                                   MM, QMMM, 2- and 3-layer-ONIOM, Crystal-QMMM,
                                                   LR-CPCM, SF, NACMEs, symmetry and pop. for TD-DFT,
                                                   nearIR, NL-DFT gradient (VV10), updates on ESD,
                                                   ML-optimized integration grids, MBIS, APM,
                                                   GOAT, DOCKER, SOLVATOR, interface openCOSMO-RS
   S Lehtola, MJT Oliveira, MAL Marques          : LibXC Library
   Liviu Ungur et al                             : ANISO software


 Your calculation uses the libint2 library for the computation of 2-el integrals
 For citations please refer to: http://libint.valeyev.net

 Your ORCA version has been built with support for libXC version: 6.2.2
 For citations please refer to: https://libxc.gitlab.io

 This ORCA versions uses:
   CBLAS   interface :  Fast vector & matrix operations
   LAPACKE interface :  Fast linear algebra routines
   SCALAPACK package :  Parallel linear algebra routines
   Shared memory     :  Shared parallel matrices
   BLAS/LAPACK       :  OpenBLAS 0.3.27  USE64BITINT DYNAMIC_ARCH NO_AFFINITY SkylakeX SINGLE_THREADED
        Core in use  :  SkylakeX
   Copyright (c) 2011-2014, The OpenBLAS Project




***************************************
The coordinates will be read from file: xtb_opt.xyz
***************************************


Your calculation utilizes the geometrical counterpoise correction gCP
Please cite in your paper:
H.Kruse, S. Grimme J.Chem.Phys., 136, (2012), 154101 
   

Your calculation utilizes the atom-pairwise dispersion correction
based on EEQ partial charges (D4)


Your calculation utilizes the SMD solvation module
Please cite in your paper:
A.V. Marenich, C.J. Cramer, D.G. Truhlar J. Phys. Chem. B, 113, (2009), 6378 

================================================================================

----- Orbital basis set information -----
Your calculation utilizes the basis: def2-mTZVPP
   Stefan Grimme, Andreas Hansen, Sebastian Ehlert, and Jan-Michael Mewes 
   J. Chem. Phys. 154, 064103 (2021). DOI: 10.1063/5.0040021

----- AuxJ basis set information -----
Your calculation utilizes the auxiliary basis: def2/J
   F. Weigend, Phys. Chem. Chem. Phys. 8, 1057 (2006).

================================================================================
                                        WARNINGS
                       Please study these warnings very carefully!
================================================================================

WARNING: Old DensityContainer found on disk!
         Will remove this file - 
         If you want to keep old densities, please start your calculation with a different basename. 

Using LibXC functional ID 497 : Re-regularized SCAN exchange by Furness et al
[ 1]  J. W. Furness, A. D. Kaplan, J. Ning, J. P. Perdew, and J. Sun.,  J. Phys. Chem. Lett. 11, 8208-8215 (2020)
[ 2]  J. W. Furness, A. D. Kaplan, J. Ning, J. P. Perdew, and J. Sun.,  J. Phys. Chem. Lett. 11, 9248-9248 (2020)
Using LibXC functional ID 498 : Re-regularized SCAN correlation by Furness et al
[ 1]  J. W. Furness, A. D. Kaplan, J. Ning, J. P. Perdew, and J. Sun.,  J. Phys. Chem. Lett. 11, 8208-8215 (2020)
[ 2]  J. W. Furness, A. D. Kaplan, J. Ning, J. P. Perdew, and J. Sun.,  J. Phys. Chem. Lett. 11, 9248-9248 (2020)
Using LibXC functional ID 497 : Re-regularized SCAN exchange by Furness et al
[ 1]  J. W. Furness, A. D. Kaplan, J. Ning, J. P. Perdew, and J. Sun.,  J. Phys. Chem. Lett. 11, 8208-8215 (2020)
[ 2]  J. W. Furness, A. D. Kaplan, J. Ning, J. P. Perdew, and J. Sun.,  J. Phys. Chem. Lett. 11, 9248-9248 (2020)
Using LibXC functional ID 498 : Re-regularized SCAN correlation by Furness et al
[ 1]  J. W. Furness, A. D. Kaplan, J. Ning, J. P. Perdew, and J. Sun.,  J. Phys. Chem. Lett. 11, 8208-8215 (2020)
[ 2]  J. W. Furness, A. D. Kaplan, J. Ning, J. P. Perdew, and J. Sun.,  J. Phys. Chem. Lett. 11, 9248-9248 (2020)

================================================================================
                                       INPUT FILE
================================================================================
NAME = xtb_opt.inp
|  1> ! r2scan-3c def2/J RI DEFGRID2 scfconv7 ENGRAD tightSCF miniprint
|  2> %cpcm
|  3>     smd true
|  4>     smdsolvent "water"
|  5> end
|  6> * xyzfile 0 1 xtb_opt.xyz
|  7> 
|  8>                          ****END OF INPUT****
================================================================================

                     *******************************
                     * Energy+Gradient Calculation *
                     *******************************

---------------------------------
CARTESIAN COORDINATES (ANGSTROEM)
---------------------------------
  C     -0.000008   -0.133110   -0.000022
  C     -1.238118    0.743673   -0.112115
  Cl    -2.726219   -0.284837   -0.250495
  C      1.238077    0.743675    0.112247
  Cl     2.726209   -0.284817    0.250427
  H     -0.079969   -0.772876    0.883314
  H      0.079957   -0.772625   -0.883529
  H     -1.370004    1.370328    0.771471
  H     -1.207400    1.372968   -1.003156
  H      1.207370    1.372838    1.003384
  H      1.369924    1.370494   -0.771247

----------------------------
CARTESIAN COORDINATES (A.U.)
----------------------------
  NO LB      ZA    FRAG     MASS         X           Y           Z
   0 C     6.0000    0    12.011   -0.000016   -0.251542   -0.000041
   1 C     6.0000    0    12.011   -2.339703    1.405337   -0.211867
   2 Cl   17.0000    0    35.453   -5.151808   -0.538264   -0.473367
   3 C     6.0000    0    12.011    2.339626    1.405342    0.212116
   4 Cl   17.0000    0    35.453    5.151788   -0.538227    0.473239
   5 H     1.0000    0     1.008   -0.151119   -1.460524    1.669221
   6 H     1.0000    0     1.008    0.151097   -1.460050   -1.669628
   7 H     1.0000    0     1.008   -2.588932    2.589545    1.457869
   8 H     1.0000    0     1.008   -2.281656    2.594533   -1.895690
   9 H     1.0000    0     1.008    2.281599    2.594287    1.896120
  10 H     1.0000    0     1.008    2.588781    2.589859   -1.457445

------------------------------------------------------------------------------
                   ___                                                        
                  /   \      - P O W E R E D   B Y -                         
                 /     \                                                     
                 |  |  |   _    _      __       _____    __    __             
                 |  |  |  | |  | |    /  \     |  _  \  |  |  /  |          
                  \  \/   | |  | |   /    \    | | | |  |  | /  /          
                 / \  \   | |__| |  /  /\  \   | |_| |  |  |/  /          
                |  |  |   |  __  | /  /__\  \  |    /   |      \           
                |  |  |   | |  | | |   __   |  |    \   |  |\   \          
                \     /   | |  | | |  |  |  |  | |\  \  |  | \   \       
                 \___/    |_|  |_| |__|  |__|  |_| \__\ |__|  \__/        
                                                                              
                      - O R C A' S   B I G   F R I E N D -                    
                                      &                                       
                       - I N T E G R A L  F E E D E R -                       
                                                                              
 v1 FN, 2020, v2 2021, v3 2022-2024                                           
------------------------------------------------------------------------------


----------------------
SHARK INTEGRAL PACKAGE
----------------------

Number of atoms                             ...     11
Number of basis functions                   ...    141
Number of shells                            ...     67
Maximum angular momentum                    ...      2
Integral batch strategy                     ... SHARK/LIBINT Hybrid
RI-J (if used) integral strategy            ... SPLIT-RIJ (Revised 2003 algorithm where possible)
Printlevel                                  ...      1
Contraction scheme used                     ... SEGMENTED contraction
Prescreening option                         ... SCHWARTZ
   Thresh                                   ... 3.000e-11
   Tcut                                     ... 1.000e-12
   Tpresel                                  ... 1.000e-12 
Coulomb Range Separation                    ... NOT USED
Exchange Range Separation                   ... NOT USED
Multipole approximations                    ... NOT USED
Finite Nucleus Model                        ... NOT USED
CABS basis                                  ... NOT available
Auxiliary Coulomb fitting basis             ... AVAILABLE
   # of basis functions in Aux-J            ...    315
   # of shells in Aux-J                     ...    109
   Maximum angular momentum in Aux-J        ...      4
Auxiliary J/K fitting basis                 ... NOT available
Auxiliary Correlation fitting basis         ... NOT available
Auxiliary 'external' fitting basis          ... NOT available

Checking pre-screening integrals            ... done (  0.0 sec) Dimension = 67
Check shell pair data                       ... done (  0.0 sec)
Shell pair information
Shell pair cut-off parameter TPreSel        ...   1.0e-12
Total number of shell pairs                 ...      2278
Shell pairs after pre-screening             ...      2098
Total number of primitive shell pairs       ...      9209
Primitive shell pairs kept                  ...      6170
          la=0 lb=0:    632 shell pairs
          la=1 lb=0:    787 shell pairs
          la=1 lb=1:    260 shell pairs
          la=2 lb=0:    237 shell pairs
          la=2 lb=1:    155 shell pairs
          la=2 lb=2:     27 shell pairs

Calculating one electron integrals          ... done (  0.0 sec)
Calculating RI/J V-Matrix + Cholesky decomp.... done (  0.0 sec)
Calculating Nuclear repulsion               ... done (  0.0 sec) ENN=    258.316197388773 Eh

Diagonalization of the overlap matrix:
Smallest eigenvalue                        ... 4.224e-04
Time for diagonalization                   ...    0.002 sec
Threshold for overlap eigenvalues          ... 1.000e-07
Number of eigenvalues below threshold      ... 0
Time for construction of square roots      ...    0.013 sec
Total time needed                          ...    0.025 sec

-------------------
DFT GRID GENERATION
-------------------

General Integration Accuracy     IntAcc      ... 4.388
Radial Grid Type                 RadialGrid  ... OptM3 with GC (2021)
Angular Grid (max. ang.)         AngularGrid ... 4 (Lebedev-302)
Angular grid pruning method      GridPruning ... 4 (adaptive)
Weight generation scheme         WeightScheme... mBecke (2022)
Basis function cutoff            BFCut       ... 1.0000e-11
Integration weight cutoff        WCut        ... 1.0000e-14
Partially contracted basis set               ... off
Rotationally invariant grid construction     ... off
Angular grids for H and He will be reduced by one unit

Total number of grid points                  ...    52152
Total number of batches                      ...      821
Average number of points per batch           ...       63
Average number of grid points per atom       ...     4741
Initializing property integral containers    ... done (  0.0 sec)

SHARK setup successfully completed in   0.9 seconds

Maximum memory used throughout the entire STARTUP-calculation: 23.6 MB
Occupation numbers will be reassigned to an Aufbau configuration
             **** ENERGY FILE WAS UPDATED (xtb_opt.en.tmp) ****
Finished Guess after   0.3 sec
Maximum memory used throughout the entire GUESS-calculation: 9.7 MB
--------------------
CPCM SOLVATION MODEL
--------------------
CPCM parameters:
  Epsilon                                         ...      78.3550
  Refrac                                          ...       1.3328
  Rsolv                                           ...       1.3000
  Surface type                                    ... GAUSSIAN VDW
  Discretization scheme                           ... Constant charge density
    Threshold for H atoms                         ...       5.0000 (charges/Ang^2)
    Threshold for non-H atoms                     ...       5.0000 (charges/Ang^2)
  Epsilon function type                           ...         CPCM
Solvent:                                          ... WATER
SMD-CDS solvent descriptors:
  Soln                                            ...       1.3328
  Soln25                                          ...       1.3323
  Sola                                            ...       0.0000
  Solb                                            ...       0.0000
  Solg                                            ...       0.0000
  Solc                                            ...       0.0000
  Solh                                            ...       0.0000
Radii:
  Scheme                                          ... Element-dependent radii
  Radius for C  used is    3.4960 Bohr (=   1.8500 Ang.)
  Radius for Cl used is    4.4975 Bohr (=   2.3800 Ang.)
  Radius for H  used is    2.2677 Bohr (=   1.2000 Ang.)
Calculating surface                               ...        done! (  0.0s)
Cavity surface points                             ...         1069
Cavity Volume                                     ...     974.5245
Cavity Surface-area                               ...     571.6308
Calculating surface distance matrix               ...        done! (  0.0s)
Performing Cholesky decomposition & store         ...        done! (  0.1s)
Overall time for CPCM initialization              ...                 0.1s

----------------------------------------D-I-I-S--------------------------------------------
Iteration    Energy (Eh)           Delta-E    RMSDP     MaxDP     DIISErr   Damp  Time(sec)
-------------------------------------------------------------------------------------------
               ***  Starting incremental Fock matrix formation  ***
    1    -1038.2648526989137281     0.00e+00  6.02e-05  6.25e-04  4.42e-03  0.700   1.7
    2    -1038.2649201090905535    -6.74e-05  5.61e-05  5.53e-04  3.46e-03  0.700   1.5
                               ***Turning on AO-DIIS***
                              *** Initializing SOSCF ***
---------------------------------------S-O-S-C-F--------------------------------------
Iteration    Energy (Eh)           Delta-E    RMSDP     MaxDP     MaxGrad    Time(sec)
--------------------------------------------------------------------------------------
    3    -1038.2649682973235485    -4.82e-05  1.48e-04  1.70e-03  2.54e-03     1.3
               *** Restarting incremental Fock matrix formation ***
    4    -1038.2650785063156036    -1.10e-04  3.53e-05  5.71e-04  3.65e-04     1.7
    5    -1038.2650763494982584     2.16e-06  2.29e-05  3.26e-04  5.60e-04     1.5
    6    -1038.2650802365153595    -3.89e-06  3.21e-06  6.81e-05  1.73e-05     1.6
                  *** Gradient check signals convergence ***

               *****************************************************
               *                     SUCCESS                       *
               *           SCF CONVERGED AFTER   6 CYCLES          *
               *****************************************************


SMD CDS free energy correction energy :                 2.15770     Kcal/mol
Total Energy after SMD CDS correction =             -1038.261641726 Eh
             **** ENERGY FILE WAS UPDATED (xtb_opt.en.tmp) ****

----------------
TOTAL SCF ENERGY
----------------

Total Energy       :      -1038.26164172637482 Eh          -28252.53560 eV

Components:
Nuclear Repulsion  :        258.31619738877299 Eh            7029.14109 eV
Electronic Energy  :      -1296.56852261001586 Eh          -35281.42317 eV
One Electron Energy:      -1942.03792078963033 Eh          -52845.53844 eV
Two Electron Energy:        645.46939817961436 Eh           17564.11527 eV
CPCM Dielectric    :         -0.01275501527238 Eh              -0.34708 eV
SMD CDS (Gcds)     :          0.00343851014043 Eh               0.09357 eV

Virial components:
Potential Energy   :      -2073.75989908797646 Eh          -56429.87569 eV
Kinetic Energy     :       1035.49825736160165 Eh           28177.34009 eV
Virial Ratio       :          2.00266865187375

DFT components:
N(Alpha)           :       28.999992906845 electrons
N(Beta)            :       28.999992906845 electrons
N(Total)           :       57.999985813689 electrons
E(X)               :      -72.820137451626 Eh       
E(C)               :       -2.063671314363 Eh       
E(XC)              :      -74.883808765989 Eh       

CPCM Solvation Model Properties:
Surface-charge          :         -0.01538658332048
Corrected charge        :         -0.00000000000000
Outlying charge corr.   :          0.00001758026560 Eh               0.00048 eV
Free-energy (cav+disp)  :          0.00343851014043 Eh               0.09357 eV

---------------
SCF CONVERGENCE
---------------

  Last Energy change         ...    3.8870e-06  Tolerance :   1.0000e-07
  Last MAX-Density change    ...    6.8141e-05  Tolerance :   1.0000e-07
  Last RMS-Density change    ...    3.2140e-06  Tolerance :   5.0000e-09
  Last DIIS Error            ...    2.5439e-03  Tolerance :   1.0000e-07
  Last Orbital Gradient      ...    1.7332e-05  Tolerance :   1.0000e-04
  Last Orbital Rotation      ...    2.8577e-05  Tolerance :   1.0000e-04


----------------
ORBITAL ENERGIES
----------------

  NO   OCC          E(Eh)            E(eV) 
   0   2.0000    -101.204511     -2753.9148 
   1   2.0000    -101.204510     -2753.9147 
   2   2.0000     -10.089631      -274.5528 
   3   2.0000     -10.089628      -274.5527 
   4   2.0000     -10.042942      -273.2823 
   5   2.0000      -9.360329      -254.7075 
   6   2.0000      -9.360327      -254.7074 
   7   2.0000      -7.106343      -193.3734 
   8   2.0000      -7.106343      -193.3734 
   9   2.0000      -7.096521      -193.1062 
  10   2.0000      -7.096521      -193.1061 
  11   2.0000      -7.096497      -193.1055 
  12   2.0000      -7.096497      -193.1055 
  13   2.0000      -0.827926       -22.5290 
  14   2.0000      -0.807522       -21.9738 
  15   2.0000      -0.722765       -19.6674 
  16   2.0000      -0.618923       -16.8417 
  17   2.0000      -0.565346       -15.3838 
  18   2.0000      -0.459647       -12.5076 
  19   2.0000      -0.415868       -11.3163 
  20   2.0000      -0.410602       -11.1731 
  21   2.0000      -0.399854       -10.8806 
  22   2.0000      -0.356258        -9.6943 
  23   2.0000      -0.344496        -9.3742 
  24   2.0000      -0.325473        -8.8566 
  25   2.0000      -0.281452        -7.6587 
  26   2.0000      -0.270905        -7.3717 
  27   2.0000      -0.267196        -7.2708 
  28   2.0000      -0.262726        -7.1491 
  29   0.0000      -0.021862        -0.5949 
  30   0.0000       0.035625         0.9694 
  31   0.0000       0.105424         2.8687 
  32   0.0000       0.106865         2.9080 
  33   0.0000       0.145517         3.9597 
  34   0.0000       0.148793         4.0489 
  35   0.0000       0.164771         4.4837 
  36   0.0000       0.176205         4.7948 
  37   0.0000       0.186028         5.0621 
  38   0.0000       0.187664         5.1066 
  39   0.0000       0.215717         5.8700 
*Only the first 10 virtual orbitals were printed.
Total SCF time: 0 days 0 hours 0 min 9 sec 
Finished LeanSCF after  10.0 sec

Maximum memory used throughout the entire LEANSCF-calculation: 16.6 MB


-------------------------------------------------------------------------------
                          DFT DISPERSION CORRECTION                            
                                                                               
                                DFTD4 V3.4.0                                   
-------------------------------------------------------------------------------
-------------------------   ----------------
Dispersion correction           -0.002747680
-------------------------   ----------------

------------------   -----------------
gCP correction             0.009446891
------------------   -----------------

-------------------------   --------------------
FINAL SINGLE POINT ENERGY     -1038.254942515291
-------------------------   --------------------

------------------------------------------------------------------------------
                         ORCA SCF GRADIENT CALCULATION
------------------------------------------------------------------------------

Nuc. rep. gradient        (SHARK) ... done (  0.0 sec)
HCore & Overlap gradient  (SHARK) ... done (  0.1 sec)
Split-RIJ-J gradient      (SHARK) ... done (  0.6 sec)
XC gradient                       ... done (  2.4 sec)
CPCM gradient                     ... done (  0.4 sec)
SMD gradient                      ... done (  0.0 sec)
Dispersion correction             ... done (  0.0 sec)

-------------------
DISPERSION GRADIENT
-------------------

   1   C   :   -0.000000000   -0.000007818   -0.000000001
   2   C   :   -0.000036489    0.000017786   -0.000003307
   3   Cl  :   -0.000111295   -0.000020184   -0.000010216
   4   C   :    0.000036489    0.000017787    0.000003310
   5   Cl  :    0.000111295   -0.000020183    0.000010213
   6   H   :   -0.000000597   -0.000008319    0.000006816
   7   H   :    0.000000597   -0.000008317   -0.000006818
   8   H   :   -0.000023143    0.000007308    0.000003657
   9   H   :   -0.000022086    0.000007316   -0.000007750
  10   H   :    0.000022086    0.000007315    0.000007751
  11   H   :    0.000023143    0.000007309   -0.000003655

Difference to translation invariance:
           :   -0.0000000000    0.0000000000    0.0000000000

Difference to rotation invariance:
           :   -0.0000000000   -0.0000000000    0.0000000000

Norm of the Dispersion gradient    ...    0.0001783669
RMS gradient                       ...    0.0000310497
MAX gradient                       ...    0.0001112954
gCP correction                   ... done

------------------
CARTESIAN GRADIENT
------------------

   1   C   :    0.000002478    0.000435430   -0.000002059
   2   C   :   -0.007526090   -0.003134358   -0.000697750
   3   Cl  :    0.004920231    0.002923261    0.000491163
   4   C   :    0.007523497   -0.003142654    0.000704157
   5   Cl  :   -0.004919518    0.002922909   -0.000490297
   6   H   :    0.000014611    0.000372306   -0.000357436
   7   H   :   -0.000016091    0.000377985    0.000359875
   8   H   :    0.000520527   -0.000170056   -0.000382227
   9   H   :    0.000418879   -0.000211369    0.000396786
  10   H   :   -0.000416957   -0.000208314   -0.000397434
  11   H   :   -0.000521567   -0.000165140    0.000375222

Difference to translation invariance:
           :   -0.0000000000   -0.0000000000    0.0000000000

Difference to rotation invariance:
           :    0.0000003156    0.0000379024   -0.0000000536

Norm of the Cartesian gradient     ...    0.0142224009
RMS gradient                       ...    0.0024758022
MAX gradient                       ...    0.0075260895

-------
TIMINGS
-------

Total SCF gradient time     ....        3.842 sec

Densities                   ....       0.000 sec  (  0.0%)
One electron gradient       ....       0.084 sec  (  2.2%)
RI-J Coulomb gradient       ....       0.627 sec  ( 16.3%)
XC gradient                 ....       2.400 sec  ( 62.5%)
CPCM gradient               ....       0.360 sec  (  9.4%)
   A-Matrix (El+Nuc)        ....       0.036 sec  (  0.9%)
   Potential                ....       0.325 sec  (  8.4%)
SMD gradient                ....       0.014 sec  (  0.4%)

Maximum memory used throughout the entire SCFGRAD-calculation: 29.7 MB

------------------------------------------------------------------------------
[...]
               *****************************************************


SMD CDS free energy correction energy :                 2.16012     Kcal/mol
Total Energy after SMD CDS correction =             -1038.261761076 Eh
             **** ENERGY FILE WAS UPDATED (xtb_opt.en.tmp) ****

----------------
TOTAL SCF ENERGY
----------------

Total Energy       :      -1038.26176107606580 Eh          -28252.53885 eV

Components:
Nuclear Repulsion  :        257.22139769638835 Eh            6999.35007 eV
Electronic Energy  :      -1295.47318608368550 Eh          -35251.61755 eV
One Electron Energy:      -1939.85959588788569 Eh          -52786.26321 eV
Two Electron Energy:        644.38640980420007 Eh           17534.64565 eV
CPCM Dielectric    :         -0.01341505332318 Eh              -0.36504 eV
SMD CDS (Gcds)     :          0.00344236455476 Eh               0.09367 eV

Virial components:
Potential Energy   :      -2073.71924137398173 Eh          -56428.76934 eV
Kinetic Energy     :       1035.45748029791594 Eh           28176.23049 eV
Virial Ratio       :          2.00270825295245

DFT components:
N(Alpha)           :       28.999995694289 electrons
N(Beta)            :       28.999995694289 electrons
N(Total)           :       57.999991388577 electrons
E(X)               :      -72.810257327552 Eh       
E(C)               :       -2.062425490257 Eh       
E(XC)              :      -74.872682817809 Eh       

CPCM Solvation Model Properties:
Surface-charge          :         -0.01532747513430
Corrected charge        :         -0.00000000000000
Outlying charge corr.   :          0.00001742043999 Eh               0.00047 eV
Free-energy (cav+disp)  :          0.00344236455476 Eh               0.09367 eV

---------------
SCF CONVERGENCE
---------------

  Last Energy change         ...    7.9513e-10  Tolerance :   1.0000e-07
  Last MAX-Density change    ...    1.0607e-05  Tolerance :   1.0000e-07
  Last RMS-Density change    ...    5.0152e-07  Tolerance :   5.0000e-09
  Last DIIS Error            ...    1.5835e-05  Tolerance :   1.0000e-07
  Last Orbital Gradient      ...    4.3421e-06  Tolerance :   1.0000e-04
  Last Orbital Rotation      ...    7.6137e-06  Tolerance :   1.0000e-04


----------------
ORBITAL ENERGIES
----------------

  NO   OCC          E(Eh)            E(eV) 
   0   2.0000    -101.203669     -2753.8918 
   1   2.0000    -101.203667     -2753.8918 
   2   2.0000     -10.091439      -274.6020 
   3   2.0000     -10.091437      -274.6020 
   4   2.0000     -10.044143      -273.3150 
   5   2.0000      -9.359229      -254.6776 
   6   2.0000      -9.359227      -254.6775 
   7   2.0000      -7.105242      -193.3435 
   8   2.0000      -7.105242      -193.3435 
   9   2.0000      -7.095459      -193.0773 
  10   2.0000      -7.095459      -193.0773 
  11   2.0000      -7.095433      -193.0766 
  12   2.0000      -7.095433      -193.0766 
  13   2.0000      -0.824900       -22.4467 
  14   2.0000      -0.802756       -21.8441 
  15   2.0000      -0.724522       -19.7152 
  16   2.0000      -0.619592       -16.8600 
  17   2.0000      -0.566124       -15.4050 
  18   2.0000      -0.460658       -12.5351 
  19   2.0000      -0.414676       -11.2839 
  20   2.0000      -0.409340       -11.1387 
  21   2.0000      -0.399211       -10.8631 
  22   2.0000      -0.352585        -9.5943 
  23   2.0000      -0.345519        -9.4020 
  24   2.0000      -0.326081        -8.8731 
  25   2.0000      -0.281003        -7.6465 
  26   2.0000      -0.271161        -7.3787 
  27   2.0000      -0.267393        -7.2761 
  28   2.0000      -0.263338        -7.1658 
  29   0.0000      -0.029068        -0.7910 
  30   0.0000       0.030552         0.8314 
  31   0.0000       0.105265         2.8644 
  32   0.0000       0.106326         2.8933 
  33   0.0000       0.144578         3.9342 
  34   0.0000       0.147694         4.0190 
  35   0.0000       0.167179         4.5492 
  36   0.0000       0.175941         4.7876 
  37   0.0000       0.186910         5.0861 
  38   0.0000       0.188939         5.1413 
  39   0.0000       0.216033         5.8785 
*Only the first 10 virtual orbitals were printed.
Total SCF time: 0 days 0 hours 0 min 3 sec 
Finished LeanSCF after   4.1 sec

Maximum memory used throughout the entire LEANSCF-calculation: 16.7 MB


-------------------------------------------------------------------------------
                          DFT DISPERSION CORRECTION                            
                                                                               
                                DFTD4 V3.4.0                                   
-------------------------------------------------------------------------------
-------------------------   ----------------
Dispersion correction           -0.002743822
-------------------------   ----------------

------------------   -----------------
gCP correction             0.009257271
------------------   -----------------

-------------------------   --------------------
FINAL SINGLE POINT ENERGY     -1038.255247627120
-------------------------   --------------------

------------------------------------------------------------------------------
                         ORCA SCF GRADIENT CALCULATION
------------------------------------------------------------------------------

Nuc. rep. gradient        (SHARK) ... done (  0.0 sec)
HCore & Overlap gradient  (SHARK) ... done (  0.1 sec)
Split-RIJ-J gradient      (SHARK) ... done (  0.6 sec)
XC gradient                       ... done (  2.4 sec)
CPCM gradient                     ... done (  0.4 sec)
SMD gradient                      ... done (  0.0 sec)
Dispersion correction             ... done (  0.0 sec)

-------------------
DISPERSION GRADIENT
-------------------

   1   C   :    0.000000000   -0.000008166   -0.000000001
   2   C   :   -0.000035150    0.000017620   -0.000003121
   3   Cl  :   -0.000110906   -0.000019652   -0.000010346
   4   C   :    0.000035150    0.000017621    0.000003124
   5   Cl  :    0.000110907   -0.000019652    0.000010343
   6   H   :   -0.000000551   -0.000008529    0.000006904
   7   H   :    0.000000552   -0.000008527   -0.000006907
   8   H   :   -0.000022836    0.000007298    0.000003698
   9   H   :   -0.000021729    0.000007344   -0.000007651
  10   H   :    0.000021729    0.000007343    0.000007652
  11   H   :    0.000022835    0.000007300   -0.000003697

Difference to translation invariance:
           :    0.0000000000    0.0000000000   -0.0000000000

Difference to rotation invariance:
           :   -0.0000000000    0.0000000000   -0.0000000000

Norm of the Dispersion gradient    ...    0.0001770665
RMS gradient                       ...    0.0000308233
MAX gradient                       ...    0.0001109066
gCP correction                   ... done

------------------
CARTESIAN GRADIENT
------------------

   1   C   :   -0.000000215   -0.000094354   -0.000000837
   2   C   :    0.000330977    0.000388081    0.000014807
   3   Cl  :   -0.000018014    0.000006466    0.000022974
   4   C   :   -0.000330819    0.000387591   -0.000013682
   5   Cl  :    0.000018379    0.000006258   -0.000022737
   6   H   :   -0.000001007    0.000018384   -0.000112137
   7   H   :    0.000000564    0.000018810    0.000112736
   8   H   :    0.000004643   -0.000161610   -0.000063132
   9   H   :   -0.000020065   -0.000204618    0.000035007
  10   H   :    0.000020133   -0.000204490   -0.000034808
  11   H   :   -0.000004574   -0.000160518    0.000061809

Difference to translation invariance:
           :   -0.0000000000   -0.0000000000    0.0000000000

Difference to rotation invariance:
           :    0.0000003427    0.0000737899   -0.0000001193

Norm of the Cartesian gradient     ...    0.0008387834
RMS gradient                       ...    0.0001460134
MAX gradient                       ...    0.0003880806

-------
TIMINGS
-------

Total SCF gradient time     ....        3.809 sec

Densities                   ....       0.000 sec  (  0.0%)
One electron gradient       ....       0.085 sec  (  2.2%)
RI-J Coulomb gradient       ....       0.604 sec  ( 15.9%)
XC gradient                 ....       2.357 sec  ( 61.9%)
CPCM gradient               ....       0.350 sec  (  9.2%)
   A-Matrix (El+Nuc)        ....       0.034 sec  (  0.9%)
   Potential                ....       0.316 sec  (  8.3%)
SMD gradient                ....       0.032 sec  (  0.8%)

Maximum memory used throughout the entire SCFGRAD-calculation: 29.7 MB

------------------------------------------------------------------------------
                              ORCA PROPERTY CALCULATIONS
------------------------------------------------------------------------------

GBWName                                 ... xtb_opt.gbw
Number of atoms                         ...     11
Number of basis functions               ...    141
Max core memory                         ...   1024 MB

Electric properties:
Dipole moment                           ... YES
Quadrupole moment                       ...  NO
Static polarizability (Dipole/Dipole)   ...  NO
Static polarizability (Dipole/Quad.)    ...  NO
Static polarizability (Quad./Quad.)     ...  NO
Static polarizability (Velocity)        ...  NO

Atomic electric properties:
Dipole moment                           ...  NO
Quadrupole moment                       ...  NO
Static polarizability                   ...  NO

Choice of electric origin               ... Center of mass
Position of electric origin             ...    -0.000021     0.012879    -0.000018

General magnetic properties:
Magnetizability                         ...  NO

EPR properties:
g-Tensor (aka g-matrix)                 ...  NO
Zero-Field splitting spin-orbit         ...  NO
Zero-field splitting spin-spin          ...  NO
Hyperfine couplings                     ...  NO (   0 nuclei)
Quadrupole couplings                    ...  NO (   0 nuclei)
Contact density                         ...  NO (   0 nuclei)

NMR properties:
Chemical shifts                         ...  NO (   0 nuclei)
Spin-rotation constants                 ...  NO (   0 nuclei)
Spin-spin couplings                     ...  NO (   0 nuclei,    0 pairs)

Choice of magnetic origin               ... GIAO
Position of magnetic origin             ...     0.000000     0.000000     0.000000

Properties with geometric perturbations:
SCF Hessian                             ...  NO
IR spectrum                             ...  NO
VCD spectrum                            ...  NO
X-ray spectroscopy properties:
SCF XES/XAS/RIXS spectra                ...  NO


-------------
DIPOLE MOMENT
-------------

Method             : SCF
Type of density    : Electron Density
Multiplicity       :   1
Irrep              :   0
Energy             : -1038.2617610760657954 Eh
Relativity type    : 
Basis              : AO
                                X                 Y                 Z
Electronic contribution:      0.000039153      -3.236047610      -0.000262184
Nuclear contribution   :     -0.000053849       4.394466422       0.000362032
                        -----------------------------------------
Total Dipole Moment    :     -0.000014696       1.158418812       0.000099849
                        -----------------------------------------
Magnitude (a.u.)       :      1.158418817
Magnitude (Debye)      :      2.944466631



--------------------
Rotational spectrum 
--------------------
 
Rotational constants in cm-1:             0.517359             0.028769             0.027684 
Rotational constants in MHz :         15510.020509           862.459069           829.934578 

Dipole components along the rotational axes: 
x,y,z [a.u.] :    -0.000001    -1.158419    -0.000003 
x,y,z [Debye]:    -0.000003    -2.944467    -0.000008 

 

Dipole moment calculation done in   0.0 sec 

Maximum memory used throughout the entire PROP-calculation: 7.9 MB

--------------------------------
SUGGESTED CITATIONS FOR THIS RUN
--------------------------------

Below you find a list of papers that are relevant to this ORCA run
We neither can nor want to force you to cite these papers, but we appreciate if you do
You receive ORCA, which is the product of decades of hard work by many enthusiastic individuals, for free
The only thing we kindly ask in return is that you cite our papers,
We deeply appreciate it, if you show your appreciation for ORCA by not just citing the generic ORCA reference.

Please note that relegating all ORCA citations to the supporting information does *not* help us.
SI sections are not indexed - citations you put there will not count into any citation statistics
But we need these citations in order to attract the funding resources that allow us to do what we are doing

Therefore, if you are a happy ORCA user, please consider citing a few of the papers listed below in the main body of your paper

In addition to the list printed below, the program has created the file xtb_opt.bibtex that contains the list in bibtex format
You can import this file easily into all common literature databanks and citation aid programs


List of essential papers. We consider these as the minimum necessary citations

  1. Neese,F.
     Software update: the ORCA program system, version 5.0
     WIRES Comput. Molec. Sci., 2022 12(1)e1606
     doi.org/10.1002/wcms.1606
  2. Grimme,S.; Hansen,A.; Ehlert,S.; Mewes,J.
     r2SCAN-3c: A 'Swiss army knife' composite electronic-structure method
     J. Chem. Phys., 2021 154 064103
     doi.org/10.1063/5.0040021

List of papers to cite with high priority. The work reported in these papers was absolutely
necessary for this run to complete.
Our perspective: the developers of density functionals and basis sets usually get cited in chemistry papers
Good! But without the algorithms to do something with them, the functionals or basis sets would not do anything.
Hence, in our opinion, the algorithm design and method developments papers are equally worthy of getting cited

  1. Neese,F.
     An improvement of the resolution of the identity approximation for the formation of the Coulomb matrix
     J. Comp. Chem., 2003 24(14)1740-1747
     doi.org/10.1002/jcc.10318
  2. Garcia-Rates,M.; Neese,F.
     Effect of the Solute Cavity on the Solvation Energy and its Derivatives within the Framework of the Gaussian Charge Scheme
     J. Comput. Chem., 2020 41 922-939
     doi.org/10.1002/jcc.26139
  3. Neese,F.
     The SHARK Integral Generation and Digestion System
     J. Comp. Chem., 2022  1-16
     doi.org/10.1002/jcc.26942
  4. Lehtola,S.; Steigemann,C.; Oliveira,M.; Marques,M.
     Recent developments in Libxc - A comprehensive library of functionals for density functional theory
     Software X, 2018 7 
     doi.org/10.1016/j.softx.2017.11.002
  5. Caldeweyher,E.; Bannwarth,C.; Grimme,S.
     Extension of the D3 dispersion coefficient model
     J. Chem. Phys., 2017 147 034112-XXXX
     doi.org/10.1063/1.4993215
  6. Caldeweyher,E.; Ehlert,S.; Hansen,A.; Neugebauer,H.; Spicher,S.; Bannwarth,C.; Grimme,S.
     A generally applicable atomic-charge dependent London dispersion correction
     J. Chem. Phys., 2019 150 154122-XXXX
     doi.org/10.1063/1.5090222
  7. Caldeweyher,E.; Mewes,J.; Ehlert,S.; Grimme,S.
     Extension and evaluation of the D4 London-dispersion model for periodic systems
     Phys. Chem. Chem. Phys., 2020 22(16)8499-8512
     doi.org/10.1039/D0CP00502A

List of suggested additional citations. These are papers that are important in the 'surrounding' of 
of this run, or papers that preceded the highly important papers. If you like your results we are grateful for a citation.

  1. Neese,F.
     The ORCA program system
     WIRES Comput. Molec. Sci., 2012 2(1)73-78
     doi.org/10.1002/wcms.81
  2. Neese,F.
     Software update: the ORCA program system, version 4.0
     WIRES Comput. Molec. Sci., 2018 8(1)1-6
     doi.org/10.1002/wcms.1327
  3. Neese,F.; Wennmohs,F.; Becker,U.; Riplinger,C.
     The ORCA quantum chemistry program package
     J. Chem. Phys., 2020 152 Art. No. L224108
     doi.org/10.1063/5.0004608

List of optional additional citations

  1. Neese,F.
     Approximate second-order SCF convergence for spin unrestricted wavefunctions
     Chem. Phys. Lett., 2000 325(1-3)93-98
     doi.org/10.1016/s0009-2614(00)00662-x

Timings for individual modules:

Sum of individual times          ...        9.354 sec (=   0.156 min)
Startup calculation              ...        0.851 sec (=   0.014 min)   9.1 %
SCF iterations                   ...        4.487 sec (=   0.075 min)  48.0 %
Property calculations            ...        0.111 sec (=   0.002 min)   1.2 %
SCF Gradient evaluation          ...        3.905 sec (=   0.065 min)  41.7 %
                             ****ORCA TERMINATED NORMALLY****
TOTAL RUN TIME: 0 days 0 hours 0 minutes 10 seconds 274 msec
  ------------------------------------------------------------------------
          * successful ORCA run, taking over control again...

         :::::::::::::::::::::::::::::::::::::::::::::::::::::
         ::                  ORCA SUMMARY                   ::
         :::::::::::::::::::::::::::::::::::::::::::::::::::::
         :: total energy           -1038.255247627120 Eh    ::
         :: gradient norm              0.000838783364 Eh/a0 ::
         :: HOMO-LUMO gap              0.000000000000 eV    ::
         :::::::::::::::::::::::::::::::::::::::::::::::::::::

           -------------------------------------------------
          |                Property Printout                |
           -------------------------------------------------
           -------------------------------------------------
          |                Geometry Summary                 |
           -------------------------------------------------

      molecular mass/u    :      112.9857274
   center of mass at/Å    :       -0.0000113       0.0068104      -0.0000094
  moments of inertia/u·Å² :        0.3258297E+02   0.5859727E+03   0.6089361E+03
rotational constants/cm⁻¹ :        0.5173756E+00   0.2876863E-01   0.2768375E-01

 * 8 selected distances

     #   Z          #   Z                                           value/Å
     1   6 C        2   6 C                                       1.5177155
     1   6 C        4   6 C                                       1.5177172 (max)
     1   6 C        6   1 H                                       1.0938394
     1   6 C        7   1 H                                       1.0938380
     2   6 C        8   1 H                                       1.0911735 (min)
     2   6 C        9   1 H                                       1.0911897
     4   6 C       10   1 H                                       1.0911900
     4   6 C       11   1 H                                       1.0911761

 * 2 distinct bonds (by element types)

   Z      Z             #   av. dist./Å        max./Å        min./Å
   1 H    6 C           6     1.0920678     1.0938394     1.0911735
   6 C    6 C           2     1.5177163     1.5177172     1.5177155


optimized geometry written to: xtbopt.coord


           -------------------------------------------------
          | TOTAL ENERGY            -1038.255247627120 Eh   |
          | GRADIENT NORM               0.000838783364 Eh/α |
           -------------------------------------------------

------------------------------------------------------------------------
 * finished run on 2025/04/11 at 12:29:09.470     
------------------------------------------------------------------------
 total:
 * wall-time:     0 d,  0 h,  1 min, 23.102 sec
 *  cpu-time:     0 d,  0 h,  0 min,  1.077 sec
 * ratio c/w:     0.013 speedup
 SCF:
 * wall-time:     0 d,  0 h,  0 min, 10.884 sec
 *  cpu-time:     0 d,  0 h,  0 min,  0.371 sec
 * ratio c/w:     0.034 speedup
 ANC optimizer:
 * wall-time:     0 d,  0 h,  1 min, 12.180 sec
 *  cpu-time:     0 d,  0 h,  0 min,  0.673 sec
 * ratio c/w:     0.009 speedup

