
                                 *****************
                                 * O   R   C   A *
                                 *****************

                                            #,                                       
                                            ###                                      
                                            ####                                     
                                            #####                                    
                                            ######                                   
                                           ########,                                 
                                     ,,################,,,,,                         
                               ,,#################################,,                 
                          ,,##########################################,,             
                       ,#########################################, ''#####,          
                    ,#############################################,,   '####,        
                  ,##################################################,,,,####,       
                ,###########''''           ''''###############################       
              ,#####''   ,,,,##########,,,,          '''####'''          '####       
            ,##' ,,,,###########################,,,                        '##       
           ' ,,###''''                  '''############,,,                           
         ,,##''                                '''############,,,,        ,,,,,,###''
      ,#''                                            '''#######################'''  
     '                                                          ''''####''''         
             ,#######,   #######,   ,#######,      ##                                
            ,#'     '#,  ##    ##  ,#'     '#,    #''#        ,####,   ,####,        
            ##       ##  ##   ,#'  ##            #'  '#       #'       #'  '#        
            ##       ##  #######   ##           ,######,      #####,   #    #        
            '#,     ,#'  ##    ##  '#,     ,#' ,#      #,     #,   #   #,  ,#        
             '#######'   ##     ##  '#######'  #'      '#     '####' # '####'        



                #########################################################
                #                        -***-                          #
                #          Department of theory and spectroscopy        #
                #                                                       #
                #                      Frank Neese                      #
                #                                                       #
                #     Directorship, Architecture, Infrastructure        #
                #                    SHARK, DRIVERS                     #
                #        Core code/Algorithms in most modules           #
                #                                                       #
                #        Max Planck Institute fuer Kohlenforschung      #
                #                Kaiser Wilhelm Platz 1                 #
                #                 D-45470 Muelheim/Ruhr                 #
                #                      Germany                          #
                #                                                       #
                #                  All rights reserved                  #
                #                        -***-                          #
                #########################################################


                         Program Version 6.0.0  -   RELEASE  -


 With contributions from (in alphabetic order):
   Daniel Aravena         : Magnetic Suceptibility
   Michael Atanasov       : Ab Initio Ligand Field Theory (pilot matlab implementation)
   Alexander A. Auer      : GIAO ZORA, VPT2 properties, NMR spectrum
   Ute Becker             : All parallelization in ORCA, NUMFREQ, NUMCALC
   Giovanni Bistoni       : ED, misc. LED, open-shell LED, HFLD
   Martin Brehm           : Molecular dynamics
   Dmytro Bykov           : pre 5.0 version of the SCF Hessian
   Marcos Casanova-Páez   : Triplet and SCS-CIS(D). UHF-(DLPNO)-IP/EA/STEOM-CCSD. UHF-CVS-IP/STEOM-CCSD
   Vijay G. Chilkuri      : MRCI spin determinant printing, contributions to CSF-ICE
   Pauline Colinet        : FMM embedding
   Dipayan Datta          : RHF DLPNO-CCSD density
   Achintya Kumar Dutta   : EOM-CC, STEOM-CC
   Nicolas Foglia         : Exact transition moments, OPA infrastructure, MCD improvements
   Dmitry Ganyushin       : Spin-Orbit,Spin-Spin,Magnetic field MRCI
   Miquel Garcia          : C-PCM and meta-GGA Hessian, CCSD/C-PCM, Gaussian charge scheme
   Tiago L. C. Gouveia    : GS-ROHF, GS-ROCIS
   Yang Guo               : DLPNO-NEVPT2, F12-NEVPT2, CIM, IAO-localization
   Andreas Hansen         : Spin unrestricted coupled pair/coupled cluster methods
   Ingolf Harden          : AUTO-CI MPn and infrastructure 
   Benjamin Helmich-Paris : MC-RPA, TRAH-(SCF,CASSCF), AVAS, COSX integrals, SCF dyn. polar.
   Lee Huntington         : MR-EOM, pCC
   Robert Izsak           : Overlap fitted RIJCOSX, COSX-SCS-MP3, EOM
   Riya Kayal             : Wick's Theorem for AUTO-CI, AUTO-CI UHF-CCSDT
   Emily Kempfer          : AUTO-CI, RHF CISDT and CCSDT
   Christian Kollmar      : KDIIS, OOCD, Brueckner-CCSD(T), CCSD density, CASPT2, CASPT2-K, improved NEVPT2
   Axel Koslowski         : Symmetry handling
   Simone Kossmann        : Meta GGA functionals, TD-DFT gradient, OOMP2, (MP2 Hessian; deprecated post 5.0)
   Lucas Lang             : DCDCAS
   Marvin Lechner         : AUTO-CI (C++ implementation), FIC-MRCC
   Spencer Leger          : CASSCF response
   Dagmar Lenk            : GEPOL surface, SMD, ORCA-2-JSON
   Dimitrios Liakos       : Extrapolation schemes; Compound Job, initial MDCI parallelization
   Dimitrios Manganas     : Further ROCIS development; embedding schemes. LFT, Crystal Embedding
   Dimitrios Pantazis     : SARC Basis sets
   Anastasios Papadopoulos: AUTO-CI, single reference methods and gradients
   Taras Petrenko         : pre 6.0 DFT Hessian and TD-DFT gradient, (ASA, deprecated), ECA, 1-Electron XAS/XES, NRVS
   Peter Pinski           : DLPNO-MP2, DLPNO-MP2 Gradient
   Christoph Reimann      : Effective Core Potentials
   Marius Retegan         : Local ZFS, SOC
   Christoph Riplinger    : Optimizer, TS searches, QM/MM, DLPNO-CCSD(T), (RO)-DLPNO pert. Triples
   Michael Roemelt        : Original ROCIS implementation
   Masaaki Saitow         : Open-shell DLPNO-CCSD energy and density
   Barbara Sandhoefer     : DKH picture change effects
   Kantharuban Sivalingam : CASSCF convergence/infrastructure, NEVPT2 and variants, FIC-MRCI
   Bernardo de Souza      : ESD, SOC TD-DFT
   Georgi Stoychev        : AutoAux, RI-MP2 NMR, DLPNO-MP2 response, X2C
   Van Anh Tran           : RI-MP2 g-tensors
   Willem Van den Heuvel  : Paramagnetic NMR
   Zikuan Wang            : NOTCH, Electric field optimization 
   Frank Wennmohs         : Technical directorship and infrastructure
   Hang Xu                : AUTO-CI-Response properties 


 We gratefully acknowledge several colleagues who have allowed us to
 interface, adapt or use parts of their codes:
   Stefan Grimme, W. Hujo, H. Kruse, P. Pracht,  : VdW corrections, initial TS optimization,
                  C. Bannwarth, S. Ehlert,         DFT functionals, gCP, sTDA/sTD-DF
                  L. Wittmann, M. Mueller
   Ed Valeev, F. Pavosevic, A. Kumar             : LibInt (2-el integral package), F12 methods
   Garnet Chan, S. Sharma, J. Yang, R. Olivares  : DMRG
   Ulf Ekstrom                                   : XCFun DFT Library
   Mihaly Kallay                                 : mrcc  (arbitrary order and MRCC methods)
   Frank Weinhold                                : gennbo (NPA and NBO analysis)
   Simon Mueller                                 : openCOSMO-RS
   Christopher J. Cramer and Donald G. Truhlar   : smd solvation model
   Lars Goerigk                                  : TD-DFT with DH, B97 family of functionals
   V. Asgeirsson, H. Jonsson                     : NEB implementation
   FAccTs GmbH                                   : IRC, NEB, NEB-TS, DLPNO-Multilevel, CI-OPT
                                                   MM, QMMM, 2- and 3-layer-ONIOM, Crystal-QMMM,
                                                   LR-CPCM, SF, NACMEs, symmetry and pop. for TD-DFT,
                                                   nearIR, NL-DFT gradient (VV10), updates on ESD,
                                                   ML-optimized integration grids, MBIS, APM,
                                                   GOAT, DOCKER, SOLVATOR, interface openCOSMO-RS
   S Lehtola, MJT Oliveira, MAL Marques          : LibXC Library
   Liviu Ungur et al                             : ANISO software


 Your calculation uses the libint2 library for the computation of 2-el integrals
 For citations please refer to: http://libint.valeyev.net

 Your ORCA version has been built with support for libXC version: 6.2.2
 For citations please refer to: https://libxc.gitlab.io

 This ORCA versions uses:
   CBLAS   interface :  Fast vector & matrix operations
   LAPACKE interface :  Fast linear algebra routines
   SCALAPACK package :  Parallel linear algebra routines
   Shared memory     :  Shared parallel matrices
   BLAS/LAPACK       :  OpenBLAS 0.3.27  USE64BITINT DYNAMIC_ARCH NO_AFFINITY SkylakeX SINGLE_THREADED
        Core in use  :  SkylakeX
   Copyright (c) 2011-2014, The OpenBLAS Project


Your calculation utilizes the geometrical counterpoise correction gCP
Please cite in your paper:
H.Kruse, S. Grimme J.Chem.Phys., 136, (2012), 154101 
   

Your calculation utilizes the atom-pairwise dispersion correction
based on EEQ partial charges (D4)


================================================================================

----- Orbital basis set information -----
Your calculation utilizes the basis: def2-SV(P)
   F. Weigend and R. Ahlrichs, Phys. Chem. Chem. Phys. 7, 3297 (2005).

----- AuxJ basis set information -----
Your calculation utilizes the auxiliary basis: def2/J
   F. Weigend, Phys. Chem. Chem. Phys. 8, 1057 (2006).

================================================================================
                                        WARNINGS
                       Please study these warnings very carefully!
================================================================================


================================================================================
                                       INPUT FILE
================================================================================
NAME = sp.inp
|  1> ! pbe def2-sv(p) def2/J RI DEFGRID1 loosescf d4 GCP(DFT/SV(P)) printgap
|  2> %output
|  3>     printlevel normal
|  4> end
|  5> * xyz 0 1
|  6> C 1.5535727152 -1.7051297119 0.2493397227
|  7> O 0.2947681656 -1.0544040201 0.3798818491
|  8> C 0.0237019106 -0.1427796531 -0.6287425262
|  9> O 0.8494348285 0.9811999381 -0.5637975409
| 10> C 0.6720954125 1.8210686772 0.5794263529
| 11> O -1.3227549989 0.183182566 -0.6349362646
| 12> C -2.0866476808 -0.0787690557 0.547816123
| 13> H 1.5701556873 -2.3124247606 -0.6593629035
| 14> H 1.6436237527 -2.333474944 1.1305339411
| 15> H 2.363340119 -0.9733942192 0.2143143198
| 16> H 0.261188678 -0.5657178639 -1.6241794476
| 17> H 0.7477020717 1.2364801003 1.4991304008
| 18> H -0.2927512232 2.3290903861 0.5288140364
| 19> H 1.4799367897 2.545143985 0.5249311455
| 20> H -3.0684703667 0.3282984698 0.3230373855
| 21> H -1.6601595999 0.4115915039 1.4225166161
| 22> H -2.149371236 -1.1528544178 0.7268184149
| 23> *
| 24> 
| 25>                          ****END OF INPUT****
================================================================================

                       ****************************
                       * Single Point Calculation *
                       ****************************

---------------------------------
CARTESIAN COORDINATES (ANGSTROEM)
---------------------------------
  C      1.553573   -1.705130    0.249340
  O      0.294768   -1.054404    0.379882
  C      0.023702   -0.142780   -0.628743
  O      0.849435    0.981200   -0.563798
  C      0.672095    1.821069    0.579426
  O     -1.322755    0.183183   -0.634936
  C     -2.086648   -0.078769    0.547816
  H      1.570156   -2.312425   -0.659363
  H      1.643624   -2.333475    1.130534
  H      2.363340   -0.973394    0.214314
  H      0.261189   -0.565718   -1.624179
  H      0.747702    1.236480    1.499130
  H     -0.292751    2.329090    0.528814
  H      1.479937    2.545144    0.524931
  H     -3.068470    0.328298    0.323037
  H     -1.660160    0.411592    1.422517
  H     -2.149371   -1.152854    0.726818

----------------------------
CARTESIAN COORDINATES (A.U.)
----------------------------
  NO LB      ZA    FRAG     MASS         X           Y           Z
   0 C     6.0000    0    12.011    2.935827   -3.222228    0.471184
   1 O     8.0000    0    15.999    0.557031   -1.992535    0.717873
   2 C     6.0000    0    12.011    0.044790   -0.269814   -1.188151
   3 O     8.0000    0    15.999    1.605199    1.854199   -1.065423
   4 C     6.0000    0    12.011    1.270076    3.441321    1.094957
   5 O     8.0000    0    15.999   -2.499645    0.346165   -1.199856
   6 C     6.0000    0    12.011   -3.943193   -0.148852    1.035222
   7 H     1.0000    0     1.008    2.967164   -4.369850   -1.246015
   8 H     1.0000    0     1.008    3.105999   -4.409629    2.136400
   9 H     1.0000    0     1.008    4.466066   -1.839448    0.404995
  10 H     1.0000    0     1.008    0.493575   -1.069052   -3.069254
  11 H     1.0000    0     1.008    1.412952    2.336609    2.832946
  12 H     1.0000    0     1.008   -0.553220    4.401343    0.999314
  13 H     1.0000    0     1.008    2.796675    4.809625    0.991976
  14 H     1.0000    0     1.008   -5.798569    0.620394    0.610452
  15 H     1.0000    0     1.008   -3.137247    0.777795    2.688167
  16 H     1.0000    0     1.008   -4.061723   -2.178579    1.373488

--------------------------------
INTERNAL COORDINATES (ANGSTROEM)
--------------------------------
 C      0   0   0     0.000000000000     0.00000000     0.00000000
 O      1   0   0     1.423050971268     0.00000000     0.00000000
 C      2   1   0     1.386311303985   114.01151569     0.00000000
 O      3   2   1     1.396203002523   112.32716708   291.18464576
 C      4   3   2     1.429611709080   115.89803172   293.90231009
 O      3   2   1     1.385364912150   110.36601882   164.52228704
 C      6   3   2     1.432150094070   118.14339301    19.13037040
 H      1   2   3     1.093079472866   110.10454394   296.02692138
 H      1   2   3     1.086015732206   105.27693792   176.79389649
 H      1   2   3     1.091964678175   110.64009808    57.25074947
 H      3   2   1     1.107326220827   111.15825340    45.81822512
 H      5   4   3     1.092389906069   110.50491085    53.28631813
 H      5   4   3     1.091593648624   110.24142821   290.91921683
 H      5   4   3     1.086214743829   105.02501210   172.26713768
 H      7   6   3     1.086372513320   104.04265453   175.70735192
 H      7   6   3     1.089700194636   111.82967089    56.35644019
 H      7   6   3     1.090704098259   110.26309868   294.26196737

---------------------------
INTERNAL COORDINATES (A.U.)
---------------------------
 C      0   0   0     0.000000000000     0.00000000     0.00000000
 O      1   0   0     2.689176610307     0.00000000     0.00000000
 C      2   1   0     2.619748700891   114.01151569     0.00000000
 O      3   2   1     2.638441302126   112.32716708   291.18464576
 C      4   3   2     2.701574608009   115.89803172   293.90231009
 O      3   2   1     2.617960279507   110.36601882   164.52228704
 C      6   3   2     2.706371460462   118.14339301    19.13037040
 H      1   2   3     2.065620846329   110.10454394   296.02692138
 H      1   2   3     2.052272311000   105.27693792   176.79389649
 H      1   2   3     2.063514189667   110.64009808    57.25074947
 H      3   2   1     2.092543298273   111.15825340    45.81822512
 H      5   4   3     2.064317753930   110.50491085    53.28631813
 H      5   4   3     2.062813045428   110.24142821   290.91921683
 H      5   4   3     2.052648388464   105.02501210   172.26713768
 H      7   6   3     2.052946529594   104.04265453   175.70735192
 H      7   6   3     2.059234935943   111.82967089    56.35644019
 H      7   6   3     2.061132038856   110.26309868   294.26196737

---------------------
BASIS SET INFORMATION
---------------------
There are 3 groups of distinct atoms

 Group   1 Type C   : 7s4p1d contracted to 3s2p1d pattern {511/31/1}
 Group   2 Type O   : 7s4p1d contracted to 3s2p1d pattern {511/31/1}
 Group   3 Type H   : 4s contracted to 2s pattern {31}

Atom   0C    basis set group =>   1
Atom   1O    basis set group =>   2
Atom   2C    basis set group =>   1
Atom   3O    basis set group =>   2
Atom   4C    basis set group =>   1
Atom   5O    basis set group =>   2
Atom   6C    basis set group =>   1
Atom   7H    basis set group =>   3
Atom   8H    basis set group =>   3
Atom   9H    basis set group =>   3
Atom  10H    basis set group =>   3
Atom  11H    basis set group =>   3
Atom  12H    basis set group =>   3
Atom  13H    basis set group =>   3
Atom  14H    basis set group =>   3
Atom  15H    basis set group =>   3
Atom  16H    basis set group =>   3
---------------------------------
AUXILIARY/J BASIS SET INFORMATION
---------------------------------
There are 3 groups of distinct atoms

 Group   1 Type C   : 12s5p4d2f1g contracted to 6s4p3d1f1g pattern {711111/2111/211/2/1}
 Group   2 Type O   : 12s5p4d2f1g contracted to 6s4p3d1f1g pattern {711111/2111/211/2/1}
 Group   3 Type H   : 5s2p1d contracted to 3s1p1d pattern {311/2/1}

Atom   0C    basis set group =>   1
Atom   1O    basis set group =>   2
Atom   2C    basis set group =>   1
Atom   3O    basis set group =>   2
Atom   4C    basis set group =>   1
Atom   5O    basis set group =>   2
Atom   6C    basis set group =>   1
Atom   7H    basis set group =>   3
Atom   8H    basis set group =>   3
Atom   9H    basis set group =>   3
Atom  10H    basis set group =>   3
Atom  11H    basis set group =>   3
Atom  12H    basis set group =>   3
Atom  13H    basis set group =>   3
Atom  14H    basis set group =>   3
Atom  15H    basis set group =>   3
Atom  16H    basis set group =>   3
------------------------------------------------------------------------------
                             ORCA STARTUP CALCULATIONS
                           -- RI-GTO INTEGRALS CHOSEN --
------------------------------------------------------------------------------
------------------------------------------------------------------------------
                   ___                                                        
                  /   \      - P O W E R E D   B Y -                         
                 /     \                                                     
                 |  |  |   _    _      __       _____    __    __             
                 |  |  |  | |  | |    /  \     |  _  \  |  |  /  |          
                  \  \/   | |  | |   /    \    | | | |  |  | /  /          
                 / \  \   | |__| |  /  /\  \   | |_| |  |  |/  /          
                |  |  |   |  __  | /  /__\  \  |    /   |      \           
                |  |  |   | |  | | |   __   |  |    \   |  |\   \          
                \     /   | |  | | |  |  |  |  | |\  \  |  | \   \       
                 \___/    |_|  |_| |__|  |__|  |_| \__\ |__|  \__/        
                                                                              
                      - O R C A' S   B I G   F R I E N D -                    
                                      &                                       
                       - I N T E G R A L  F E E D E R -                       
                                                                              
 v1 FN, 2020, v2 2021, v3 2022-2024                                           
------------------------------------------------------------------------------


----------------------
SHARK INTEGRAL PACKAGE
----------------------

Number of atoms                             ...     17
Number of basis functions                   ...    118
Number of shells                            ...     62
Maximum angular momentum                    ...      2
Integral batch strategy                     ... SHARK/LIBINT Hybrid
RI-J (if used) integral strategy            ... SPLIT-RIJ (Revised 2003 algorithm where possible)
Printlevel                                  ...      1
Contraction scheme used                     ... SEGMENTED contraction
Prescreening option                         ... SCHWARTZ
   Thresh                                   ... 1.000e-09
   Tcut                                     ... 1.000e-10
   Tpresel                                  ... 1.000e-10 
Coulomb Range Separation                    ... NOT USED
Exchange Range Separation                   ... NOT USED
Multipole approximations                    ... NOT USED
Finite Nucleus Model                        ... NOT USED
CABS basis                                  ... NOT available
Auxiliary Coulomb fitting basis             ... AVAILABLE
   # of basis functions in Aux-J            ...    453
   # of shells in Aux-J                     ...    155
   Maximum angular momentum in Aux-J        ...      4
Auxiliary J/K fitting basis                 ... NOT available
Auxiliary Correlation fitting basis         ... NOT available
Auxiliary 'external' fitting basis          ... NOT available

Checking pre-screening integrals            ... done (  0.0 sec) Dimension = 62
Check shell pair data                       ... done (  0.0 sec)
Shell pair information
Shell pair cut-off parameter TPreSel        ...   1.0e-10
Total number of shell pairs                 ...      1953
Shell pairs after pre-screening             ...      1894
Total number of primitive shell pairs       ...      7871
Primitive shell pairs kept                  ...      5444
          la=0 lb=0:    822 shell pairs
          la=1 lb=0:    568 shell pairs
          la=1 lb=1:    105 shell pairs
          la=2 lb=0:    273 shell pairs
          la=2 lb=1:     98 shell pairs
          la=2 lb=2:     28 shell pairs

Calculating one electron integrals          ... done (  0.0 sec)
Calculating RI/J V-Matrix + Cholesky decomp.... done (  0.1 sec)
Calculating Nuclear repulsion               ... done (  0.0 sec) ENN=    355.496992489910 Eh

Diagonalization of the overlap matrix:
Smallest eigenvalue                        ... 3.817e-03
Time for diagonalization                   ...    0.003 sec
Threshold for overlap eigenvalues          ... 1.000e-07
Number of eigenvalues below threshold      ... 0
Time for construction of square roots      ...    0.021 sec
Total time needed                          ...    0.033 sec

-------------------
DFT GRID GENERATION
-------------------

General Integration Accuracy     IntAcc      ... 4.159
Radial Grid Type                 RadialGrid  ... OptM3 with GC (2021)
Angular Grid (max. ang.)         AngularGrid ... 3 (Lebedev-194)
Angular grid pruning method      GridPruning ... 4 (adaptive)
Weight generation scheme         WeightScheme... mBecke (2022)
Basis function cutoff            BFCut       ... 1.0000e-10
Integration weight cutoff        WCut        ... 1.0000e-14
Partially contracted basis set               ... off
Rotationally invariant grid construction     ... off
Angular grids for H and He will be reduced by one unit

Total number of grid points                  ...    37122
Total number of batches                      ...      588
Average number of points per batch           ...       63
Average number of grid points per atom       ...     2184
Initializing property integral containers    ... done (  0.0 sec)

SHARK setup successfully completed in   0.8 seconds

Maximum memory used throughout the entire STARTUP-calculation: 18.3 MB
-------------------------------------------------------------------------------
                                 ORCA GUESS
                   Start orbitals & Density for SCF / CASSCF
-------------------------------------------------------------------------------

------------
SCF SETTINGS
------------
Hamiltonian:
 Density Functional     Method          .... DFT(GTOs)
 Exchange Functional    Exchange        .... PBE
   PBE kappa parameter   XKappa         ....  0.804000
   PBE mue parameter    XMuePBE         ....  0.219520
 Correlation Functional Correlation     .... PBE
   PBE beta parameter  CBetaPBE         ....  0.066725
 LDA part of GGA corr.  LDAOpt          .... PW91-LDA
 Gradients option       PostSCFGGA      .... off
   NL short-range parameter             ....  6.400000
 RI-approximation to the Coulomb term is turned on
   Number of AuxJ basis functions       .... 453


General Settings:
 Integral files         IntName         .... sp
 Hartree-Fock type      HFTyp           .... RHF
 Total Charge           Charge          ....    0
 Multiplicity           Mult            ....    1
 Number of Electrons    NEL             ....   58
 Basis Dimension        Dim             ....  118
 Nuclear Repulsion      ENuc            ....    355.4969924899 Eh

Convergence Acceleration:
 AO-DIIS                CNVDIIS         .... on
   Start iteration      DIISMaxIt       ....    12
   Startup error        DIISStart       ....  0.200000
   # of expansion vecs  DIISMaxEq       ....     5
   Bias factor          DIISBfac        ....   1.050
   Max. coefficient     DIISMaxC        ....  10.000
 MO-DIIS                CNVKDIIS        .... off
 Trust-Rad. Augm. Hess. CNVTRAH         .... auto
   Auto Start mean grad. ratio tolernc. ....  1.125000
   Auto Start start iteration           ....    50
   Auto Start num. interpolation iter.  ....    10
   Max. Number of Micro iterations      ....    24
   Max. Number of Macro iterations      .... Maxiter - #DIIS iter
   Number of Davidson start vectors     ....     2
   Converg. threshold    (grad. norm)   ....   1.000e-04
   Grad. Scal. Fac. for Micro threshold ....   0.100
   Minimum threshold for Micro iter.    ....   1.000e-02
   NR start threshold (gradient norm)   ....   1.000e-04
   Initial trust radius                 ....   0.400
   Minimum AH scaling param. (alpha)    ....   1.000
   Maximum AH scaling param. (alpha)    .... 1000.000
   Quad. conv. algorithm                .... NR
   White noise on init. David. guess    .... on
   Maximum white noise                  ....   0.010
   Pseudo random numbers                .... off
   Inactive MOs                         .... canonical
   Orbital update algorithm             .... Taylor
   Preconditioner                       .... Diag
   Full preconditioner red. dimension   ....   250
 SOSCF                  CNVSOSCF        .... on
   Start iteration      SOSCFMaxIt      ....   150
   Startup grad/error   SOSCFStart      ....  0.003300
   Hessian update       SOSCFHessUp     .... L-BFGS
 Level Shifting         CNVShift        .... on
   Level shift para.    LevelShift      ....    0.2500
   Turn off err/grad.   ShiftErr        ....    0.0010
 Zerner damping         CNVZerner       .... off
 Static damping         CNVDamp         .... on
   Fraction old density DampFac         ....    0.7000
   Max. Damping (<1)    DampMax         ....    0.9800
   Min. Damping (>=0)   DampMin         ....    0.0000
   Turn off err/grad.   DampErr         ....    0.1000

SCF Procedure:
 Maximum # iterations   MaxIter         ....   125
 SCF integral mode      SCFMode         .... Direct
   Integral package                     .... SHARK and LIBINT hybrid scheme
 Reset frequency        DirectResetFreq ....    20
 Integral Threshold     Thresh          ....  1.000e-09 Eh
 Primitive CutOff       TCut            ....  1.000e-10 Eh

Convergence Tolerance:
 Convergence Check Mode ConvCheckMode   .... Total+1el-Energy
 Convergence forced     ConvForced      .... 0
 Energy Change          TolE            ....  1.000e-05 Eh
 1-El. energy change                    ....  1.000e-02 Eh
 Orbital Gradient       TolG            ....  1.000e-04
 Orbital Rotation angle TolX            ....  1.000e-04
 DIIS Error             TolErr          ....  5.000e-04

------------------------------
INITIAL GUESS: MODEL POTENTIAL
------------------------------
Loading Hartree-Fock densities                     ... done
Calculating cut-offs                               ... done
Initializing the effective Hamiltonian             ... done
Setting up the integral package (SHARK)            ... done
Starting the Coulomb interaction                   ... done (   0.1 sec)
Making the grid                                    ... done (   0.2 sec)
Mapping shells                                     ... done
Starting the XC term evaluation                    ... done (   0.1 sec)
  promolecular density results
     # of electrons  =     57.998702780
     EX              =    -47.875523398
     EC              =     -1.928551468
     EX+EC           =    -49.804074866
Transforming the Hamiltonian                       ... done (   0.0 sec)
Diagonalizing the Hamiltonian                      ... done (   0.0 sec)
Back transforming the eigenvectors                 ... done (   0.0 sec)
Now organizing SCF variables                       ... done
                      ------------------
                      INITIAL GUESS DONE (   0.5 sec)
                      ------------------
             **** ENERGY FILE WAS UPDATED (sp.en.tmp) ****
Finished Guess after   0.7 sec
Maximum memory used throughout the entire GUESS-calculation: 14.1 MB

-------------------------------------------------------------------------------------------
                                      ORCA LEAN-SCF
                              memory conserving SCF solver
-------------------------------------------------------------------------------------------

----------------------------------------D-I-I-S--------------------------------------------
Iteration    Energy (Eh)           Delta-E    RMSDP     MaxDP     DIISErr   Damp  Time(sec)
-------------------------------------------------------------------------------------------
               ***  Starting incremental Fock matrix formation  ***
    1    -383.1617356999053641     0.00e+00  4.08e-03  5.63e-02  1.65e-01  0.700   0.8
    2    -383.2336416792847444    -7.19e-02  2.74e-03  3.02e-02  6.22e-02  0.700   0.8
                               ***Turning on AO-DIIS***
    3    -383.2584672933166416    -2.48e-02  1.13e-03  1.19e-02  1.88e-02  0.700   1.0
    4    -383.2740633691462904    -1.56e-02  1.68e-03  1.87e-02  1.10e-02  0.000   0.8
    5    -383.3094841056426390    -3.54e-02  4.04e-04  4.67e-03  3.58e-03  0.000   0.9
                              *** Initializing SOSCF ***
---------------------------------------S-O-S-C-F--------------------------------------
Iteration    Energy (Eh)           Delta-E    RMSDP     MaxDP     MaxGrad    Time(sec)
--------------------------------------------------------------------------------------
    6    -383.3096558961920550    -1.72e-04  1.41e-04  1.59e-03  1.19e-03     0.8
               *** Restarting incremental Fock matrix formation ***
    7    -383.3096728090421834    -1.69e-05  9.26e-05  1.05e-03  1.60e-04     0.7
    8    -383.3096732456382938    -4.37e-07  2.36e-05  4.87e-04  2.22e-04     0.7
                 **** Energy Check signals convergence ****

               *****************************************************
               *                     SUCCESS                       *
               *           SCF CONVERGED AFTER   8 CYCLES          *
               *****************************************************

             **** ENERGY FILE WAS UPDATED (sp.en.tmp) ****

----------------
TOTAL SCF ENERGY
----------------

Total Energy       :       -383.30967324563829 Eh          -10430.38648 eV

Components:
Nuclear Repulsion  :        355.49699248991004 Eh            9673.56496 eV
Electronic Energy  :       -738.80666573554834 Eh          -20103.95144 eV
One Electron Energy:      -1228.27388980337651 Eh          -33423.03174 eV
Two Electron Energy:        489.46722406782817 Eh           13319.08030 eV

Virial components:
Potential Energy   :       -763.81158612800050 Eh          -20784.36992 eV
Kinetic Energy     :        380.50191288236215 Eh           10353.98344 eV
Virial Ratio       :          2.00737909657801

DFT components:
N(Alpha)           :       28.999749641116 electrons
N(Beta)            :       28.999749641116 electrons
N(Total)           :       57.999499282232 electrons
E(X)               :      -48.801635276723 Eh       
E(C)               :       -1.938013250857 Eh       
E(XC)              :      -50.739648527579 Eh       

---------------
SCF CONVERGENCE
---------------

  Last Energy change         ...    4.3660e-07  Tolerance :   1.0000e-05
  Last MAX-Density change    ...    4.8690e-04  Tolerance :   1.0000e-03
  Last RMS-Density change    ...    2.3615e-05  Tolerance :   1.0000e-04
  Last DIIS Error            ...    1.1906e-03  Tolerance :   5.0000e-04
  Last Orbital Gradient      ...    2.2223e-04  Tolerance :   1.0000e-04
  Last Orbital Rotation      ...    8.7379e-05  Tolerance :   1.0000e-04


----------------
ORBITAL ENERGIES
----------------

  NO   OCC          E(Eh)            E(eV) 
   0   2.0000     -18.768850      -510.7264 
   1   2.0000     -18.757854      -510.4272 
   2   2.0000     -18.753455      -510.3075 
   3   2.0000     -10.019027      -272.6316 
   4   2.0000      -9.933498      -270.3042 
   5   2.0000      -9.924451      -270.0580 
   6   2.0000      -9.923221      -270.0246 
   7   2.0000      -1.000075       -27.2134 
   8   2.0000      -0.916111       -24.9286 
   9   2.0000      -0.907730       -24.7006 
  10   2.0000      -0.669711       -18.2238 
  11   2.0000      -0.627849       -17.0847 
  12   2.0000      -0.612476       -16.6663 
  13   2.0000      -0.523094       -14.2341 
  14   2.0000      -0.472513       -12.8577 
  15   2.0000      -0.466662       -12.6985 
  16   2.0000      -0.462287       -12.5795 
  17   2.0000      -0.403852       -10.9894 
  18   2.0000      -0.395204       -10.7540 
  19   2.0000      -0.382070       -10.3967 
  20   2.0000      -0.376778       -10.2527 
  21   2.0000      -0.372248       -10.1294 
  22   2.0000      -0.350086        -9.5263 
  23   2.0000      -0.311324        -8.4715 
  24   2.0000      -0.279937        -7.6175 
  25   2.0000      -0.267893        -7.2897 
  26   2.0000      -0.238393        -6.4870 
  27   2.0000      -0.225058        -6.1241 
  28   2.0000      -0.211407        -5.7527 
  29   0.0000       0.039433         1.0730 
  30   0.0000       0.062011         1.6874 
  31   0.0000       0.078681         2.1410 
  32   0.0000       0.083902         2.2831 
  33   0.0000       0.093255         2.5376 
  34   0.0000       0.098975         2.6932 
  35   0.0000       0.105830         2.8798 
  36   0.0000       0.113701         3.0940 
  37   0.0000       0.116040         3.1576 
  38   0.0000       0.123686         3.3657 
  39   0.0000       0.129887         3.5344 
*Only the first 10 virtual orbitals were printed.

                    ********************************
                    * MULLIKEN POPULATION ANALYSIS *
                    ********************************

-----------------------
MULLIKEN ATOMIC CHARGES
-----------------------
   0 C :   -0.105437
   1 O :   -0.329052
   2 C :    0.294685
   3 O :   -0.319018
   4 C :   -0.117763
   5 O :   -0.326112
   6 C :   -0.098249
   7 H :    0.096925
   8 H :    0.118361
   9 H :    0.106530
  10 H :    0.048047
  11 H :    0.098242
  12 H :    0.107006
  13 H :    0.115418
  14 H :    0.112980
  15 H :    0.093696
  16 H :    0.103743
Sum of atomic charges:   -0.0000000

--------------------------------
MULLIKEN REDUCED ORBITAL CHARGES
--------------------------------
  0 C s       :     3.118797  s :     3.118797
      pz      :     1.085051  p :     2.932627
      px      :     0.829424
      py      :     1.018152
      dz2     :     0.008865  d :     0.054013
      dxz     :     0.006282
      dyz     :     0.010959
      dx2y2   :     0.011774
      dxy     :     0.016133

  1 O s       :     3.766533  s :     3.766533
      pz      :     1.577224  p :     4.547147
      px      :     1.442649
      py      :     1.527274
      dz2     :     0.003186  d :     0.015372
      dxz     :     0.002633
      dyz     :     0.003891
      dx2y2   :     0.003311
      dxy     :     0.002350

  2 C s       :     2.969527  s :     2.969527
      pz      :     0.958078  p :     2.598276
      px      :     0.807734
      py      :     0.832463
      dz2     :     0.026217  d :     0.137512
      dxz     :     0.017948
      dyz     :     0.025499
      dx2y2   :     0.033649
      dxy     :     0.034200

  3 O s       :     3.760521  s :     3.760521
      pz      :     1.524386  p :     4.543469
      px      :     1.652412
      py      :     1.366672
      dz2     :     0.003679  d :     0.015028
      dxz     :     0.002224
      dyz     :     0.003306
      dx2y2   :     0.001890
      dxy     :     0.003929

  4 C s       :     3.122466  s :     3.122466
      pz      :     0.881825  p :     2.942236
      px      :     1.089021
      py      :     0.971391
      dz2     :     0.016288  d :     0.053060
      dxz     :     0.004987
      dyz     :     0.014900
      dx2y2   :     0.004589
      dxy     :     0.012296

  5 O s       :     3.752682  s :     3.752682
      pz      :     1.513417  p :     4.558481
      px      :     1.261241
      py      :     1.783823
      dz2     :     0.004070  d :     0.014950
      dxz     :     0.003252
      dyz     :     0.002035
      dx2y2   :     0.003057
      dxy     :     0.002536

  6 C s       :     3.116035  s :     3.116035
      pz      :     0.855650  p :     2.928671
      px      :     0.986050
      py      :     1.086971
      dz2     :     0.014853  d :     0.053544
      dxz     :     0.012517
      dyz     :     0.010608
      dx2y2   :     0.009474
      dxy     :     0.006092

  7 H s       :     0.903075  s :     0.903075

  8 H s       :     0.881639  s :     0.881639

  9 H s       :     0.893470  s :     0.893470

 10 H s       :     0.951953  s :     0.951953

 11 H s       :     0.901758  s :     0.901758

 12 H s       :     0.892994  s :     0.892994

 13 H s       :     0.884582  s :     0.884582

 14 H s       :     0.887020  s :     0.887020

 15 H s       :     0.906304  s :     0.906304

 16 H s       :     0.896257  s :     0.896257


------------------------
MULLIKEN OVERLAP CHARGES
------------------------
B(  0-C ,  1-O ) :   0.6133 B(  0-C ,  7-H ) :   0.7491 B(  0-C ,  8-H ) :   0.7698 
B(  0-C ,  9-H ) :   0.7397 B(  1-O ,  2-C ) :   0.6244 B(  1-O ,  3-O ) :  -0.1394 
B(  1-O ,  5-O ) :  -0.1130 B(  1-O ,  7-H ) :  -0.0685 B(  1-O ,  8-H ) :  -0.0532 
B(  1-O ,  9-H ) :  -0.0730 B(  1-O , 10-H ) :  -0.0859 B(  2-C ,  3-O ) :   0.7123 
B(  2-C ,  4-C ) :  -0.0634 B(  2-C ,  5-O ) :   0.6986 B(  2-C ,  6-C ) :  -0.0943 
B(  2-C , 10-H ) :   0.7128 B(  3-O ,  4-C ) :   0.5648 B(  3-O ,  5-O ) :  -0.1364 
B(  3-O , 10-H ) :  -0.1154 B(  3-O , 11-H ) :  -0.0779 B(  3-O , 12-H ) :  -0.0720 
B(  3-O , 13-H ) :  -0.0524 B(  4-C , 11-H ) :   0.7274 B(  4-C , 12-H ) :   0.7597 
B(  4-C , 13-H ) :   0.7704 B(  5-O ,  6-C ) :   0.6029 B(  5-O , 10-H ) :  -0.0797 
B(  5-O , 14-H ) :  -0.0548 B(  5-O , 15-H ) :  -0.0764 B(  5-O , 16-H ) :  -0.0601 
B(  6-C , 14-H ) :   0.7602 B(  6-C , 15-H ) :   0.7317 B(  6-C , 16-H ) :   0.7653 
B(  7-H ,  8-H ) :  -0.0517 B(  7-H ,  9-H ) :  -0.0820 B(  8-H ,  9-H ) :  -0.0516 
B( 11-H , 12-H ) :  -0.0907 B( 11-H , 13-H ) :  -0.0517 B( 12-H , 13-H ) :  -0.0542 
B( 14-H , 15-H ) :  -0.0544 B( 15-H , 16-H ) :  -0.0884 


                     *******************************
                     * LOEWDIN POPULATION ANALYSIS *
                     *******************************

----------------------
LOEWDIN ATOMIC CHARGES
----------------------
   0 C :   -0.204096
   1 O :   -0.160460
   2 C :    0.051105
   3 O :   -0.170447
   4 C :   -0.214708
   5 O :   -0.160389
   6 C :   -0.205597
   7 H :    0.105532
   8 H :    0.118313
   9 H :    0.106789
  10 H :    0.085716
  11 H :    0.101432
  12 H :    0.106467
  13 H :    0.117618
  14 H :    0.116131
  15 H :    0.100407
  16 H :    0.106188

-------------------------------
LOEWDIN REDUCED ORBITAL CHARGES
-------------------------------
  0 C s       :     2.964307  s :     2.964307
      pz      :     1.140843  p :     3.121213
      px      :     0.907856
      py      :     1.072514
      dz2     :     0.020578  d :     0.118577
      dxz     :     0.011462
      dyz     :     0.026548
      dx2y2   :     0.024238
      dxy     :     0.035750

  1 O s       :     3.470627  s :     3.470627
      pz      :     1.623468  p :     4.659984
      px      :     1.478646
      py      :     1.557870
      dz2     :     0.005646  d :     0.029849
      dxz     :     0.004362
      dyz     :     0.008187
      dx2y2   :     0.006462
      dxy     :     0.005192

  2 C s       :     2.863259  s :     2.863259
      pz      :     1.005418  p :     2.786750
      px      :     0.881109
      py      :     0.900223
      dz2     :     0.060353  d :     0.298886
      dxz     :     0.032502
      dyz     :     0.058358
      dx2y2   :     0.072346
      dxy     :     0.075328

  3 O s       :     3.484820  s :     3.484820
      pz      :     1.563393  p :     4.656369
      px      :     1.674499
      py      :     1.418477
      dz2     :     0.006977  d :     0.029258
      dxz     :     0.003146
      dyz     :     0.007010
      dx2y2   :     0.003658
      dxy     :     0.008466

  4 C s       :     2.964567  s :     2.964567
      pz      :     0.957807  p :     3.133438
      px      :     1.143898
      py      :     1.031732
      dz2     :     0.036496  d :     0.116703
      dxz     :     0.008908
      dyz     :     0.033137
      dx2y2   :     0.009106
      dxy     :     0.029056

  5 O s       :     3.467441  s :     3.467441
      pz      :     1.552319  p :     4.664145
      px      :     1.330647
      py      :     1.781179
      dz2     :     0.007664  d :     0.028803
      dxz     :     0.006847
      dyz     :     0.002771
      dx2y2   :     0.006844
      dxy     :     0.004675

  6 C s       :     2.965380  s :     2.965380
      pz      :     0.939460  p :     3.122828
      px      :     1.041627
      py      :     1.141741
      dz2     :     0.032942  d :     0.117389
      dxz     :     0.026900
      dyz     :     0.022951
      dx2y2   :     0.022017
      dxy     :     0.012580

  7 H s       :     0.894468  s :     0.894468

  8 H s       :     0.881687  s :     0.881687

  9 H s       :     0.893211  s :     0.893211

 10 H s       :     0.914284  s :     0.914284

 11 H s       :     0.898568  s :     0.898568

 12 H s       :     0.893533  s :     0.893533

 13 H s       :     0.882382  s :     0.882382

 14 H s       :     0.883869  s :     0.883869

 15 H s       :     0.899593  s :     0.899593

 16 H s       :     0.893812  s :     0.893812


---------------------------------
LOEWDIN BOND ORDERS (THRESH 0.050000)
---------------------------------
B(  0-C ,  1-O ) :   1.1507 B(  0-C ,  2-C ) :   0.0767 B(  0-C ,  7-H ) :   0.9432 
B(  0-C ,  8-H ) :   0.9528 B(  0-C ,  9-H ) :   0.9431 B(  1-O ,  2-C ) :   1.2119 
B(  1-O ,  3-O ) :   0.0862 B(  1-O ,  5-O ) :   0.0658 B(  2-C ,  3-O ) :   1.2345 
B(  2-C ,  4-C ) :   0.0671 B(  2-C ,  5-O ) :   1.2515 B(  2-C ,  6-C ) :   0.0654 
B(  2-C , 10-H ) :   0.8794 B(  3-O ,  4-C ) :   1.1516 B(  3-O ,  5-O ) :   0.0837 
B(  4-C , 11-H ) :   0.9434 B(  4-C , 12-H ) :   0.9462 B(  4-C , 13-H ) :   0.9534 
B(  5-O ,  6-C ) :   1.1429 B(  6-C , 14-H ) :   0.9520 B(  6-C , 15-H ) :   0.9456 
B(  6-C , 16-H ) :   0.9479 

------------------------------------------
LOEWDIN REDUCED ORBITAL POPULATIONS PER MO
-------------------------------------------
THRESHOLD FOR PRINTING IS 0.1%%
                      0         1         2         3         4         5   
                 -18.76885 -18.75785 -18.75346 -10.01903  -9.93350  -9.92445
                   2.00000   2.00000   2.00000   2.00000   2.00000   2.00000
                  --------  --------  --------  --------  --------  --------
 0 C  s               0.0       0.0       0.0       0.0      99.7       0.0
 1 O  s              99.9       0.0       0.0       0.0       0.0       0.0
 2 C  s               0.0       0.0       0.0      99.5       0.0       0.0
 3 O  s               0.0       0.0      99.9       0.0       0.0       0.0
 5 O  s               0.0      99.9       0.0       0.0       0.0       0.0
 5 O  px              0.0       0.0       0.0       0.1       0.0       0.0
 6 C  s               0.0       0.0       0.0       0.0       0.0      99.7

                      6         7         8         9        10        11   
                  -9.92322  -1.00008  -0.91611  -0.90773  -0.66971  -0.62785
                   2.00000   2.00000   2.00000   2.00000   2.00000   2.00000
                  --------  --------  --------  --------  --------  --------
 0 C  s               0.0       2.5       5.9       0.2       7.5      25.9
 0 C  pz              0.0       0.0       0.0       0.0       0.2       0.0
 0 C  px              0.0       2.2       3.6       0.1       0.1       0.8
 0 C  py              0.0       0.9       1.0       0.0       0.1       0.4
 0 C  dz2             0.0       0.1       0.1       0.0       0.0       0.0
 0 C  dx2y2           0.0       0.1       0.1       0.0       0.0       0.0
 0 C  dxy             0.0       0.1       0.3       0.0       0.0       0.0
 1 O  s               0.0      22.1      32.6       1.6       0.1       3.1
 1 O  pz              0.0       1.5       0.5       0.0       2.0       0.7
 1 O  px              0.0       0.1       1.5       0.0       3.0       8.5
 1 O  py              0.0       0.7       0.1       0.0       3.8       5.5
 2 C  s               0.0      20.5       0.2       0.0      11.9       0.0
 2 C  pz              0.0       2.3       2.4       0.1       0.9       5.1
 2 C  px              0.0       0.0       4.3      10.9       0.0       0.1
 2 C  py              0.0       0.1       8.3       4.4       0.0       3.4
 2 C  dz2             0.0       0.1       0.4       0.0       0.0       0.2
 2 C  dyz             0.0       0.2       0.4       0.1       0.0       0.2
 2 C  dx2y2           0.0       0.0       0.4       0.4       0.0       0.1
 2 C  dxy             0.0       0.0       0.0       0.8       0.0       0.0
 3 O  s               0.0      13.7       4.9      37.9       0.2       0.7
 3 O  pz              0.1       0.3       0.1       1.1       2.9       2.1
 3 O  px              0.0       0.9       0.2       0.4       1.1       0.2
 3 O  py              0.0       0.7       0.0       0.0       7.4       1.4
 4 C  s              99.7       1.6       0.8       5.9      10.2       5.5
 4 C  pz              0.0       1.1       0.5       3.0       0.1       0.2
 4 C  py              0.0       1.0       0.2       1.8       0.1       0.0
 4 C  dyz             0.0       0.1       0.0       0.4       0.0       0.0
 5 O  s               0.0      15.4      21.3      19.6       0.2       1.6
 5 O  pz              0.0       0.4       0.5       0.8       3.0       1.3
 5 O  px              0.0       1.4       0.1       0.1      10.2       0.5
 5 O  py              0.0       0.2       0.0       0.3       0.1       0.3
 6 C  s               0.0       1.8       2.7       3.4      11.6       2.3
 6 C  pz              0.0       1.2       1.8       1.8       0.2       0.3
 6 C  px              0.0       1.2       0.6       0.9       0.1       0.0
 6 C  py              0.0       0.0       0.2       0.1       0.1       0.1
 6 C  dxz             0.0       0.1       0.2       0.2       0.0       0.0
 7 H  s               0.0       0.3       0.7       0.0       1.4       7.0
 8 H  s               0.0       0.3       0.7       0.0       2.1       7.8
 9 H  s               0.0       0.4       0.6       0.0       1.4       6.8
10 H  s               0.0       2.3       0.0       0.0       3.0       0.4
11 H  s               0.1       0.3       0.0       0.7       2.1       1.7
12 H  s               0.1       0.3       0.2       0.6       2.2       1.4
13 H  s               0.1       0.2       0.1       0.8       2.6       1.5
14 H  s               0.0       0.2       0.4       0.4       3.0       0.5
15 H  s               0.0       0.3       0.3       0.4       2.4       1.0
16 H  s               0.0       0.3       0.2       0.4       2.1       0.9

                     12        13        14        15        16        17   
                  -0.61248  -0.52309  -0.47251  -0.46666  -0.46229  -0.40385
                   2.00000   2.00000   2.00000   2.00000   2.00000   2.00000
                  --------  --------  --------  --------  --------  --------
 0 C  s               0.4       2.6       2.8       0.0       0.0       0.0
 0 C  pz              0.0       2.0       0.7       6.2       1.3      11.7
 0 C  px              0.0       4.6      15.3       0.4       0.3       2.7
 0 C  py              0.1       0.5       0.9       1.1       2.0       9.5
 0 C  dx2y2           0.0       0.1       0.2       0.0       0.0       0.0
 0 C  dxy             0.0       0.1       0.3       0.0       0.0       0.0
 1 O  s               0.0       4.1       0.8       1.0       0.0       0.0
 1 O  pz              0.0       4.7       1.4       9.3       2.3       4.5
 1 O  px              0.0       0.5       6.6       0.7       2.8       1.1
 1 O  py              0.3       1.8      12.9       1.1       3.1       2.1
 2 C  s               0.0       6.9       0.2       0.0       0.1       0.0
 2 C  pz              0.0       2.8      17.3       1.3       4.5       0.3
 2 C  px              7.3       0.4       0.5       8.3       3.7       0.1
 2 C  py              0.3       1.5       0.6       6.3       8.4       0.0
 2 C  dx2y2           0.1       0.0       0.0       0.0       0.0       0.3
 2 C  dxy             0.3       0.0       0.0       0.0       0.0       0.0
 3 O  s               2.4       3.4       0.0       0.1       2.3       0.0
 3 O  pz              2.8       0.3       5.1       0.1       0.2       0.3
 3 O  px              0.1       0.6       0.3       4.3       5.1       5.4
 3 O  py              6.1       2.7       0.5       0.4      16.3       1.3
 4 C  s              16.3       5.4       1.1       0.2       0.6       0.0
 4 C  pz              0.4       5.3       1.0       0.2      11.5       2.9
 4 C  px              0.0       0.4       0.1       2.2       4.8      14.1
 4 C  py              0.6       1.6       3.2       0.4       0.2       1.3
 4 C  dyz             0.0       0.3       0.1       0.0       0.2       0.0
 5 O  s               2.0       3.2       0.4       1.8       0.2       0.1
 5 O  pz              3.3       0.2       4.3       0.3       2.2       2.1
 5 O  px              6.3       2.6       0.2      20.5       1.3       0.2
 5 O  py              0.0       0.5       0.6       0.1       5.1       3.4
 6 C  s              19.2       4.4       0.4       1.3       0.6       0.0
 6 C  pz              0.4       4.6       0.0      15.5       0.8       0.0
 6 C  px              0.7       0.9       2.5       0.2       0.8       0.6
 6 C  py              0.0       0.2       0.1       0.6       3.9       6.5
 6 C  dz2             0.0       0.1       0.0       0.2       0.0       0.0
 6 C  dxz             0.0       0.2       0.0       0.2       0.0       0.0
 7 H  s               0.1       3.2       3.0       0.6       1.2       9.0
 8 H  s               0.2       0.6       1.4       2.1       0.0       0.5
 9 H  s               0.0       2.3       5.6       0.5       0.4       4.7
10 H  s               0.0       6.8       4.8       2.2       2.5       0.1
11 H  s               4.2       3.7       0.3       0.1       5.0       2.8
12 H  s               4.5       3.3       1.6       0.1       2.3       6.3
13 H  s               5.2       2.3       1.2       1.1       0.3       1.6
14 H  s               6.1       1.8       1.3       0.0       0.2       0.0
15 H  s               4.8       3.5       0.0       5.9       0.0       0.7
16 H  s               5.0       2.6       0.1       2.5       2.9       2.8

                     18        19        20        21        22        23   
                  -0.39520  -0.38207  -0.37678  -0.37225  -0.35009  -0.31132
                   2.00000   2.00000   2.00000   2.00000   2.00000   2.00000
                  --------  --------  --------  --------  --------  --------
 0 C  s               0.1       0.0       0.0       0.1       0.0       0.2
 0 C  pz              3.9       7.1       0.8       6.9       9.2       4.8
 0 C  px              0.8       5.4       0.5       0.2       0.2       5.6
 0 C  py             20.1       2.4       0.2       8.9       0.5       0.8
 0 C  dz2             0.2       0.0       0.0       0.1       0.0       0.0
 0 C  dyz             0.0       0.1       0.0       0.1       0.2       0.2
 0 C  dxy             0.0       0.0       0.0       0.0       0.0       0.3
 1 O  s               0.3       0.3       0.1       0.3       0.4       5.5
 1 O  pz              1.4       0.7       0.0       0.1       0.2      11.4
 1 O  px              9.2       0.6       0.3       4.0       0.0      18.7
 1 O  py              1.4       3.0       0.7       0.6       0.2       0.6
 2 C  s               0.0       0.1       0.1       0.6       0.3       1.8
 2 C  pz              0.0       0.1       0.3       0.1       6.1       1.3
 2 C  px              1.1       0.2       0.4       0.0       0.3       0.4
 2 C  py              0.2       0.1       0.0       0.5       7.9       0.0
 2 C  dz2             0.0       0.1       0.0       0.1       0.2       0.1
 2 C  dxz             0.2       0.0       0.2       0.0       0.0       0.0
 2 C  dyz             0.0       0.1       0.0       0.0       0.2       0.3
 2 C  dxy             0.7       0.0       0.0       0.0       0.0       0.2
 3 O  s               0.3       0.2       0.4       0.0       0.0       2.3
 3 O  pz              2.6       8.9       3.0       0.1       1.8      11.3
 3 O  px              0.0       0.2       5.3       1.2       0.2       2.8
 3 O  py              3.6       1.3       0.4       0.0       2.7       0.6
 4 C  s               0.2       0.0       0.1       0.0       0.0       0.1
 4 C  pz              2.9       8.3       0.4       0.1       0.2       3.3
 4 C  px              0.0       1.7       9.8       6.3      10.2       1.6
 4 C  py              0.6      26.1       1.7       0.1       9.3       0.8
 4 C  dz2             0.0       0.2       0.0       0.0       0.1       0.1
 4 C  dx2y2           0.0       0.2       0.0       0.0       0.0       0.0
 4 C  dxy             0.0       0.0       0.1       0.1       0.3       0.1
 5 O  s               0.3       0.1       0.1       0.0       0.1       0.3
 5 O  pz              2.6       0.5       7.6       0.8       0.7       4.9
 5 O  px              2.9       0.3       0.8       0.0       2.0       1.2
 5 O  py              4.4       0.0       0.3       4.5       1.2       0.4
 5 O  dz2             0.0       0.0       0.1       0.0       0.0       0.0
 6 C  s               0.2       0.0       0.0       0.0       0.0       0.2
 6 C  pz              4.0       0.2       7.0       0.0       0.2       0.1
 6 C  px              2.8       0.1      25.4       5.5       6.4       0.2
 6 C  py              9.0       0.1       3.5      24.3       1.6       0.4
 6 C  dz2             0.0       0.0       0.1       0.0       0.1       0.0
 6 C  dxz             0.1       0.0       0.0       0.1       0.0       0.0
 6 C  dx2y2           0.0       0.0       0.0       0.2       0.0       0.0
 6 C  dxy             0.0       0.0       0.2       0.0       0.0       0.0
 7 H  s               0.5       4.2       0.1       0.1       4.9       1.5
 8 H  s               8.7       1.4       0.6       8.4       2.7       3.9
 9 H  s               5.1       3.5       0.0       1.4       0.2       4.6
10 H  s               0.1       0.0       0.1       0.3       9.3       0.2
11 H  s               0.8      11.6       0.1       0.1       0.7       3.4
12 H  s               0.1       6.7       2.0       2.6       1.2       0.3
13 H  s               0.3       3.5       5.0       1.3      11.5       2.3
14 H  s               2.9       0.0       9.9       8.2       2.4       0.1
15 H  s               3.0       0.1      10.5       0.8       2.3       0.4
16 H  s               2.1       0.1       1.5      10.3       1.1       0.3

                     24        25        26        27        28        29   
                  -0.27994  -0.26789  -0.23839  -0.22506  -0.21141   0.03943
                   2.00000   2.00000   2.00000   2.00000   2.00000   0.00000
                  --------  --------  --------  --------  --------  --------
 0 C  s               0.0       0.1       0.0       0.0       0.2       5.0
 0 C  pz              0.0       0.8       1.4       0.1       0.0       0.2
 0 C  px              0.0       1.3       0.7       0.3       0.1       6.2
 0 C  py              2.3       0.2       0.8       1.0       0.1       2.0
 0 C  dz2             0.0       0.0       0.1       0.1       0.0       0.2
 0 C  dxz             0.0       0.1       0.2       0.0       0.0       0.0
 0 C  dyz             0.0       0.1       0.3       0.1       0.0       0.0
 0 C  dx2y2           0.1       0.0       0.2       0.3       0.0       0.1
 0 C  dxy             0.1       0.1       0.1       0.4       0.0       0.4
 1 O  s               0.0       1.2       0.0       0.0       0.0       2.8
 1 O  pz              0.1      11.0      24.0       4.1       1.1       0.2
 1 O  px              0.4       3.2       2.8       9.1       0.8       0.2
 1 O  py              5.7       0.2       8.1      25.3       0.6       0.0
 2 C  s               0.3       0.5       0.0       0.1       0.1       0.4
 2 C  pz              0.3       4.1       0.3       0.4       0.4       2.9
 2 C  px              3.5       1.3       0.3       0.2       0.8       0.1
 2 C  py              0.3       0.9       0.3       1.2       0.1       0.4
 2 C  dz2             0.1       0.6       0.2       0.8       0.1       0.0
 2 C  dxz             0.7       0.0       0.1       0.0       0.1       0.0
 2 C  dyz             0.1       0.4       0.4       0.1       0.3       0.2
 2 C  dx2y2           0.0       0.5       1.3       0.0       0.2       0.0
 2 C  dxy             0.1       0.0       0.2       0.9       0.5       0.0
 3 O  s               0.1       5.1       0.0       0.0       0.1       0.1
 3 O  pz              1.7      10.7       5.1      12.6       5.3       0.1
 3 O  px              0.6      23.1       6.4       0.4      24.8       0.3
 3 O  py              0.6       0.1       4.0      17.0       3.7       0.1
 4 C  s               0.0       0.2       0.0       0.0       0.0       8.4
 4 C  pz              0.7       3.7       1.4       0.2       0.5       1.6
 4 C  px              0.0       4.1       1.0       0.1       0.7       0.0
 4 C  py              0.2       0.3       0.9       1.1       0.0       0.2
 4 C  dz2             0.0       0.0       0.3       0.4       0.3       0.0
 4 C  dxz             0.0       0.1       0.0       0.0       0.1       0.0
 4 C  dyz             0.0       0.1       0.0       0.2       0.0       0.1
 4 C  dxy             0.0       0.4       0.1       0.0       0.3       0.1
 5 O  s               6.2       0.4       0.1       0.2       0.0       0.2
 5 O  pz             31.9       0.5       0.2       2.8       6.8       0.0
 5 O  px              7.9       2.3       0.1       0.4       5.0       0.1
 5 O  py              7.6       2.9      21.8       4.8      30.4       0.0
 6 C  s               0.2       0.0       0.0       0.1       0.0       6.4
 6 C  pz              7.0       0.6       0.0       0.5       0.3       1.2
 6 C  px              1.7       1.1       0.0       0.0       0.3       0.0
 6 C  py              2.5       0.0       1.4       1.0       1.4       0.0
 6 C  dz2             0.2       0.0       0.0       0.1       0.5       0.0
 6 C  dyz             0.0       0.0       0.2       0.1       0.5       0.0
 6 C  dx2y2           0.5       0.0       0.1       0.0       0.0       0.0
 6 C  dxy             0.1       0.0       0.1       0.0       0.1       0.0
 7 H  s               0.3       0.5       4.0       2.0       0.0       7.0
 8 H  s               1.0       1.1       0.5       0.1       0.0       5.9
 9 H  s               1.2       0.7       1.7       3.3       0.2       5.8
10 H  s               0.2       7.8       0.9       2.3       2.2       5.2
11 H  s               0.7       0.8       2.1       2.8       1.1      10.0
12 H  s               0.3       3.2       2.1       0.9       2.6       4.4
13 H  s               0.0       2.6       0.0       0.4       0.4       6.2
14 H  s               5.7       0.4       0.6       0.0       0.1       3.2
15 H  s               3.3       0.1       0.5       1.0       3.7       7.5
16 H  s               2.8       0.1       2.5       0.8       3.1       4.3

                     30        31        32        33        34        35   
                   0.06201   0.07868   0.08390   0.09326   0.09898   0.10583
                   0.00000   0.00000   0.00000   0.00000   0.00000   0.00000
                  --------  --------  --------  --------  --------  --------
 0 C  s              12.0       4.9       3.2       0.6       3.4       0.7
 0 C  pz              0.6       0.8       4.6       4.8       0.1       3.1
 0 C  px              0.7       2.2       1.2       8.3       3.1       5.1
 0 C  py              1.6       4.5       0.2       0.8       1.3       9.4
 0 C  dz2             0.0       0.5       0.0       0.1       0.1       1.0
 0 C  dyz             0.0       0.0       0.1       0.6       0.0       0.1
 0 C  dx2y2           0.0       0.1       0.0       0.3       0.1       0.5
 0 C  dxy             0.0       0.2       0.2       0.7       0.6       0.4
 1 O  s               0.4       2.1       0.3       1.6       1.6       1.9
 1 O  pz              0.0       0.3       0.4       0.0       0.7       0.1
 1 O  px              0.1       0.8       0.3       2.3       2.5       2.5
 1 O  py              0.1       0.2       0.1       0.2       0.3       0.6
 1 O  dz2             0.0       0.1       0.3       0.1       0.0       0.0
 1 O  dxz             0.0       0.0       0.1       0.2       0.0       0.0
 1 O  dx2y2           0.0       0.1       0.0       0.0       0.0       0.2
 1 O  dxy             0.0       0.1       0.2       0.1       0.1       0.1
 2 C  s               1.3       0.7       1.2       0.4       0.1       0.2
 2 C  pz              1.8       4.0       4.2       0.3       1.9       0.2
 2 C  px              0.1       0.1       5.0       1.2       1.9       1.3
 2 C  py              0.1       1.3       1.4       2.6       0.6       0.5
 2 C  dz2             0.1       0.0       0.6       0.2       0.0       0.0
 2 C  dxz             0.0       0.2       0.0       0.1       0.5       0.1
 2 C  dyz             0.0       0.3       0.0       0.1       0.5       0.0
 2 C  dx2y2           0.0       0.0       0.4       0.2       0.2       0.1
 2 C  dxy             0.0       0.2       0.1       0.1       0.0       0.1
 3 O  s               0.0       1.6       0.0       5.8       0.2       1.6
 3 O  pz              0.2       0.2       0.0       3.6       0.1       1.9
 3 O  px              0.2       0.1       0.3       0.7       0.0       0.0
 3 O  py              0.1       0.2       0.0       0.2       0.0       0.2
 3 O  dxz             0.0       0.0       0.0       0.0       0.1       0.0
 3 O  dyz             0.0       0.1       0.1       0.2       0.0       0.1
 3 O  dx2y2           0.0       0.0       0.2       0.0       0.1       0.0
 4 C  s               4.6       2.8       1.5       5.6       0.4       1.4
 4 C  pz              0.6       3.8       1.0       7.9       2.9       1.9
 4 C  px              0.7       0.7       0.4       0.5       5.3       1.0
 4 C  py              0.7       2.6       1.7       5.5       0.5       6.3
 4 C  dz2             0.0       0.1       0.2       0.4       0.1       0.3
 4 C  dyz             0.0       0.4       0.0       1.6       0.2       0.4
 4 C  dx2y2           0.0       0.1       0.0       0.2       0.1       0.2
 4 C  dxy             0.0       0.0       0.1       0.1       0.2       0.2
 5 O  s               1.2       0.3       3.3       0.6       4.2       2.0
 5 O  pz              0.3       0.2       2.4       2.0       1.9       1.8
 5 O  px              0.1       0.3       0.4       0.0       0.5       0.1
 5 O  py              0.0       0.1       0.1       0.1       0.1       0.9
 5 O  dxz             0.0       0.3       0.0       0.0       0.2       0.2
 6 C  s               3.2       8.0       5.6       0.2       0.0       6.6
 6 C  pz              4.9       1.0       2.8       1.1       6.3       4.1
 6 C  px              1.4       0.7       1.8       6.3      11.4       1.8
 6 C  py              0.3       0.5       0.4       0.1       2.6       0.3
 6 C  dz2             0.1       0.0       0.2       0.2       0.7       0.2
 6 C  dxz             0.3       0.1       0.6       0.5       0.9       0.6
 6 C  dx2y2           0.1       0.0       0.0       0.1       0.4       0.1
 6 C  dxy             0.0       0.0       0.0       0.2       0.1       0.0
 7 H  s              16.9       0.2       0.5       8.8       4.3       0.6
 8 H  s               7.9       1.7      16.0       5.3       1.9      11.0
 9 H  s               4.5      13.0       0.1       1.1       0.2       5.6
10 H  s               6.9       8.1      16.6       0.3       0.6       0.7
11 H  s               2.5       3.1       1.5       1.6       8.0       4.9
12 H  s               7.5       3.1       1.1       4.1       8.8       0.7
13 H  s               2.2       6.0       8.0       0.3       4.2       3.9
14 H  s               4.4       8.2       1.5       6.9       6.9       8.0
15 H  s               7.3       0.5       2.7       1.3       1.9       0.7
16 H  s               1.6       7.8       4.5       0.3       4.1       1.3

                     36        37        38        39        40        41   
                   0.11370   0.11604   0.12369   0.12989   0.13352   0.15396
                   0.00000   0.00000   0.00000   0.00000   0.00000   0.00000
                  --------  --------  --------  --------  --------  --------
 0 C  s               0.0       0.3       0.1       0.2       0.3       0.3
 0 C  pz              4.0       2.8       2.1       2.5       1.5       0.2
 0 C  px              1.0       7.1       1.2       3.9       2.0       7.0
 0 C  py              1.8       0.8       0.7       2.3       7.7       0.4
 0 C  dz2             0.1       0.0       0.1       0.0       0.7       0.1
 0 C  dyz             0.2       0.3       0.3       0.2       0.0       0.0
 0 C  dx2y2           0.0       0.3       0.1       0.1       0.1       0.2
 0 C  dxy             0.2       0.9       0.1       0.4       0.0       0.9
 1 O  s               0.1       2.5       1.2       0.1       0.1       1.2
 1 O  pz              0.4       0.5       0.6       0.8       0.0       1.3
 1 O  px              0.1       0.2       0.1       0.3       1.9       0.6
 1 O  py              0.1       0.8       0.0       0.7       0.4       0.5
 1 O  dxz             0.0       0.1       0.0       0.0       0.0       0.0
 1 O  dxy             0.0       0.0       0.0       0.1       0.0       0.2
 2 C  s               0.3       2.4       0.5       0.4       0.0       2.6
 2 C  pz              0.2       0.2       2.8       1.1       0.1       0.8
 2 C  px              0.1       0.4       0.5       0.2       1.8       0.5
 2 C  py              0.8       1.5       7.2       0.1       0.1       1.5
 2 C  dz2             0.0       0.0       0.3       0.0       0.2       0.0
 2 C  dxz             0.0       0.0       0.0       0.1       0.3       0.1
 2 C  dyz             0.1       0.0       0.1       0.1       0.1       0.1
 2 C  dx2y2           0.0       0.0       0.0       0.0       0.2       0.2
 2 C  dxy             0.0       0.3       0.2       0.0       0.0       0.0
 3 O  s               0.4       0.4       1.2       0.3       2.5       0.6
 3 O  pz              0.0       1.4       0.2       0.3       3.3       0.1
 3 O  px              0.1       0.1       0.7       2.2       0.0       0.1
 3 O  py              0.1       0.1       0.1       1.0       1.0       1.1
 3 O  dyz             0.0       0.0       0.0       0.1       0.2       0.0
 4 C  s               0.8       1.1       1.3       1.7       0.0       1.2
 4 C  pz              3.2       2.0       0.2       2.9       7.5       9.0
 4 C  px              4.8       0.6       3.4       6.8       5.2       0.3
 4 C  py              7.1       1.3       1.0       0.9       9.2       1.0
 4 C  dz2             0.1       0.1       0.2       0.1       0.6       0.0
 4 C  dxz             0.0       0.1       0.0       0.1       0.1       0.1
 4 C  dyz             0.2       0.4       0.1       0.4       1.6       0.9
 4 C  dx2y2           0.0       0.1       0.1       0.0       0.5       0.1
 4 C  dxy             0.4       0.0       0.0       0.6       0.1       0.1
 5 O  s               0.1       0.3       0.2       1.9       1.1       0.1
 5 O  pz              0.1       0.1       0.2       1.3       0.4       0.1
 5 O  px              0.0       0.4       0.1       0.6       0.0       0.6
 5 O  py              0.2       0.0       0.5       0.6       0.7       1.2
 5 O  dz2             0.0       0.0       0.1       0.0       0.0       0.2
 5 O  dxz             0.0       0.0       0.0       0.2       0.0       0.0
 5 O  dyz             0.1       0.1       0.0       0.0       0.0       0.0
 5 O  dx2y2           0.0       0.0       0.1       0.1       0.1       0.0
 5 O  dxy             0.0       0.2       0.1       0.0       0.0       0.0
 6 C  s               0.0       0.0       0.3       0.0       0.2       0.3
 6 C  pz              0.4       0.1       5.2      11.3       2.2       2.0
 6 C  px              0.6       1.2       7.6       1.3       1.5       1.3
 6 C  py              4.6      12.7       0.2       0.1       1.1       6.3
 6 C  dz2             0.0       0.0       0.1       0.1       0.1       0.3
 6 C  dxz             0.2       0.0       0.0       1.3       0.4       0.1
 6 C  dyz             0.0       0.0       0.3       0.2       0.0       0.1
 6 C  dx2y2           0.2       0.8       0.2       0.1       0.1       0.0
 6 C  dxy             0.0       0.0       0.3       0.0       0.0       0.1
 7 H  s               1.7       1.1       4.6      10.6       8.2       0.8
 8 H  s               9.4       6.8       1.1       0.2       0.1       0.0
 9 H  s               4.3       4.9       0.0       6.6      15.0       3.7
10 H  s               0.0       5.8      11.2       1.8       1.0       7.1
11 H  s               8.9       0.1       1.7       0.9       1.0      20.2
12 H  s               0.1       0.1       1.3      19.3      14.5       0.1
13 H  s              28.9       1.3       5.7       2.1       0.1       0.4
14 H  s               2.8      10.4      15.2       0.6       0.2       0.2
15 H  s               1.6       1.7      14.2       7.3       0.1      14.5
16 H  s               8.4      22.6       1.9       0.1       2.4       7.0

                     42        43        44        45        46        47   
                   0.22511   0.23317   0.24882   0.39402   0.41305   0.41762
                   0.00000   0.00000   0.00000   0.00000   0.00000   0.00000
                  --------  --------  --------  --------  --------  --------
 0 C  s               0.3       0.1       0.1       3.6       1.4       0.0
 0 C  pz              2.8       1.2       0.2       8.4       1.5       5.6
 0 C  px              0.6       2.6       1.1      22.8      10.0       4.4
 0 C  py              0.6       1.0       2.0       4.3       7.3      10.9
 0 C  dz2             0.0       0.1       0.2       0.1       2.5       1.8
 0 C  dxz             0.1       0.3       0.2       0.0       0.0       0.0
 0 C  dyz             0.4       0.0       0.1       1.9       0.4       1.4
 0 C  dx2y2           0.1       0.4       0.4       0.0       0.0       0.0
 0 C  dxy             0.0       0.4       0.0       0.3       1.7       1.0
 1 O  s               1.1       1.0       1.0       0.2       0.2       0.1
 1 O  pz              3.4       4.4       0.6       0.1       1.3       0.9
 1 O  px              0.1       5.6       1.1       1.9       1.5       0.4
 1 O  py              5.2       1.8       6.2       1.0       0.2       3.7
 1 O  dz2             0.1       0.3       0.0       0.4       0.0       0.0
 1 O  dxz             0.1       0.3       0.1       0.2       0.0       0.0
 1 O  dyz             0.7       0.1       0.4       0.1       0.1       0.1
 1 O  dx2y2           0.4       0.0       0.2       0.4       0.3       0.0
 1 O  dxy             0.0       0.0       0.1       0.7       0.0       0.0
 2 C  s               1.3       0.3      21.4       0.7       4.6       0.1
 2 C  pz              8.3       5.3       5.7       1.1       0.1       0.2
 2 C  px             26.0       5.9       2.6       4.8       8.4       0.9
 2 C  py              0.6      24.8       5.5       1.0       1.2       4.5
 2 C  dz2             0.6       1.4       2.4       0.2       0.5       0.0
 2 C  dxz             0.2       0.0       0.2       0.6       0.1       0.1
 2 C  dyz             1.3       2.8       1.3       0.0       0.1       0.0
 2 C  dx2y2           2.6       0.2       0.4       0.0       0.0       0.0
 2 C  dxy             2.1       2.2       0.0       0.2       0.0       0.0
 3 O  s               0.5       1.4       1.8       0.0       0.1       0.0
 3 O  pz              0.0       3.5       0.0       0.4       0.0       0.1
 3 O  px              0.0       1.7       6.5       0.1       1.3       0.4
 3 O  py              8.7       5.2       4.3       1.6       0.0       1.2
 3 O  dz2             0.2       0.1       0.3       0.1       0.0       0.1
 3 O  dxz             0.1       0.1       0.0       0.1       0.0       0.0
 3 O  dyz             0.1       0.0       0.1       0.2       0.0       0.0
 3 O  dx2y2           0.5       0.0       0.0       0.0       0.0       0.0
 3 O  dxy             0.1       0.4       1.1       0.2       0.0       0.0
 4 C  s               0.1       0.4       0.6       0.4       0.0       0.0
 4 C  pz              1.1       3.0       0.3       5.7       1.0       6.2
 4 C  px              1.3       0.6       0.0       6.6       6.3       0.6
 4 C  py              0.8       2.0       0.3       1.7       0.7       9.2
 4 C  dz2             0.6       0.3       0.0       0.0       0.3       1.2
 4 C  dxz             0.1       0.2       0.1       0.0       0.2       0.0
 4 C  dyz             0.1       0.6       0.0       0.0       0.2       1.5
 4 C  dx2y2           0.0       0.0       0.0       0.4       0.0       1.0
 4 C  dxy             0.1       0.3       0.0       1.2       2.0       0.2
 5 O  s               0.5       0.5       2.4       0.0       0.0       0.1
 5 O  pz              4.1       0.1       0.0       0.2       0.0       0.2
 5 O  px              6.1       0.2      16.2       1.5       0.4       0.2
 5 O  py              0.5       2.8       0.0       0.3       1.6       1.2
 5 O  dz2             0.1       0.1       0.4       0.0       0.3       0.0
 5 O  dxz             0.0       0.2       0.3       0.1       0.0       0.0
 5 O  dx2y2           0.1       0.1       0.8       0.0       0.4       0.0
 5 O  dxy             0.1       0.3       0.1       0.1       0.1       0.0
 6 C  s               0.4       0.3       0.0       1.3       0.1       0.6
 6 C  pz              4.7       2.3       2.1       1.1       3.6       0.5
 6 C  px              2.0       0.5       0.2       4.1       3.4       2.2
 6 C  py              0.5       1.1       0.0       1.1       3.3       6.4
 6 C  dz2             0.7       0.1       0.6       0.2       1.0       0.5
 6 C  dxz             0.8       0.1       0.1       0.1       0.5       0.2
 6 C  dyz             0.3       0.0       0.1       0.4       0.6       0.4
 6 C  dx2y2           0.0       0.0       0.0       0.1       0.2       0.7
 6 C  dxy             0.0       0.0       0.0       0.1       0.7       0.1
 7 H  s               1.2       2.4       0.1       5.0       0.2       6.6
 8 H  s               0.7       1.2       2.3       1.1       3.7       0.1
 9 H  s               0.0       0.1       0.9       0.8       8.7       5.8
10 H  s               0.0       0.9       1.1       1.0       0.8       0.2
11 H  s               0.6       0.2       0.2       0.4       1.0       7.2
12 H  s               1.4       0.2       0.0       3.4       1.2       1.3
13 H  s               0.1       2.3       0.3       1.2       4.3       1.9
14 H  s               1.1       0.0       0.8       0.3       2.6       0.0
15 H  s               0.1       0.0       1.6       1.3       5.7       1.7
16 H  s               0.3       1.5       0.0       1.4       0.1       4.1

                     48        49        50        51        52        53   
                   0.43098   0.43619   0.44667   0.45166   0.47838   0.49353
                   0.00000   0.00000   0.00000   0.00000   0.00000   0.00000
                  --------  --------  --------  --------  --------  --------
 0 C  s               0.1       0.3       1.0       0.3       4.9       1.3
 0 C  pz              0.7       1.0       1.4       6.0       2.4       0.3
 0 C  px              0.2       4.0       3.1       7.2       7.3       0.5
 0 C  py              0.5       0.6       1.3       0.5       6.4      12.1
 0 C  dz2             0.1       0.2       0.0       0.2       0.2       2.6
 0 C  dxz             0.2       0.0       0.0       0.0       0.0       0.1
 0 C  dyz             0.6       0.2       0.6       3.0       0.9       0.1
 0 C  dx2y2           0.1       0.0       0.0       0.0       0.1       0.0
 0 C  dxy             0.4       0.9       0.1       0.0       0.1       0.4
 1 O  s               0.0       1.2       1.1       0.3       0.0       0.2
 1 O  pz              1.2       0.1       0.0       0.0       0.1       0.2
 1 O  px              0.0       0.4       0.4       1.3       2.2       0.1
 1 O  py              0.5       0.7       0.0       0.1       1.5       0.0
 1 O  dz2             0.1       0.0       0.1       0.0       0.1       0.0
 1 O  dxz             0.1       0.0       0.0       0.1       0.0       0.0
 1 O  dyz             1.0       0.0       0.0       0.2       0.0       0.1
 1 O  dx2y2           0.1       0.1       0.1       0.0       0.1       0.0
 1 O  dxy             0.2       0.0       0.1       0.1       0.4       0.2
 2 C  s               7.9       3.3       0.6       0.8       9.1       0.9
 2 C  pz              7.1       0.3       0.1       2.3       0.1       1.8
 2 C  px              1.7       0.6       6.3       5.4      10.4       7.3
 2 C  py              8.4       0.3       0.2      16.2      13.5      18.4
 2 C  dz2             0.1       0.0       0.0       0.1       0.0       0.3
 2 C  dxz             0.0       0.1       0.3       0.0       0.0       0.3
[...]
 1 O  dx2y2           0.1      10.0      13.7      11.9       2.6       0.0
 1 O  dxy             0.1       0.1       3.8       0.3      35.8       0.3
 2 C  s               0.0       0.0       0.5       0.1       0.9       0.7
 2 C  pz              0.1       0.3       0.7       0.7       0.3       0.1
 2 C  px              0.3       1.0       0.1       0.4       0.3       0.2
 2 C  py              0.0       0.1       1.0       0.5       0.2       0.3
 2 C  dz2             0.2       0.6       0.7       5.4       0.3       0.4
 2 C  dxz             1.1       4.5       0.2       1.6       0.0       0.5
 2 C  dyz             0.0       0.0       2.2       0.3       3.0       0.8
 2 C  dx2y2           0.9       0.0       0.5       6.1       0.0       3.1
 2 C  dxy             1.2       0.1       0.9       1.7       0.8       1.7
 3 O  s               0.0       0.2       3.1       0.3       0.4       2.7
 3 O  pz              0.4       0.0       0.7       0.0       0.4       0.2
 3 O  px              0.0       0.0       0.6       0.2       0.0       0.0
 3 O  py              0.0       0.0       0.1       0.2       0.1       0.0
 3 O  dz2            24.8       1.0       1.0       0.0       0.6       0.0
 3 O  dxz             0.0       2.3      23.5       2.6       2.6       0.0
 3 O  dyz             1.6       0.9       0.9      13.2       1.3      15.7
 3 O  dx2y2           5.8       1.7       0.1      10.5       3.0      20.5
 3 O  dxy             9.7       0.0      14.5       5.2       0.0       2.3
 4 C  s               0.0       0.1       0.3       0.1       0.3       0.5
 4 C  pz              0.0       0.1       0.2       0.1       0.2       0.6
 4 C  py              0.2       0.0       0.2       0.0       0.1       0.2
 4 C  dz2             3.9       0.4       0.0       0.0       0.2       1.9
 4 C  dxz             0.2       0.0       0.0       0.2       0.0       0.6
 4 C  dyz             0.7       0.1       1.1       0.5       0.5       1.0
 4 C  dx2y2           1.0       0.0       0.3       0.0       0.2       0.0
 4 C  dxy             0.2       0.1       0.2       0.1       0.0       0.1
 5 O  s               0.0       2.5       0.0       0.4       1.0       2.4
 5 O  pz              0.3       1.0       0.0       0.0       0.0       0.4
 5 O  px              0.1       0.3       0.0       0.0       0.0       0.2
 5 O  py              0.0       0.2       0.1       0.0       0.0       0.2
 5 O  dz2             1.2       4.9       0.1       1.4       0.0       2.1
 5 O  dxz             8.3       3.7       2.3       0.2       1.9      22.7
 5 O  dyz            15.3      18.0       0.3       1.3       1.1       1.6
 5 O  dx2y2           0.0      11.6       4.5       4.2       7.9       4.5
 5 O  dxy             7.1       1.1       8.0       9.9       0.1       4.7
 6 C  s               0.0       0.3       0.0       0.0       0.1       0.8
 6 C  pz              0.0       0.2       0.0       0.0       0.1       0.9
 6 C  px              0.0       0.2       0.0       0.0       0.0       0.3
 6 C  dz2             0.0       0.0       0.1       0.9       0.8       1.3
 6 C  dxz             0.2       0.9       0.1       0.0       0.1       1.8
 6 C  dyz             1.9       0.1       0.0       0.2       0.0       0.7
 6 C  dx2y2           0.8       1.3       0.0       0.0       0.0       0.0
 6 C  dxy             0.4       0.1       0.0       0.0       0.0       0.1

                    114       115       116       117   
                   3.26890   3.32876   3.38938   3.43588
                   0.00000   0.00000   0.00000   0.00000
                  --------  --------  --------  --------
 0 C  s               0.1       0.3       0.1       0.7
 0 C  px              0.1       0.4       0.2       0.6
 0 C  py              0.1       0.1       0.0       0.3
 0 C  dz2             0.1       0.3       0.2       0.6
 0 C  dxz             0.3       0.2       0.1       0.1
 0 C  dyz             0.0       0.0       0.1       0.0
 0 C  dx2y2           0.0       0.5       0.3       0.1
 0 C  dxy             0.2       0.5       0.3       1.2
 1 O  s               0.9       0.0       0.0       0.2
 1 O  pz              0.3       0.1       0.2       0.6
 1 O  px              0.7       0.1       0.0       1.6
 1 O  py              0.6       0.4       0.5       1.7
 1 O  dz2             1.8       4.0       2.1       7.1
 1 O  dxz             8.4       0.3       1.4       3.7
 1 O  dyz             9.9       2.2       4.2      14.9
 1 O  dx2y2           1.7       3.0       3.6       9.3
 1 O  dxy             2.6       6.2       2.9       0.4
 2 C  s               2.3       5.0       0.1       0.2
 2 C  pz              0.6       0.2       0.1       0.7
 2 C  px              0.1       0.2       1.6       2.2
 2 C  py              0.3       0.6       1.6       0.7
 2 C  dz2             0.0       3.5       0.4       1.4
 2 C  dxz             2.2       2.5       1.0       0.9
 2 C  dyz             3.3       0.0       0.4       3.0
 2 C  dx2y2           0.0       0.6       1.2       7.0
 2 C  dxy             0.7       0.2      12.4       0.0
 3 O  s               0.9       0.0       0.9       0.0
 3 O  pz              0.1       0.7       0.4       0.1
 3 O  px              0.0       0.1       0.6       0.1
 3 O  py              0.1       1.5       2.7       0.1
 3 O  dz2             0.6      12.3      13.4       0.4
 3 O  dxz             0.5       0.5       0.6       0.4
 3 O  dyz            15.6      11.5       0.7       0.1
 3 O  dx2y2           2.2       0.0       1.4       1.6
 3 O  dxy             0.5       7.0      26.1       1.6
 4 C  s               0.3       0.9       0.4       0.1
 4 C  pz              0.4       0.7       0.2       0.0
 4 C  py              0.1       0.5       0.3       0.0
 4 C  dz2             0.9       0.2       0.1       0.1
 4 C  dxz             0.4       0.0       0.1       0.0
 4 C  dyz             0.8       2.4       0.9       0.1
 4 C  dx2y2           0.0       0.5       0.3       0.0
 4 C  dxy             0.3       0.0       0.0       0.0
 5 O  s               0.3       0.9       0.4       0.3
 5 O  pz              0.6       0.3       0.0       0.2
 5 O  px              1.1       1.4       0.5       2.3
 5 O  dz2             8.0      10.4       1.5      10.3
 5 O  dxz            18.6       0.1       1.6       5.9
 5 O  dyz             0.4       0.7       0.2       0.2
 5 O  dx2y2           0.3      12.8      10.5       6.0
 5 O  dxy             3.0       1.9       0.4       8.5
 6 C  s               0.8       0.1       0.0       0.4
 6 C  pz              0.9       0.0       0.0       0.3
 6 C  px              0.4       0.2       0.1       0.2
 6 C  dz2             1.4       0.1       0.3       0.2
 6 C  dxz             2.0       0.5       0.0       1.1
 6 C  dyz             0.3       0.1       0.1       0.0
 6 C  dx2y2           0.1       0.2       0.0       0.1
 6 C  dxy             0.3       0.0       0.0       0.0
10 H  s               0.0       0.2       0.0       0.0


                      *****************************
                      * MAYER POPULATION ANALYSIS *
                      *****************************

  NA   - Mulliken gross atomic population
  ZA   - Total nuclear charge
  QA   - Mulliken gross atomic charge
  VA   - Mayer's total valence
  BVA  - Mayer's bonded valence
  FA   - Mayer's free valence

  ATOM       NA         ZA         QA         VA         BVA        FA
  0 C      6.1054     6.0000    -0.1054     3.9005     3.9005    -0.0000
  1 O      8.3291     8.0000    -0.3291     2.1466     2.1466     0.0000
  2 C      5.7053     6.0000     0.2947     4.2813     4.2813    -0.0000
  3 O      8.3190     8.0000    -0.3190     2.1442     2.1442    -0.0000
  4 C      6.1178     6.0000    -0.1178     3.9032     3.9032     0.0000
  5 O      8.3261     8.0000    -0.3261     2.1490     2.1490    -0.0000
  6 C      6.0982     6.0000    -0.0982     3.8907     3.8907    -0.0000
  7 H      0.9031     1.0000     0.0969     0.9583     0.9583    -0.0000
  8 H      0.8816     1.0000     0.1184     0.9561     0.9561    -0.0000
  9 H      0.8935     1.0000     0.1065     0.9686     0.9686    -0.0000
 10 H      0.9520     1.0000     0.0480     0.9752     0.9752    -0.0000
 11 H      0.9018     1.0000     0.0982     0.9665     0.9665     0.0000
 12 H      0.8930     1.0000     0.1070     0.9579     0.9579    -0.0000
 13 H      0.8846     1.0000     0.1154     0.9554     0.9554    -0.0000
 14 H      0.8870     1.0000     0.1130     0.9559     0.9559    -0.0000
 15 H      0.9063     1.0000     0.0937     0.9595     0.9595    -0.0000
 16 H      0.8963     1.0000     0.1037     0.9674     0.9674    -0.0000

  Mayer bond orders larger than 0.100000
B(  0-C ,  1-O ) :   0.9826 B(  0-C ,  7-H ) :   0.9465 B(  0-C ,  8-H ) :   0.9636 
B(  0-C ,  9-H ) :   0.9429 B(  1-O ,  2-C ) :   1.0401 B(  2-C ,  3-O ) :   1.1009 
B(  2-C ,  5-O ) :   1.0955 B(  2-C , 10-H ) :   0.9007 B(  3-O ,  4-C ) :   0.9778 
B(  4-C , 11-H ) :   0.9367 B(  4-C , 12-H ) :   0.9463 B(  4-C , 13-H ) :   0.9639 
B(  5-O ,  6-C ) :   0.9737 B(  6-C , 14-H ) :   0.9618 B(  6-C , 15-H ) :   0.9438 
B(  6-C , 16-H ) :   0.9528 

-------
TIMINGS
-------

Total SCF time: 0 days 0 hours 0 min 6 sec 

Total time                  ....       6.953 sec
Sum of individual times     ....       6.294 sec  ( 90.5%)

SCF preparation             ....       0.167 sec  (  2.4%)
Fock matrix formation       ....       5.341 sec  ( 76.8%)
  Startup                   ....       0.058 sec  (  1.1% of F)
  Split-RI-J                ....       1.466 sec  ( 27.5% of F)
  XC integration            ....       3.375 sec  ( 63.2% of F)
    Basis function eval.    ....       0.909 sec  ( 26.9% of XC)
    Density eval.           ....       0.313 sec  (  9.3% of XC)
    XC-Functional eval.     ....       0.246 sec  (  7.3% of XC)
    XC-Potential eval.      ....       0.534 sec  ( 15.8% of XC)
Diagonalization             ....       0.000 sec  (  0.0%)
Density matrix formation    ....       0.166 sec  (  2.4%)
Total Energy calculation    ....       0.032 sec  (  0.5%)
Population analysis         ....       0.073 sec  (  1.1%)
Orbital Transformation      ....       0.053 sec  (  0.8%)
Orbital Orthonormalization  ....       0.000 sec  (  0.0%)
DIIS solution               ....       0.381 sec  (  5.5%)
  MO trafo                  ....       0.000 sec  (  0.0 % of DIIS)
  Orb grad                  ....       0.000 sec  (  0.0 % of DIIS)
  Energy W gradient         ....       0.000 sec  (  0.0 % of DIIS)
  DIIS error                ....       0.004 sec  (  1.1 % of DIIS)
  DIIS work                 ....       0.335 sec  ( 88.0 % of DIIS)
  Form Q                    ....       0.000 sec  (  0.0 % of DIIS)
  Form QpQm                 ....       0.000 sec  (  0.0 % of DIIS)
  Exp/Cayley                ....       0.000 sec  (  0.0 % of DIIS)
  Orb update                ....       0.000 sec  (  0.0 % of DIIS)
  Wake-sleep                ....       0.017 sec  (  4.4 % of DIIS)
SOSCF solution              ....       0.080 sec  (  1.1%)
  MO trafo                  ....       0.044 sec  ( 55.2 % of SOSCF)
  Orb grad                  ....       0.002 sec  (  2.6 % of SOSCF)
  Rot update                ....       0.016 sec  ( 19.6 % of SOSCF)
  Step                      ....       0.018 sec  ( 22.5 % of SOSCF)
Finished LeanSCF after   7.0 sec

Maximum memory used throughout the entire LEANSCF-calculation: 11.2 MB


-------------------------------------------------------------------------------
                          DFT DISPERSION CORRECTION                            
                                                                               
                                DFTD4 V3.4.0                                   
-------------------------------------------------------------------------------
The PBE functional is recognized
Active option DFTDOPT                   ...         5   

-------------------------   ----------------
Dispersion correction           -0.012416759
-------------------------   ----------------

------------------   -----------------
gCP correction             0.092859918
------------------   -----------------

-------------------------   --------------------
FINAL SINGLE POINT ENERGY      -383.229230086124
-------------------------   --------------------


------------------------------------------------------------------------------
                              ORCA PROPERTY CALCULATIONS
------------------------------------------------------------------------------

GBWName                                 ... sp.gbw
Number of atoms                         ...     17
Number of basis functions               ...    118
Max core memory                         ...   1024 MB

Electric properties:
Dipole moment                           ... YES
Quadrupole moment                       ...  NO
Static polarizability (Dipole/Dipole)   ...  NO
Static polarizability (Dipole/Quad.)    ...  NO
Static polarizability (Quad./Quad.)     ...  NO
Static polarizability (Velocity)        ...  NO

Atomic electric properties:
Dipole moment                           ...  NO
Quadrupole moment                       ...  NO
Static polarizability                   ...  NO

Choice of electric origin               ... Center of mass
Position of electric origin             ...     0.000003    -0.000002     0.000013

General magnetic properties:
Magnetizability                         ...  NO

EPR properties:
g-Tensor (aka g-matrix)                 ...  NO
Zero-Field splitting spin-orbit         ...  NO
Zero-field splitting spin-spin          ...  NO
Hyperfine couplings                     ...  NO (   0 nuclei)
Quadrupole couplings                    ...  NO (   0 nuclei)
Contact density                         ...  NO (   0 nuclei)

NMR properties:
Chemical shifts                         ...  NO (   0 nuclei)
Spin-rotation constants                 ...  NO (   0 nuclei)
Spin-spin couplings                     ...  NO (   0 nuclei,    0 pairs)

Choice of magnetic origin               ... GIAO
Position of magnetic origin             ...     0.000000     0.000000     0.000000

Properties with geometric perturbations:
SCF Hessian                             ...  NO
IR spectrum                             ...  NO
VCD spectrum                            ...  NO
X-ray spectroscopy properties:
SCF XES/XAS/RIXS spectra                ...  NO


-------------
DIPOLE MOMENT
-------------

Method             : SCF
Type of density    : Electron Density
Multiplicity       :   1
Irrep              :   0
Energy             :  -383.3096732456382938 Eh
Relativity type    : 
Basis              : AO
                                X                 Y                 Z
Electronic contribution:     -0.631727506       0.200146990      -3.220692743
Nuclear contribution   :      0.837195576      -0.455502752       3.821732864
                        -----------------------------------------
Total Dipole Moment    :      0.205468069      -0.255355762       0.601040121
                        -----------------------------------------
Magnitude (a.u.)       :      0.684596903
Magnitude (Debye)      :      1.740107039



--------------------
Rotational spectrum 
--------------------
 
Rotational constants in cm-1:             0.102350             0.082918             0.057200 
Rotational constants in MHz :          3068.384632          2485.805243          1714.827694 

Dipole components along the rotational axes: 
x,y,z [a.u.] :     0.314203    -0.158017     0.587350 
x,y,z [Debye]:     0.798642    -0.401646     1.492925 

 

Dipole moment calculation done in   0.0 sec 

Maximum memory used throughout the entire PROP-calculation: 7.1 MB

--------------------------------
SUGGESTED CITATIONS FOR THIS RUN
--------------------------------

Below you find a list of papers that are relevant to this ORCA run
We neither can nor want to force you to cite these papers, but we appreciate if you do
You receive ORCA, which is the product of decades of hard work by many enthusiastic individuals, for free
The only thing we kindly ask in return is that you cite our papers,
We deeply appreciate it, if you show your appreciation for ORCA by not just citing the generic ORCA reference.

Please note that relegating all ORCA citations to the supporting information does *not* help us.
SI sections are not indexed - citations you put there will not count into any citation statistics
But we need these citations in order to attract the funding resources that allow us to do what we are doing

Therefore, if you are a happy ORCA user, please consider citing a few of the papers listed below in the main body of your paper

In addition to the list printed below, the program has created the file sp.bibtex that contains the list in bibtex format
You can import this file easily into all common literature databanks and citation aid programs


List of essential papers. We consider these as the minimum necessary citations

  1. Neese,F.
     Software update: the ORCA program system, version 5.0
     WIRES Comput. Molec. Sci., 2022 12(1)e1606
     doi.org/10.1002/wcms.1606

List of papers to cite with high priority. The work reported in these papers was absolutely
necessary for this run to complete.
Our perspective: the developers of density functionals and basis sets usually get cited in chemistry papers
Good! But without the algorithms to do something with them, the functionals or basis sets would not do anything.
Hence, in our opinion, the algorithm design and method developments papers are equally worthy of getting cited

  1. Neese,F.
     An improvement of the resolution of the identity approximation for the formation of the Coulomb matrix
     J. Comp. Chem., 2003 24(14)1740-1747
     doi.org/10.1002/jcc.10318
  2. Neese,F.
     The SHARK Integral Generation and Digestion System
     J. Comp. Chem., 2022  1-16
     doi.org/10.1002/jcc.26942
  3. Caldeweyher,E.; Bannwarth,C.; Grimme,S.
     Extension of the D3 dispersion coefficient model
     J. Chem. Phys., 2017 147 034112-XXXX
     doi.org/10.1063/1.4993215
  4. Caldeweyher,E.; Ehlert,S.; Hansen,A.; Neugebauer,H.; Spicher,S.; Bannwarth,C.; Grimme,S.
     A generally applicable atomic-charge dependent London dispersion correction
     J. Chem. Phys., 2019 150 154122-XXXX
     doi.org/10.1063/1.5090222
  5. Caldeweyher,E.; Mewes,J.; Ehlert,S.; Grimme,S.
     Extension and evaluation of the D4 London-dispersion model for periodic systems
     Phys. Chem. Chem. Phys., 2020 22(16)8499-8512
     doi.org/10.1039/D0CP00502A

List of suggested additional citations. These are papers that are important in the 'surrounding' of 
of this run, or papers that preceded the highly important papers. If you like your results we are grateful for a citation.

  1. Neese,F.
     The ORCA program system
     WIRES Comput. Molec. Sci., 2012 2(1)73-78
     doi.org/10.1002/wcms.81
  2. Neese,F.
     Software update: the ORCA program system, version 4.0
     WIRES Comput. Molec. Sci., 2018 8(1)1-6
     doi.org/10.1002/wcms.1327
  3. Neese,F.; Wennmohs,F.; Becker,U.; Riplinger,C.
     The ORCA quantum chemistry program package
     J. Chem. Phys., 2020 152 Art. No. L224108
     doi.org/10.1063/5.0004608

List of optional additional citations

  1. Neese,F.
     Approximate second-order SCF convergence for spin unrestricted wavefunctions
     Chem. Phys. Lett., 2000 325(1-3)93-98
     doi.org/10.1016/s0009-2614(00)00662-x

Timings for individual modules:

Sum of individual times          ...        8.690 sec (=   0.145 min)
Startup calculation              ...        0.819 sec (=   0.014 min)   9.4 %
SCF iterations                   ...        7.763 sec (=   0.129 min)  89.3 %
Property calculations            ...        0.108 sec (=   0.002 min)   1.2 %
                             ****ORCA TERMINATED NORMALLY****
TOTAL RUN TIME: 0 days 0 hours 0 minutes 9 seconds 556 msec
