22
 energy: -292.321375333758 gnorm: 0.002495432432 xtb: 6.7.1 (edcfbbe)
C            1.95760483237279       -0.00402650577183        1.07641021944758
C            1.36113039797858       -0.42395758948295       -0.27016646926796
C            1.51522562041226        0.67813700421894       -1.31156753992319
N           -0.04600516875232       -0.89079492219646       -0.16607744925362
C           -1.01794872155969        0.15241045210652        0.25728711043624
C           -1.87022816958291       -0.37481369667535        1.40760240497313
C           -1.89972172636216        0.58262201327499       -0.91355776900572
H            1.45461679031166        0.87971984272729        1.48418803297673
H            1.86651568085651       -0.81698565403859        1.80587943810577
H            3.02149199665510        0.23866460726375        0.97214095353184
H            1.93365314580126       -1.29145557123071       -0.62474011213309
H            0.99220917188921        1.59271589246488       -1.01371797347644
H            1.13087306488681        0.36156624685726       -2.28702107489787
H            2.57528941675406        0.92787536808480       -1.43072703835062
H           -0.03912818195815       -1.59893832601224        0.56409442159207
H           -0.48632818530147        1.04262153085782        0.62258567651909
H           -2.62901815724258        0.35830951407540        1.69804328990833
H           -2.38809100352221       -1.29642295104714        1.11381878637978
H           -1.25060249804766       -0.59290493389822        2.28530893235455
H           -1.29875491399821        0.91687918266954       -1.76445844481763
H           -2.55794613791847        1.40758921696898       -0.61745528953070
H           -2.52742980875772       -0.25154048284536       -1.24879332676127
22
 energy: -292.321387396803 gnorm: 0.001140765494 xtb: 6.7.1 (edcfbbe)
C            1.95950146567623       -0.00343582482094        1.07631736834846
C            1.36134138630880       -0.42457370629117       -0.26945840433794
C            1.51607815300796        0.67745535961571       -1.31093904832040
N           -0.04551626204450       -0.89013282800759       -0.16595231108595
C           -1.01898405727864        0.15227088422698        0.25747002793926
C           -1.87146598940777       -0.37494460090451        1.40698920171749
C           -1.90083899039519        0.58225631701610       -0.91327448281729
H            1.45790969616921        0.88142321306599        1.48332148120707
H            1.87092216324217       -0.81493825163316        1.80749699575684
H            3.02282899685573        0.23871643691246        0.96848161980084
H            1.93302703974626       -1.29311587683342       -0.62323248284954
H            0.99476596856465        1.59307661408763       -1.01188832480495
H            1.13005358244177        0.36287048066337       -2.28592372358388
H            2.57558196351624        0.92646546803897       -1.42989696254701
H           -0.04077776808447       -1.59948130800407        0.56187887774218
H           -0.48772371169113        1.04274108808959        0.62231543174386
H           -2.62993867651364        0.35867254311325        1.69775694359111
H           -2.38980419516637       -1.29582681066892        1.11224655309523
H           -1.25291874277843       -0.59389733427503        2.28491481933762
H           -1.29945705184396        0.91777336040450       -1.76319417501557
H           -2.56005516821510        1.40635045064081       -0.61711591422784
H           -2.52712288691646       -0.25245564352371       -1.24923659975986
22
 energy: -292.321393716222 gnorm: 0.001205846503 xtb: 6.7.1 (edcfbbe)
C            1.96386024734744       -0.00134307585689        1.07568895845363
C            1.36042621663517       -0.42548974640636       -0.26755885667889
C            1.51824805738168        0.67595918925095       -1.30934470635893
N           -0.04569419651030       -0.88854549986626       -0.16523649080902
C           -1.02096738831653        0.15310361890044        0.25831378033770
C           -1.87377473703520       -0.37578812158296        1.40581891499182
C           -1.90280415814580        0.58153656074502       -0.91308152971021
H            1.46547015524273        0.88591756481987        1.48127989365327
H            1.87979020756263       -0.80988016808590        1.81041829188606
H            3.02651198022863        0.23946544693832        0.96016291305502
H            1.93070374568770       -1.29592589551715       -0.61960705855759
H            1.00126649741935        1.59367509777957       -1.00704433009768
H            1.12780185512890        0.36521179337642       -2.28330957427165
H            2.57768568482973        0.92184583135121       -1.42907618422301
H           -0.04574151809061       -1.60150854046365        0.55774005318492
H           -0.49024447618944        1.04399510603188        0.62255917811357
H           -2.63138479847712        0.35874036919461        1.69742376617287
H           -2.39405683985116       -1.29457242155395        1.10827865528179
H           -1.25754952345722       -0.59782185053562        2.28426982390528
H           -1.30129751945612        0.92097272614117       -1.76117153416748
H           -2.56545155459315        1.40258926661256       -0.61627819109264
H           -2.52539228694785       -0.25486764867588       -1.25116853844081
22
 energy: -292.321395603310 gnorm: 0.000293889791 xtb: 6.7.1 (edcfbbe)
C            1.96315377043112       -0.00129310798805        1.07587020686831
C            1.36085057053152       -0.42533837909730       -0.26783137238422
C            1.51780803551389        0.67597451768076       -1.30989645934233
N           -0.04535230720897       -0.88839525361290       -0.16507427650370
C           -1.02057274520673        0.15300592413669        0.25841570470292
C           -1.87390031233092       -0.37563974700413        1.40605482993832
C           -1.90236318016285        0.58196099763286       -0.91293204202012
H            1.46455391269715        0.88588863487647        1.48147598039882
H            1.87785801024040       -0.81000747775590        1.81034251052043
H            3.02608972057457        0.23947999988788        0.96146231872992
H            1.93146568494613       -1.29540858325044       -0.61997388222994
H            1.00124234360459        1.59366239825031       -1.00777684403277
H            1.12722497799791        0.36463578322840       -2.28386814835962
H            2.57780470403156        0.92091672630069       -1.43061200398556
H           -0.04453686519075       -1.60157259879001        0.55844301576223
H           -0.48999340478640        1.04384703537012        0.62319833606468
H           -2.63145561694175        0.35858383948461        1.69817820847104
H           -2.39417229214824       -1.29439690855831        1.10813424897500
H           -1.25704880746305       -0.59831038352871        2.28410021864839
H           -1.30105641651759        0.92212151446406       -1.76100022437732
H           -2.56587184503853        1.40235208680742       -0.61602578375206
H           -2.52432222425568       -0.25479735533469       -1.25160723247851
22
 energy: -292.321395603310 gnorm: 0.000293889791 xtb: 6.7.1 (edcfbbe)
C            1.96315377043112       -0.00129310798805        1.07587020686831
C            1.36085057053152       -0.42533837909730       -0.26783137238422
C            1.51780803551389        0.67597451768076       -1.30989645934233
N           -0.04535230720897       -0.88839525361290       -0.16507427650370
C           -1.02057274520673        0.15300592413669        0.25841570470292
C           -1.87390031233092       -0.37563974700413        1.40605482993832
C           -1.90236318016285        0.58196099763286       -0.91293204202012
H            1.46455391269715        0.88588863487647        1.48147598039882
H            1.87785801024040       -0.81000747775590        1.81034251052043
H            3.02608972057457        0.23947999988788        0.96146231872992
H            1.93146568494613       -1.29540858325044       -0.61997388222994
H            1.00124234360459        1.59366239825031       -1.00777684403277
H            1.12722497799791        0.36463578322840       -2.28386814835962
H            2.57780470403156        0.92091672630069       -1.43061200398556
H           -0.04453686519075       -1.60157259879001        0.55844301576223
H           -0.48999340478640        1.04384703537012        0.62319833606468
H           -2.63145561694175        0.35858383948461        1.69817820847104
H           -2.39417229214824       -1.29439690855831        1.10813424897500
H           -1.25704880746305       -0.59831038352871        2.28410021864839
H           -1.30105641651759        0.92212151446406       -1.76100022437732
H           -2.56587184503853        1.40235208680742       -0.61602578375206
H           -2.52432222425568       -0.25479735533469       -1.25160723247851
