      -----------------------------------------------------------      
     |                   =====================                   |     
     |                           x T B                           |     
     |                   =====================                   |     
     |                         S. Grimme                         |     
     |          Mulliken Center for Theoretical Chemistry        |     
     |                    University of Bonn                     |     
      -----------------------------------------------------------      

   * xtb version 6.7.1 (edcfbbe) compiled by 'albert@albert-system' on 2024-07-22

   xtb is free software: you can redistribute it and/or modify it under
   the terms of the GNU Lesser General Public License as published by
   the Free Software Foundation, either version 3 of the License, or
   (at your option) any later version.
   
   xtb is distributed in the hope that it will be useful,
   but WITHOUT ANY WARRANTY; without even the implied warranty of
   MERCHANTABILITY or FITNESS FOR A PARTICULAR PURPOSE.  See the
   GNU Lesser General Public License for more details.
   
   Cite this work as:
   * C. Bannwarth, E. Caldeweyher, S. Ehlert, A. Hansen, P. Pracht,
     J. Seibert, S. Spicher, S. Grimme, WIREs Comput. Mol. Sci., 2020, 11,
     e01493. DOI: 10.1002/wcms.1493
   
   for GFN2-xTB:
   * C. Bannwarth, S. Ehlert and S. Grimme., J. Chem. Theory Comput., 2019,
     15, 1652-1671. DOI: 10.1021/acs.jctc.8b01176
   for GFN1-xTB:
   * S. Grimme, C. Bannwarth, P. Shushkov, J. Chem. Theory Comput., 2017,
     13, 1989-2009. DOI: 10.1021/acs.jctc.7b00118
   for GFN0-xTB:
   * P. Pracht, E. Caldeweyher, S. Ehlert, S. Grimme, ChemRxiv, 2019, preprint.
     DOI: 10.26434/chemrxiv.8326202.v1
   for GFN-FF:
   * S. Spicher and S. Grimme, Angew. Chem. Int. Ed., 2020, 59, 15665-15673.
     DOI: 10.1002/anie.202004239
   
   for ALPB and GBSA implicit solvation:
   * S. Ehlert, M. Stahn, S. Spicher, S. Grimme, J. Chem. Theory Comput.,
     2021, 17, 4250-4261. DOI: 10.1021/acs.jctc.1c00471
   
   for ddCOSMO and CPCM-X implicit solvation:
   * M. Stahn, S. Ehlert, S. Grimme, J. Phys. Chem. A,
     2023, XX, XXXX-XXXX. DOI: 10.1021/acs.jpca.3c04382
   
   for DFT-D4:
   * E. Caldeweyher, C. Bannwarth and S. Grimme, J. Chem. Phys., 2017,
     147, 034112. DOI: 10.1063/1.4993215
   * E. Caldeweyher, S. Ehlert, A. Hansen, H. Neugebauer, S. Spicher,
     C. Bannwarth and S. Grimme, J. Chem. Phys., 2019, 150, 154122.
     DOI: 10.1063/1.5090222
   * E. Caldeweyher, J.-M. Mewes, S. Ehlert and S. Grimme, Phys. Chem. Chem. Phys.
     2020, 22, 8499-8512. DOI: 10.1039/D0CP00502A
   
   for sTDA-xTB:
   * S. Grimme and C. Bannwarth, J. Chem. Phys., 2016, 145, 054103.
     DOI: 10.1063/1.4959605
   
   in the mass-spec context:
   * V. Asgeirsson, C. Bauer and S. Grimme, Chem. Sci., 2017, 8, 4879.
     DOI: 10.1039/c7sc00601b
   * J. Koopman and S. Grimme, ACS Omega 2019, 4, 12, 15120-15133.
     DOI: 10.1021/acsomega.9b02011
   
   for metadynamics refer to:
   * S. Grimme, J. Chem. Theory Comput., 2019, 155, 2847-2862
     DOI: 10.1021/acs.jctc.9b00143
   
   for SPH calculations refer to:
   * S. Spicher and S. Grimme, J. Chem. Theory Comput., 2021, 17, 1701-1714
     DOI: 10.1021/acs.jctc.0c01306
   
   for ONIOM refer to:
   * C. Plett, A. Katbashev, S. Ehlert, S. Grimme, M. Bursch,
     Phys. Chem. Chem. Phys., 2023, 25, 17860-17868. DOI: 10.1039/D3CP02178E
   
   for DIPRO refer to:
   * J. Kohn, N. Gildemeister, S. Grimme, D. Fazzi, A. Hansen,
     J. Chem. Phys., 2023, just accepted.
   
   for PTB refer to:
   * S. Grimme, M. Mueller, A. Hansen, J. Chem. Phys., 2023, 158, 124111.
     DOI: 10.1063/5.0137838
   
   with help from (in alphabetical order)
   P. Atkinson, C. Bannwarth, F. Bohle, G. Brandenburg, E. Caldeweyher
   M. Checinski, S. Dohm, S. Ehlert, S. Ehrlich, I. Gerasimov, C. Hölzer
   A. Katbashev, J. Kohn, J. Koopman, C. Lavigne, S. Lehtola, F. März, M. Müller,
   F. Musil, H. Neugebauer, J. Pisarek, C. Plett, P. Pracht, F. Pultar,
   J. Seibert, P. Shushkov, S. Spicher, M. Stahn, M. Steiner, T. Strunk,
   J. Stückrath, T. Rose, and J. Unsleber
   
 * started run on 2025/04/11 at 16:45:30.349     
   ID    Z sym.   atoms
    1    6 C      1-4, 7, 8
    2    8 O      5, 6
    3    1 H      9-20

           -------------------------------------------------
          |                Calculation Setup                |
           -------------------------------------------------

          program call               : /srv/scratch/z5358697/.xtb/bin/xtb xtb_opt.coord --opt normal --orca -I xtb_opt-xcontrol-inp
          hostname                   : k061
          coordinate file            : xtb_opt.coord
          omp threads                :                    16

           -------------------------------------------------
          |                   Orca driver                   |
           -------------------------------------------------
orca executable           : /apps/z_install_tree/linux-rocky8-ivybridge/gcc-12.2.0/orca-6.0.0-srtngmq3qlimg2qxbl6avaaiffipurdx/bin/orca
orca input file           : xtb_opt.inp
orca input line           : 
orca parallel             : true
orca number of threads    : 16
                         * ORCA takes the control...
  ------------------------------------------------------------------------

                                 *****************
                                 * O   R   C   A *
                                 *****************

                                            #,                                       
                                            ###                                      
                                            ####                                     
                                            #####                                    
                                            ######                                   
                                           ########,                                 
                                     ,,################,,,,,                         
                               ,,#################################,,                 
                          ,,##########################################,,             
                       ,#########################################, ''#####,          
                    ,#############################################,,   '####,        
                  ,##################################################,,,,####,       
                ,###########''''           ''''###############################       
              ,#####''   ,,,,##########,,,,          '''####'''          '####       
            ,##' ,,,,###########################,,,                        '##       
           ' ,,###''''                  '''############,,,                           
         ,,##''                                '''############,,,,        ,,,,,,###''
      ,#''                                            '''#######################'''  
     '                                                          ''''####''''         
             ,#######,   #######,   ,#######,      ##                                
            ,#'     '#,  ##    ##  ,#'     '#,    #''#        ,####,   ,####,        
            ##       ##  ##   ,#'  ##            #'  '#       #'       #'  '#        
            ##       ##  #######   ##           ,######,      #####,   #    #        
            '#,     ,#'  ##    ##  '#,     ,#' ,#      #,     #,   #   #,  ,#        
             '#######'   ##     ##  '#######'  #'      '#     '####' # '####'        



                #########################################################
                #                        -***-                          #
                #          Department of theory and spectroscopy        #
                #                                                       #
                #                      Frank Neese                      #
                #                                                       #
                #     Directorship, Architecture, Infrastructure        #
                #                    SHARK, DRIVERS                     #
                #        Core code/Algorithms in most modules           #
                #                                                       #
                #        Max Planck Institute fuer Kohlenforschung      #
                #                Kaiser Wilhelm Platz 1                 #
                #                 D-45470 Muelheim/Ruhr                 #
                #                      Germany                          #
                #                                                       #
                #                  All rights reserved                  #
                #                        -***-                          #
                #########################################################


                         Program Version 6.0.0  -   RELEASE  -


 With contributions from (in alphabetic order):
   Daniel Aravena         : Magnetic Suceptibility
   Michael Atanasov       : Ab Initio Ligand Field Theory (pilot matlab implementation)
   Alexander A. Auer      : GIAO ZORA, VPT2 properties, NMR spectrum
   Ute Becker             : All parallelization in ORCA, NUMFREQ, NUMCALC
   Giovanni Bistoni       : ED, misc. LED, open-shell LED, HFLD
   Martin Brehm           : Molecular dynamics
   Dmytro Bykov           : pre 5.0 version of the SCF Hessian
   Marcos Casanova-Páez   : Triplet and SCS-CIS(D). UHF-(DLPNO)-IP/EA/STEOM-CCSD. UHF-CVS-IP/STEOM-CCSD
   Vijay G. Chilkuri      : MRCI spin determinant printing, contributions to CSF-ICE
   Pauline Colinet        : FMM embedding
   Dipayan Datta          : RHF DLPNO-CCSD density
   Achintya Kumar Dutta   : EOM-CC, STEOM-CC
   Nicolas Foglia         : Exact transition moments, OPA infrastructure, MCD improvements
   Dmitry Ganyushin       : Spin-Orbit,Spin-Spin,Magnetic field MRCI
   Miquel Garcia          : C-PCM and meta-GGA Hessian, CCSD/C-PCM, Gaussian charge scheme
   Tiago L. C. Gouveia    : GS-ROHF, GS-ROCIS
   Yang Guo               : DLPNO-NEVPT2, F12-NEVPT2, CIM, IAO-localization
   Andreas Hansen         : Spin unrestricted coupled pair/coupled cluster methods
   Ingolf Harden          : AUTO-CI MPn and infrastructure 
   Benjamin Helmich-Paris : MC-RPA, TRAH-(SCF,CASSCF), AVAS, COSX integrals, SCF dyn. polar.
   Lee Huntington         : MR-EOM, pCC
   Robert Izsak           : Overlap fitted RIJCOSX, COSX-SCS-MP3, EOM
   Riya Kayal             : Wick's Theorem for AUTO-CI, AUTO-CI UHF-CCSDT
   Emily Kempfer          : AUTO-CI, RHF CISDT and CCSDT
   Christian Kollmar      : KDIIS, OOCD, Brueckner-CCSD(T), CCSD density, CASPT2, CASPT2-K, improved NEVPT2
   Axel Koslowski         : Symmetry handling
   Simone Kossmann        : Meta GGA functionals, TD-DFT gradient, OOMP2, (MP2 Hessian; deprecated post 5.0)
   Lucas Lang             : DCDCAS
   Marvin Lechner         : AUTO-CI (C++ implementation), FIC-MRCC
   Spencer Leger          : CASSCF response
   Dagmar Lenk            : GEPOL surface, SMD, ORCA-2-JSON
   Dimitrios Liakos       : Extrapolation schemes; Compound Job, initial MDCI parallelization
   Dimitrios Manganas     : Further ROCIS development; embedding schemes. LFT, Crystal Embedding
   Dimitrios Pantazis     : SARC Basis sets
   Anastasios Papadopoulos: AUTO-CI, single reference methods and gradients
   Taras Petrenko         : pre 6.0 DFT Hessian and TD-DFT gradient, (ASA, deprecated), ECA, 1-Electron XAS/XES, NRVS
   Peter Pinski           : DLPNO-MP2, DLPNO-MP2 Gradient
   Christoph Reimann      : Effective Core Potentials
   Marius Retegan         : Local ZFS, SOC
   Christoph Riplinger    : Optimizer, TS searches, QM/MM, DLPNO-CCSD(T), (RO)-DLPNO pert. Triples
   Michael Roemelt        : Original ROCIS implementation
   Masaaki Saitow         : Open-shell DLPNO-CCSD energy and density
   Barbara Sandhoefer     : DKH picture change effects
   Kantharuban Sivalingam : CASSCF convergence/infrastructure, NEVPT2 and variants, FIC-MRCI
   Bernardo de Souza      : ESD, SOC TD-DFT
   Georgi Stoychev        : AutoAux, RI-MP2 NMR, DLPNO-MP2 response, X2C
   Van Anh Tran           : RI-MP2 g-tensors
   Willem Van den Heuvel  : Paramagnetic NMR
   Zikuan Wang            : NOTCH, Electric field optimization 
   Frank Wennmohs         : Technical directorship and infrastructure
   Hang Xu                : AUTO-CI-Response properties 


 We gratefully acknowledge several colleagues who have allowed us to
 interface, adapt or use parts of their codes:
   Stefan Grimme, W. Hujo, H. Kruse, P. Pracht,  : VdW corrections, initial TS optimization,
                  C. Bannwarth, S. Ehlert,         DFT functionals, gCP, sTDA/sTD-DF
                  L. Wittmann, M. Mueller
   Ed Valeev, F. Pavosevic, A. Kumar             : LibInt (2-el integral package), F12 methods
   Garnet Chan, S. Sharma, J. Yang, R. Olivares  : DMRG
   Ulf Ekstrom                                   : XCFun DFT Library
   Mihaly Kallay                                 : mrcc  (arbitrary order and MRCC methods)
   Frank Weinhold                                : gennbo (NPA and NBO analysis)
   Simon Mueller                                 : openCOSMO-RS
   Christopher J. Cramer and Donald G. Truhlar   : smd solvation model
   Lars Goerigk                                  : TD-DFT with DH, B97 family of functionals
   V. Asgeirsson, H. Jonsson                     : NEB implementation
   FAccTs GmbH                                   : IRC, NEB, NEB-TS, DLPNO-Multilevel, CI-OPT
                                                   MM, QMMM, 2- and 3-layer-ONIOM, Crystal-QMMM,
                                                   LR-CPCM, SF, NACMEs, symmetry and pop. for TD-DFT,
                                                   nearIR, NL-DFT gradient (VV10), updates on ESD,
                                                   ML-optimized integration grids, MBIS, APM,
                                                   GOAT, DOCKER, SOLVATOR, interface openCOSMO-RS
   S Lehtola, MJT Oliveira, MAL Marques          : LibXC Library
   Liviu Ungur et al                             : ANISO software


 Your calculation uses the libint2 library for the computation of 2-el integrals
 For citations please refer to: http://libint.valeyev.net

 Your ORCA version has been built with support for libXC version: 6.2.2
 For citations please refer to: https://libxc.gitlab.io

 This ORCA versions uses:
   CBLAS   interface :  Fast vector & matrix operations
   LAPACKE interface :  Fast linear algebra routines
   SCALAPACK package :  Parallel linear algebra routines
   Shared memory     :  Shared parallel matrices
   BLAS/LAPACK       :  OpenBLAS 0.3.27  USE64BITINT DYNAMIC_ARCH NO_AFFINITY SkylakeX SINGLE_THREADED
        Core in use  :  SkylakeX
   Copyright (c) 2011-2014, The OpenBLAS Project




***************************************
The coordinates will be read from file: xtb_opt.xyz
***************************************


Your calculation utilizes the geometrical counterpoise correction gCP
Please cite in your paper:
H.Kruse, S. Grimme J.Chem.Phys., 136, (2012), 154101 
   

Your calculation utilizes the atom-pairwise dispersion correction
based on EEQ partial charges (D4)


Your calculation utilizes the SMD solvation module
Please cite in your paper:
A.V. Marenich, C.J. Cramer, D.G. Truhlar J. Phys. Chem. B, 113, (2009), 6378 

================================================================================

----- Orbital basis set information -----
Your calculation utilizes the basis: def2-mTZVPP
   Stefan Grimme, Andreas Hansen, Sebastian Ehlert, and Jan-Michael Mewes 
   J. Chem. Phys. 154, 064103 (2021). DOI: 10.1063/5.0040021

----- AuxJ basis set information -----
Your calculation utilizes the auxiliary basis: def2/J
   F. Weigend, Phys. Chem. Chem. Phys. 8, 1057 (2006).

================================================================================
                                        WARNINGS
                       Please study these warnings very carefully!
================================================================================

WARNING: Old DensityContainer found on disk!
         Will remove this file - 
         If you want to keep old densities, please start your calculation with a different basename. 

Using LibXC functional ID 497 : Re-regularized SCAN exchange by Furness et al
[ 1]  J. W. Furness, A. D. Kaplan, J. Ning, J. P. Perdew, and J. Sun.,  J. Phys. Chem. Lett. 11, 8208-8215 (2020)
[ 2]  J. W. Furness, A. D. Kaplan, J. Ning, J. P. Perdew, and J. Sun.,  J. Phys. Chem. Lett. 11, 9248-9248 (2020)
Using LibXC functional ID 498 : Re-regularized SCAN correlation by Furness et al
[ 1]  J. W. Furness, A. D. Kaplan, J. Ning, J. P. Perdew, and J. Sun.,  J. Phys. Chem. Lett. 11, 8208-8215 (2020)
[ 2]  J. W. Furness, A. D. Kaplan, J. Ning, J. P. Perdew, and J. Sun.,  J. Phys. Chem. Lett. 11, 9248-9248 (2020)
Using LibXC functional ID 497 : Re-regularized SCAN exchange by Furness et al
[ 1]  J. W. Furness, A. D. Kaplan, J. Ning, J. P. Perdew, and J. Sun.,  J. Phys. Chem. Lett. 11, 8208-8215 (2020)
[ 2]  J. W. Furness, A. D. Kaplan, J. Ning, J. P. Perdew, and J. Sun.,  J. Phys. Chem. Lett. 11, 9248-9248 (2020)
Using LibXC functional ID 498 : Re-regularized SCAN correlation by Furness et al
[ 1]  J. W. Furness, A. D. Kaplan, J. Ning, J. P. Perdew, and J. Sun.,  J. Phys. Chem. Lett. 11, 8208-8215 (2020)
[ 2]  J. W. Furness, A. D. Kaplan, J. Ning, J. P. Perdew, and J. Sun.,  J. Phys. Chem. Lett. 11, 9248-9248 (2020)

================================================================================
                                       INPUT FILE
================================================================================
NAME = xtb_opt.inp
|  1> ! r2scan-3c def2/J RI DEFGRID2 scfconv7 ENGRAD tightSCF miniprint
|  2> %cpcm
|  3>     smd true
|  4>     smdsolvent "water"
|  5> end
|  6> * xyzfile 0 1 xtb_opt.xyz
|  7> 
|  8>                          ****END OF INPUT****
================================================================================

                     *******************************
                     * Energy+Gradient Calculation *
                     *******************************

---------------------------------
CARTESIAN COORDINATES (ANGSTROEM)
---------------------------------
  C     -2.681931   -1.247180   -0.330205
  C     -2.600551    0.208318    0.123808
  C     -1.272349    0.535382    0.806959
  C     -0.095696    0.407646   -0.120325
  O     -0.113234    0.681238   -1.309410
  O      1.010572   -0.016500    0.517552
  C      2.228342   -0.098587   -0.286884
  C      3.344504   -0.543272    0.625898
  H     -2.574468   -1.928264    0.520523
  H     -3.643331   -1.454454   -0.809690
  H     -1.892683   -1.483031   -1.052433
  H     -3.405630    0.419887    0.834723
  H     -2.743875    0.879022   -0.729544
  H     -1.110803   -0.091314    1.687222
  H     -1.269913    1.578608    1.148122
  H      2.056586   -0.812595   -1.097736
  H      2.423084    0.887870   -0.718869
  H      4.264011   -0.627347    0.040226
  H      3.512085    0.180994    1.427870
  H      3.126931   -1.520724    1.066882

----------------------------
CARTESIAN COORDINATES (A.U.)
----------------------------
  NO LB      ZA    FRAG     MASS         X           Y           Z
   0 C     6.0000    0    12.011   -5.068116   -2.356828   -0.623998
   1 C     6.0000    0    12.011   -4.914330    0.393663    0.233963
   2 C     6.0000    0    12.011   -2.404390    1.011725    1.524932
   3 C     6.0000    0    12.011   -0.180839    0.770340   -0.227382
   4 O     8.0000    0    15.999   -0.213981    1.287354   -2.474427
   5 O     8.0000    0    15.999    1.909703   -0.031181    0.978032
   6 C     6.0000    0    12.011    4.210956   -0.186303   -0.542132
   7 C     6.0000    0    12.011    6.320196   -1.026636    1.182775
   8 H     1.0000    0     1.008   -4.865039   -3.643892    0.983645
   9 H     1.0000    0     1.008   -6.884898   -2.748520   -1.530093
  10 H     1.0000    0     1.008   -3.576653   -2.802522   -1.988810
  11 H     1.0000    0     1.008   -6.435708    0.793472    1.577399
  12 H     1.0000    0     1.008   -5.185172    1.661111   -1.378638
  13 H     1.0000    0     1.008   -2.099113   -0.172558    3.188388
  14 H     1.0000    0     1.008   -2.399788    2.983137    2.169637
  15 H     1.0000    0     1.008    3.886385   -1.535583   -2.074420
  16 H     1.0000    0     1.008    4.578965    1.677830   -1.358466
  17 H     1.0000    0     1.008    8.057813   -1.185514    0.076016
  18 H     1.0000    0     1.008    6.636879    0.342029    2.698283
  19 H     1.0000    0     1.008    5.909043   -2.873752    2.016115

------------------------------------------------------------------------------
                   ___                                                        
                  /   \      - P O W E R E D   B Y -                         
                 /     \                                                     
                 |  |  |   _    _      __       _____    __    __             
                 |  |  |  | |  | |    /  \     |  _  \  |  |  /  |          
                  \  \/   | |  | |   /    \    | | | |  |  | /  /          
                 / \  \   | |__| |  /  /\  \   | |_| |  |  |/  /          
                |  |  |   |  __  | /  /__\  \  |    /   |      \           
                |  |  |   | |  | | |   __   |  |    \   |  |\   \          
                \     /   | |  | | |  |  |  |  | |\  \  |  | \   \       
                 \___/    |_|  |_| |__|  |__|  |_| \__\ |__|  \__/        
                                                                              
                      - O R C A' S   B I G   F R I E N D -                    
                                      &                                       
                       - I N T E G R A L  F E E D E R -                       
                                                                              
 v1 FN, 2020, v2 2021, v3 2022-2024                                           
------------------------------------------------------------------------------


----------------------
SHARK INTEGRAL PACKAGE
----------------------

Number of atoms                             ...     20
Number of basis functions                   ...    222
Number of shells                            ...    110
Maximum angular momentum                    ...      2
Integral batch strategy                     ... SHARK/LIBINT Hybrid
RI-J (if used) integral strategy            ... SPLIT-RIJ (Revised 2003 algorithm where possible)
Printlevel                                  ...      1
Contraction scheme used                     ... SEGMENTED contraction
Prescreening option                         ... SCHWARTZ
   Thresh                                   ... 3.000e-11
   Tcut                                     ... 1.000e-12
   Tpresel                                  ... 1.000e-12 
Coulomb Range Separation                    ... NOT USED
Exchange Range Separation                   ... NOT USED
Multipole approximations                    ... NOT USED
Finite Nucleus Model                        ... NOT USED
CABS basis                                  ... NOT available
Auxiliary Coulomb fitting basis             ... AVAILABLE
   # of basis functions in Aux-J            ...    524
   # of shells in Aux-J                     ...    180
   Maximum angular momentum in Aux-J        ...      4
Auxiliary J/K fitting basis                 ... NOT available
Auxiliary Correlation fitting basis         ... NOT available
Auxiliary 'external' fitting basis          ... NOT available

Checking pre-screening integrals            ... done (  0.0 sec) Dimension = 110
Check shell pair data                       ... done (  0.0 sec)
Shell pair information
Shell pair cut-off parameter TPreSel        ...   1.0e-12
Total number of shell pairs                 ...      6105
Shell pairs after pre-screening             ...      5310
Total number of primitive shell pairs       ...     21533
Primitive shell pairs kept                  ...     13302
          la=0 lb=0:   1778 shell pairs
          la=1 lb=0:   2003 shell pairs
          la=1 lb=1:    583 shell pairs
          la=2 lb=0:    572 shell pairs
          la=2 lb=1:    322 shell pairs
          la=2 lb=2:     52 shell pairs

Calculating one electron integrals          ... done (  0.0 sec)
Calculating RI/J V-Matrix + Cholesky decomp.... done (  0.1 sec)
Calculating Nuclear repulsion               ... done (  0.0 sec) ENN=    389.343848891936 Eh

Diagonalization of the overlap matrix:
Smallest eigenvalue                        ... 1.651e-04
Time for diagonalization                   ...    0.007 sec
Threshold for overlap eigenvalues          ... 1.000e-07
Number of eigenvalues below threshold      ... 0
Time for construction of square roots      ...    0.020 sec
Total time needed                          ...    0.036 sec

-------------------
DFT GRID GENERATION
-------------------

General Integration Accuracy     IntAcc      ... 4.388
Radial Grid Type                 RadialGrid  ... OptM3 with GC (2021)
Angular Grid (max. ang.)         AngularGrid ... 4 (Lebedev-302)
Angular grid pruning method      GridPruning ... 4 (adaptive)
Weight generation scheme         WeightScheme... mBecke (2022)
Basis function cutoff            BFCut       ... 1.0000e-11
Integration weight cutoff        WCut        ... 1.0000e-14
Partially contracted basis set               ... off
Rotationally invariant grid construction     ... off
Angular grids for H and He will be reduced by one unit
Diffuse basis detected: some atoms will have their outermost
                        angular grid increased by 1.

Total number of grid points                  ...    87467
Total number of batches                      ...     1377
Average number of points per batch           ...       63
Average number of grid points per atom       ...     4373
Initializing property integral containers    ... done (  0.0 sec)

SHARK setup successfully completed in   1.2 seconds

Maximum memory used throughout the entire STARTUP-calculation: 39.4 MB
Occupation numbers will be reassigned to an Aufbau configuration
             **** ENERGY FILE WAS UPDATED (xtb_opt.en.tmp) ****
Finished Guess after   0.4 sec
Maximum memory used throughout the entire GUESS-calculation: 15.1 MB
--------------------
CPCM SOLVATION MODEL
--------------------
CPCM parameters:
  Epsilon                                         ...      78.3550
  Refrac                                          ...       1.3328
  Rsolv                                           ...       1.3000
  Surface type                                    ... GAUSSIAN VDW
  Discretization scheme                           ... Constant charge density
    Threshold for H atoms                         ...       5.0000 (charges/Ang^2)
    Threshold for non-H atoms                     ...       5.0000 (charges/Ang^2)
  Epsilon function type                           ...         CPCM
Solvent:                                          ... WATER
SMD-CDS solvent descriptors:
  Soln                                            ...       1.3328
  Soln25                                          ...       1.3323
  Sola                                            ...       0.0000
  Solb                                            ...       0.0000
  Solg                                            ...       0.0000
  Solc                                            ...       0.0000
  Solh                                            ...       0.0000
Radii:
  Scheme                                          ... Element-dependent radii
  Radius for C  used is    3.4960 Bohr (=   1.8500 Ang.)
  Radius for O  used is    2.8724 Bohr (=   1.5200 Ang.)
  Radius for H  used is    2.2677 Bohr (=   1.2000 Ang.)
Calculating surface                               ...        done! (  0.0s)
Cavity surface points                             ...         1516
Cavity Volume                                     ...     883.4997
Cavity Surface-area                               ...     590.6491
Calculating surface distance matrix               ...        done! (  0.0s)
Performing Cholesky decomposition & store         ...        done! (  0.1s)
Overall time for CPCM initialization              ...                 0.1s

----------------------------------------D-I-I-S--------------------------------------------
Iteration    Energy (Eh)           Delta-E    RMSDP     MaxDP     DIISErr   Damp  Time(sec)
-------------------------------------------------------------------------------------------
               ***  Starting incremental Fock matrix formation  ***
                              *** Initializing SOSCF ***
---------------------------------------S-O-S-C-F--------------------------------------
Iteration    Energy (Eh)           Delta-E    RMSDP     MaxDP     MaxGrad    Time(sec)
--------------------------------------------------------------------------------------
    1    -386.2581738746243900     0.00e+00  1.19e-06  4.84e-05  1.05e-05     3.4
               *** Restarting incremental Fock matrix formation ***
    2    -386.2581738698038407     4.82e-09  2.43e-06  9.82e-05  2.50e-05     3.3
    3    -386.2581738122627257     5.75e-08  1.86e-06  7.08e-05  7.19e-05     2.5
                 **** Energy Check signals convergence ****

               *****************************************************
               *                     SUCCESS                       *
               *           SCF CONVERGED AFTER   3 CYCLES          *
               *****************************************************


SMD CDS free energy correction energy :                 4.84108     Kcal/mol
Total Energy after SMD CDS correction =              -386.250459064 Eh
             **** ENERGY FILE WAS UPDATED (xtb_opt.en.tmp) ****

----------------
TOTAL SCF ENERGY
----------------

Total Energy       :       -386.25045906363300 Eh          -10510.40933 eV

Components:
Nuclear Repulsion  :        389.34384889193552 Eh           10594.58475 eV
Electronic Energy  :       -775.58561162628484 Eh          -21104.75744 eV
One Electron Energy:      -1296.20160648328488 Eh          -35271.43888 eV
Two Electron Energy:        520.61599485700003 Eh           14166.68144 eV
CPCM Dielectric    :         -0.01641107791343 Eh              -0.44657 eV
SMD CDS (Gcds)     :          0.00771474862975 Eh               0.20993 eV

Virial components:
Potential Energy   :       -770.70871028715987 Eh          -20972.05021 eV
Kinetic Energy     :        384.45825122352682 Eh           10461.64088 eV
Virial Ratio       :          2.00466164488446

DFT components:
N(Alpha)           :       32.000027060721 electrons
N(Beta)            :       32.000027060721 electrons
N(Total)           :       64.000054121442 electrons
E(X)               :      -52.039294392554 Eh       
E(C)               :       -2.035350244232 Eh       
E(XC)              :      -54.074644636787 Eh       

CPCM Solvation Model Properties:
Surface-charge          :         -0.04798907631785
Corrected charge        :          0.00000000000000
Outlying charge corr.   :          0.00017212558130 Eh               0.00468 eV
Free-energy (cav+disp)  :          0.00771474862975 Eh               0.20993 eV

---------------
SCF CONVERGENCE
---------------

  Last Energy change         ...   -5.7541e-08  Tolerance :   1.0000e-07
  Last MAX-Density change    ...    7.0815e-05  Tolerance :   1.0000e-07
  Last RMS-Density change    ...    1.8571e-06  Tolerance :   5.0000e-09
  Last DIIS Error            ...    5.9101e-05  Tolerance :   1.0000e-07
  Last Orbital Gradient      ...    7.1868e-05  Tolerance :   1.0000e-04
  Last Orbital Rotation      ...    8.2973e-05  Tolerance :   1.0000e-04


----------------
ORBITAL ENERGIES
----------------

  NO   OCC          E(Eh)            E(eV) 
   0   2.0000     -19.001766      -517.0643 
   1   2.0000     -18.944850      -515.5156 
   2   2.0000     -10.164226      -276.5827 
   3   2.0000     -10.084711      -274.4189 
   4   2.0000     -10.037839      -273.1435 
   5   2.0000     -10.028259      -272.8828 
   6   2.0000     -10.020883      -272.6821 
   7   2.0000     -10.013607      -272.4841 
   8   2.0000      -1.069652       -29.1067 
   9   2.0000      -0.983954       -26.7748 
  10   2.0000      -0.766634       -20.8612 
  11   2.0000      -0.734067       -19.9750 
  12   2.0000      -0.671974       -18.2853 
  13   2.0000      -0.606218       -16.4960 
  14   2.0000      -0.559766       -15.2320 
  15   2.0000      -0.524667       -14.2769 
  16   2.0000      -0.471169       -12.8212 
  17   2.0000      -0.461823       -12.5669 
  18   2.0000      -0.442037       -12.0284 
  19   2.0000      -0.422908       -11.5079 
  20   2.0000      -0.401834       -10.9345 
  21   2.0000      -0.377456       -10.2711 
  22   2.0000      -0.366753        -9.9799 
  23   2.0000      -0.358678        -9.7601 
  24   2.0000      -0.352572        -9.5940 
  25   2.0000      -0.327033        -8.8990 
  26   2.0000      -0.322413        -8.7733 
  27   2.0000      -0.307378        -8.3642 
  28   2.0000      -0.305354        -8.3091 
  29   2.0000      -0.300815        -8.1856 
  30   2.0000      -0.278132        -7.5683 
  31   2.0000      -0.252075        -6.8593 
  32   0.0000      -0.026231        -0.7138 
  33   0.0000       0.075249         2.0476 
  34   0.0000       0.093992         2.5577 
  35   0.0000       0.113122         3.0782 
  36   0.0000       0.131635         3.5820 
  37   0.0000       0.137357         3.7377 
  38   0.0000       0.143428         3.9029 
  39   0.0000       0.150885         4.1058 
  40   0.0000       0.152430         4.1478 
  41   0.0000       0.163803         4.4573 
  42   0.0000       0.170767         4.6468 
*Only the first 10 virtual orbitals were printed.
Total SCF time: 0 days 0 hours 0 min 9 sec 
Finished LeanSCF after  10.0 sec

Maximum memory used throughout the entire LEANSCF-calculation: 30.8 MB


-------------------------------------------------------------------------------
                          DFT DISPERSION CORRECTION                            
                                                                               
                                DFTD4 V3.4.0                                   
-------------------------------------------------------------------------------
-------------------------   ----------------
Dispersion correction           -0.004949717
-------------------------   ----------------

------------------   -----------------
gCP correction             0.011467971
------------------   -----------------

-------------------------   --------------------
FINAL SINGLE POINT ENERGY      -386.243940809181
-------------------------   --------------------

------------------------------------------------------------------------------
                         ORCA SCF GRADIENT CALCULATION
------------------------------------------------------------------------------

Nuc. rep. gradient        (SHARK) ... done (  0.0 sec)
HCore & Overlap gradient  (SHARK) ... done (  0.3 sec)
Split-RIJ-J gradient      (SHARK) ... done (  1.6 sec)
XC gradient                       ... done (  6.2 sec)
CPCM gradient                     ... done (  1.0 sec)
SMD gradient                      ... done (  0.0 sec)
Dispersion correction             ... done (  0.0 sec)

-------------------
DISPERSION GRADIENT
-------------------

   1   C   :   -0.000069786   -0.000051476   -0.000012683
   2   C   :   -0.000065023    0.000010075    0.000006520
   3   C   :   -0.000048895    0.000031304    0.000039975
   4   C   :    0.000001912    0.000032925   -0.000011211
   5   O   :    0.000011589    0.000041962   -0.000065938
   6   O   :    0.000055106    0.000009378    0.000011430
   7   C   :    0.000072299   -0.000001289   -0.000019340
   8   C   :    0.000078609   -0.000019542    0.000016600
   9   H   :   -0.000029561   -0.000028597    0.000002347
  10   H   :   -0.000026874   -0.000020311   -0.000009450
  11   H   :   -0.000031087   -0.000023231   -0.000014637
  12   H   :   -0.000026597    0.000003270    0.000008670
  13   H   :   -0.000022295    0.000007354   -0.000005915
  14   H   :   -0.000016416    0.000005331    0.000028748
  15   H   :   -0.000013250    0.000027373    0.000018770
  16   H   :    0.000028449   -0.000005645   -0.000011057
  17   H   :    0.000023217    0.000004134   -0.000007714
  18   H   :    0.000022544   -0.000006178    0.000003220
  19   H   :    0.000028091   -0.000003215    0.000011704
  20   H   :    0.000027969   -0.000013618    0.000009963

Difference to translation invariance:
           :    0.0000000000    0.0000000000    0.0000000000

Difference to rotation invariance:
           :    0.0000000000    0.0000000000   -0.0000000000

Norm of the Dispersion gradient    ...    0.0002296399
RMS gradient                       ...    0.0000296464
MAX gradient                       ...    0.0000786094
gCP correction                   ... done

------------------
CARTESIAN GRADIENT
------------------

   1   C   :    0.000100413   -0.000639428   -0.000169695
   2   C   :   -0.000447783    0.000620066   -0.000034321
   3   C   :    0.000329294    0.000211843    0.001028862
   4   C   :    0.000393149    0.000036527   -0.000627476
   5   O   :    0.000086792   -0.000267679    0.001019459
   6   O   :    0.000164083   -0.000150455   -0.000762819
   7   C   :   -0.001699272    0.000087425    0.000097879
   8   C   :    0.001234018    0.000071407    0.000457785
   9   H   :   -0.000067377    0.000122020   -0.000198362
  10   H   :    0.000099079    0.000153055   -0.000035716
  11   H   :   -0.000059886    0.000170851    0.000036698
  12   H   :    0.000301728   -0.000261642    0.000005739
  13   H   :    0.000022108   -0.000159063    0.000256993
  14   H   :    0.000017084    0.000522341   -0.000482344
  15   H   :   -0.000101649   -0.000494605   -0.000621860
  16   H   :    0.000115821    0.000032094    0.000117221
  17   H   :   -0.000002725    0.000136307   -0.000032785
  18   H   :   -0.000461250    0.000072814   -0.000058210
  19   H   :    0.000088192   -0.000055311   -0.000112383
  20   H   :   -0.000111817   -0.000208567    0.000115334

Difference to translation invariance:
           :   -0.0000000000   -0.0000000000    0.0000000000

Difference to rotation invariance:
           :    0.0000937299    0.0002073802    0.0001373757

Norm of the Cartesian gradient     ...    0.0033280429
RMS gradient                       ...    0.0004296485
MAX gradient                       ...    0.0016992717

-------
TIMINGS
-------

Total SCF gradient time     ....       10.040 sec

Densities                   ....       0.001 sec  (  0.0%)
One electron gradient       ....       0.329 sec  (  3.3%)
RI-J Coulomb gradient       ....       1.631 sec  ( 16.2%)
XC gradient                 ....       6.236 sec  ( 62.1%)
CPCM gradient               ....       0.979 sec  (  9.7%)
   A-Matrix (El+Nuc)        ....       0.082 sec  (  0.8%)
   Potential                ....       0.897 sec  (  8.9%)
SMD gradient                ....       0.011 sec  (  0.1%)

Maximum memory used throughout the entire SCFGRAD-calculation: 35.3 MB

------------------------------------------------------------------------------
                              ORCA PROPERTY CALCULATIONS
------------------------------------------------------------------------------

GBWName                                 ... xtb_opt.gbw
Number of atoms                         ...     20
Number of basis functions               ...    222
Max core memory                         ...   1024 MB

Electric properties:
Dipole moment                           ... YES
Quadrupole moment                       ...  NO
Static polarizability (Dipole/Dipole)   ...  NO
Static polarizability (Dipole/Quad.)    ...  NO
Static polarizability (Quad./Quad.)     ...  NO
Static polarizability (Velocity)        ...  NO

Atomic electric properties:
Dipole moment                           ...  NO
Quadrupole moment                       ...  NO
Static polarizability                   ...  NO

Choice of electric origin               ... Center of mass
Position of electric origin             ...     0.002349    -0.036252    -0.008022

General magnetic properties:
Magnetizability                         ...  NO

EPR properties:
g-Tensor (aka g-matrix)                 ...  NO
Zero-Field splitting spin-orbit         ...  NO
Zero-field splitting spin-spin          ...  NO
Hyperfine couplings                     ...  NO (   0 nuclei)
Quadrupole couplings                    ...  NO (   0 nuclei)
Contact density                         ...  NO (   0 nuclei)

NMR properties:
Chemical shifts                         ...  NO (   0 nuclei)
Spin-rotation constants                 ...  NO (   0 nuclei)
Spin-spin couplings                     ...  NO (   0 nuclei,    0 pairs)

Choice of magnetic origin               ... GIAO
Position of magnetic origin             ...     0.000000     0.000000     0.000000

Properties with geometric perturbations:
SCF Hessian                             ...  NO
IR spectrum                             ...  NO
VCD spectrum                            ...  NO
X-ray spectroscopy properties:
SCF XES/XAS/RIXS spectra                ...  NO


-------------
DIPOLE MOMENT
-------------

Method             : SCF
Type of density    : Electron Density
Multiplicity       :   1
Irrep              :   0
Energy             :  -386.2504590636330022 Eh
Relativity type    : 
Basis              : AO
                                X                 Y                 Z
Electronic contribution:      1.576647343       3.229777984      -1.225973409
Nuclear contribution   :     -1.180992343      -3.499451432       2.210238006
                        -----------------------------------------
Total Dipole Moment    :      0.395655000      -0.269673448       0.984264597
                        -----------------------------------------
Magnitude (a.u.)       :      1.094551709
Magnitude (Debye)      :      2.782129346



--------------------
Rotational spectrum 
--------------------
 
Rotational constants in cm-1:             0.154417             0.031016             0.030233 
Rotational constants in MHz :          4629.295516           929.824415           906.360504 

Dipole components along the rotational axes: 
x,y,z [a.u.] :    -0.455329     0.955676     0.278212 
x,y,z [Debye]:    -1.157355     2.429135     0.707160 

 

Dipole moment calculation done in   0.0 sec 

Maximum memory used throughout the entire PROP-calculation: 13.8 MB

--------------------------------
SUGGESTED CITATIONS FOR THIS RUN
--------------------------------

Below you find a list of papers that are relevant to this ORCA run
We neither can nor want to force you to cite these papers, but we appreciate if you do
You receive ORCA, which is the product of decades of hard work by many enthusiastic individuals, for free
The only thing we kindly ask in return is that you cite our papers,
We deeply appreciate it, if you show your appreciation for ORCA by not just citing the generic ORCA reference.

Please note that relegating all ORCA citations to the supporting information does *not* help us.
SI sections are not indexed - citations you put there will not count into any citation statistics
But we need these citations in order to attract the funding resources that allow us to do what we are doing

Therefore, if you are a happy ORCA user, please consider citing a few of the papers listed below in the main body of your paper

In addition to the list printed below, the program has created the file xtb_opt.bibtex that contains the list in bibtex format
You can import this file easily into all common literature databanks and citation aid programs


List of essential papers. We consider these as the minimum necessary citations

  1. Neese,F.
     Software update: the ORCA program system, version 5.0
     WIRES Comput. Molec. Sci., 2022 12(1)e1606
     doi.org/10.1002/wcms.1606
  2. Grimme,S.; Hansen,A.; Ehlert,S.; Mewes,J.
     r2SCAN-3c: A 'Swiss army knife' composite electronic-structure method
     J. Chem. Phys., 2021 154 064103
     doi.org/10.1063/5.0040021

List of papers to cite with high priority. The work reported in these papers was absolutely
necessary for this run to complete.
Our perspective: the developers of density functionals and basis sets usually get cited in chemistry papers
Good! But without the algorithms to do something with them, the functionals or basis sets would not do anything.
Hence, in our opinion, the algorithm design and method developments papers are equally worthy of getting cited

  1. Neese,F.
     An improvement of the resolution of the identity approximation for the formation of the Coulomb matrix
     J. Comp. Chem., 2003 24(14)1740-1747
     doi.org/10.1002/jcc.10318
  2. Garcia-Rates,M.; Neese,F.
     Effect of the Solute Cavity on the Solvation Energy and its Derivatives within the Framework of the Gaussian Charge Scheme
     J. Comput. Chem., 2020 41 922-939
     doi.org/10.1002/jcc.26139
  3. Neese,F.
     The SHARK Integral Generation and Digestion System
     J. Comp. Chem., 2022  1-16
     doi.org/10.1002/jcc.26942
  4. Lehtola,S.; Steigemann,C.; Oliveira,M.; Marques,M.
     Recent developments in Libxc - A comprehensive library of functionals for density functional theory
     Software X, 2018 7 
     doi.org/10.1016/j.softx.2017.11.002
  5. Caldeweyher,E.; Bannwarth,C.; Grimme,S.
     Extension of the D3 dispersion coefficient model
     J. Chem. Phys., 2017 147 034112-XXXX
     doi.org/10.1063/1.4993215
  6. Caldeweyher,E.; Ehlert,S.; Hansen,A.; Neugebauer,H.; Spicher,S.; Bannwarth,C.; Grimme,S.
     A generally applicable atomic-charge dependent London dispersion correction
     J. Chem. Phys., 2019 150 154122-XXXX
     doi.org/10.1063/1.5090222
  7. Caldeweyher,E.; Mewes,J.; Ehlert,S.; Grimme,S.
     Extension and evaluation of the D4 London-dispersion model for periodic systems
     Phys. Chem. Chem. Phys., 2020 22(16)8499-8512
     doi.org/10.1039/D0CP00502A

List of suggested additional citations. These are papers that are important in the 'surrounding' of 
of this run, or papers that preceded the highly important papers. If you like your results we are grateful for a citation.

  1. Neese,F.
     The ORCA program system
     WIRES Comput. Molec. Sci., 2012 2(1)73-78
     doi.org/10.1002/wcms.81
  2. Neese,F.
     Software update: the ORCA program system, version 4.0
     WIRES Comput. Molec. Sci., 2018 8(1)1-6
     doi.org/10.1002/wcms.1327
  3. Neese,F.; Wennmohs,F.; Becker,U.; Riplinger,C.
     The ORCA quantum chemistry program package
     J. Chem. Phys., 2020 152 Art. No. L224108
     doi.org/10.1063/5.0004608

List of optional additional citations

  1. Neese,F.
     Approximate second-order SCF convergence for spin unrestricted wavefunctions
     Chem. Phys. Lett., 2000 325(1-3)93-98
     doi.org/10.1016/s0009-2614(00)00662-x

Timings for individual modules:

Sum of individual times          ...       21.909 sec (=   0.365 min)
Startup calculation              ...        1.249 sec (=   0.021 min)   5.7 %
SCF iterations                   ...       10.397 sec (=   0.173 min)  47.5 %
Property calculations            ...        0.117 sec (=   0.002 min)   0.5 %
SCF Gradient evaluation          ...       10.146 sec (=   0.169 min)  46.3 %
                             ****ORCA TERMINATED NORMALLY****
TOTAL RUN TIME: 0 days 0 hours 0 minutes 22 seconds 854 msec
  ------------------------------------------------------------------------
          * successful ORCA run, taking over control again...

         :::::::::::::::::::::::::::::::::::::::::::::::::::::
         ::                  ORCA SUMMARY                   ::
         :::::::::::::::::::::::::::::::::::::::::::::::::::::
         :: total energy            -386.243940809181 Eh    ::
         :: gradient norm              0.003328042854 Eh/a0 ::
         :: HOMO-LUMO gap              0.000000000000 eV    ::
         :::::::::::::::::::::::::::::::::::::::::::::::::::::

      ----------------------------------------------------------- 
     |                       L-ANC optimizer                     |
      ----------------------------------------------------------- 
          low memory version by Sebastian Ehlert

          ...................................................
          :                      SETUP                      :
          :.................................................:
          :   energy convergence        0.5000000E-05 Eh    :
          :   grad. convergence         0.1000000E-02 Eh/a0 :
          :   optimization log               true           :
          :   writing optlog all                1     steps :
          :   Hessian reset                     8     steps :
          :   maximium step len.        1.0000000     a0    :
          :   LBFGS images                      8           :
          ...................................................
 * calculating model hessian...
Using Lindh-Hessian (1995)
 Shifting diagonal of input Hessian by   1.000000000000000E-002
 Lowest  eigenvalues of input Hessian
    0.000000    0.000000    0.000000    0.000000    0.000000    0.000000
    0.011210    0.012256    0.014314    0.016741    0.017716    0.020219
    0.024001    0.027098    0.035099    0.039794    0.051939    0.052368
 Highest eigenvalues
    1.195689    1.238445    1.280300    1.290961    1.737857    2.269325
 

........................................................................
.............................. CYCLE    1 ..............................
........................................................................
                         * ORCA takes the control...
  ------------------------------------------------------------------------

                                 *****************
                                 * O   R   C   A *
                                 *****************

                                            #,                                       
                                            ###                                      
                                            ####                                     
                                            #####                                    
                                            ######                                   
                                           ########,                                 
                                     ,,################,,,,,                         
                               ,,#################################,,                 
                          ,,##########################################,,             
                       ,#########################################, ''#####,          
                    ,#############################################,,   '####,        
                  ,##################################################,,,,####,       
                ,###########''''           ''''###############################       
              ,#####''   ,,,,##########,,,,          '''####'''          '####       
            ,##' ,,,,###########################,,,                        '##       
           ' ,,###''''                  '''############,,,                           
         ,,##''                                '''############,,,,        ,,,,,,###''
      ,#''                                            '''#######################'''  
     '                                                          ''''####''''         
             ,#######,   #######,   ,#######,      ##                                
            ,#'     '#,  ##    ##  ,#'     '#,    #''#        ,####,   ,####,        
            ##       ##  ##   ,#'  ##            #'  '#       #'       #'  '#        
            ##       ##  #######   ##           ,######,      #####,   #    #        
            '#,     ,#'  ##    ##  '#,     ,#' ,#      #,     #,   #   #,  ,#        
             '#######'   ##     ##  '#######'  #'      '#     '####' # '####'        



                #########################################################
                #                        -***-                          #
                #          Department of theory and spectroscopy        #
                #                                                       #
                #                      Frank Neese                      #
                #                                                       #
                #     Directorship, Architecture, Infrastructure        #
                #                    SHARK, DRIVERS                     #
                #        Core code/Algorithms in most modules           #
                #                                                       #
                #        Max Planck Institute fuer Kohlenforschung      #
                #                Kaiser Wilhelm Platz 1                 #
                #                 D-45470 Muelheim/Ruhr                 #
                #                      Germany                          #
                #                                                       #
                #                  All rights reserved                  #
                #                        -***-                          #
                #########################################################


                         Program Version 6.0.0  -   RELEASE  -


 With contributions from (in alphabetic order):
   Daniel Aravena         : Magnetic Suceptibility
   Michael Atanasov       : Ab Initio Ligand Field Theory (pilot matlab implementation)
   Alexander A. Auer      : GIAO ZORA, VPT2 properties, NMR spectrum
   Ute Becker             : All parallelization in ORCA, NUMFREQ, NUMCALC
   Giovanni Bistoni       : ED, misc. LED, open-shell LED, HFLD
   Martin Brehm           : Molecular dynamics
   Dmytro Bykov           : pre 5.0 version of the SCF Hessian
   Marcos Casanova-Páez   : Triplet and SCS-CIS(D). UHF-(DLPNO)-IP/EA/STEOM-CCSD. UHF-CVS-IP/STEOM-CCSD
   Vijay G. Chilkuri      : MRCI spin determinant printing, contributions to CSF-ICE
   Pauline Colinet        : FMM embedding
   Dipayan Datta          : RHF DLPNO-CCSD density
   Achintya Kumar Dutta   : EOM-CC, STEOM-CC
   Nicolas Foglia         : Exact transition moments, OPA infrastructure, MCD improvements
   Dmitry Ganyushin       : Spin-Orbit,Spin-Spin,Magnetic field MRCI
   Miquel Garcia          : C-PCM and meta-GGA Hessian, CCSD/C-PCM, Gaussian charge scheme
   Tiago L. C. Gouveia    : GS-ROHF, GS-ROCIS
   Yang Guo               : DLPNO-NEVPT2, F12-NEVPT2, CIM, IAO-localization
   Andreas Hansen         : Spin unrestricted coupled pair/coupled cluster methods
   Ingolf Harden          : AUTO-CI MPn and infrastructure 
   Benjamin Helmich-Paris : MC-RPA, TRAH-(SCF,CASSCF), AVAS, COSX integrals, SCF dyn. polar.
   Lee Huntington         : MR-EOM, pCC
   Robert Izsak           : Overlap fitted RIJCOSX, COSX-SCS-MP3, EOM
   Riya Kayal             : Wick's Theorem for AUTO-CI, AUTO-CI UHF-CCSDT
   Emily Kempfer          : AUTO-CI, RHF CISDT and CCSDT
   Christian Kollmar      : KDIIS, OOCD, Brueckner-CCSD(T), CCSD density, CASPT2, CASPT2-K, improved NEVPT2
   Axel Koslowski         : Symmetry handling
   Simone Kossmann        : Meta GGA functionals, TD-DFT gradient, OOMP2, (MP2 Hessian; deprecated post 5.0)
   Lucas Lang             : DCDCAS
   Marvin Lechner         : AUTO-CI (C++ implementation), FIC-MRCC
   Spencer Leger          : CASSCF response
   Dagmar Lenk            : GEPOL surface, SMD, ORCA-2-JSON
   Dimitrios Liakos       : Extrapolation schemes; Compound Job, initial MDCI parallelization
   Dimitrios Manganas     : Further ROCIS development; embedding schemes. LFT, Crystal Embedding
   Dimitrios Pantazis     : SARC Basis sets
   Anastasios Papadopoulos: AUTO-CI, single reference methods and gradients
   Taras Petrenko         : pre 6.0 DFT Hessian and TD-DFT gradient, (ASA, deprecated), ECA, 1-Electron XAS/XES, NRVS
   Peter Pinski           : DLPNO-MP2, DLPNO-MP2 Gradient
   Christoph Reimann      : Effective Core Potentials
   Marius Retegan         : Local ZFS, SOC
   Christoph Riplinger    : Optimizer, TS searches, QM/MM, DLPNO-CCSD(T), (RO)-DLPNO pert. Triples
   Michael Roemelt        : Original ROCIS implementation
   Masaaki Saitow         : Open-shell DLPNO-CCSD energy and density
   Barbara Sandhoefer     : DKH picture change effects
   Kantharuban Sivalingam : CASSCF convergence/infrastructure, NEVPT2 and variants, FIC-MRCI
   Bernardo de Souza      : ESD, SOC TD-DFT
   Georgi Stoychev        : AutoAux, RI-MP2 NMR, DLPNO-MP2 response, X2C
   Van Anh Tran           : RI-MP2 g-tensors
   Willem Van den Heuvel  : Paramagnetic NMR
   Zikuan Wang            : NOTCH, Electric field optimization 
   Frank Wennmohs         : Technical directorship and infrastructure
   Hang Xu                : AUTO-CI-Response properties 


 We gratefully acknowledge several colleagues who have allowed us to
 interface, adapt or use parts of their codes:
   Stefan Grimme, W. Hujo, H. Kruse, P. Pracht,  : VdW corrections, initial TS optimization,
                  C. Bannwarth, S. Ehlert,         DFT functionals, gCP, sTDA/sTD-DF
                  L. Wittmann, M. Mueller
   Ed Valeev, F. Pavosevic, A. Kumar             : LibInt (2-el integral package), F12 methods
   Garnet Chan, S. Sharma, J. Yang, R. Olivares  : DMRG
   Ulf Ekstrom                                   : XCFun DFT Library
   Mihaly Kallay                                 : mrcc  (arbitrary order and MRCC methods)
   Frank Weinhold                                : gennbo (NPA and NBO analysis)
   Simon Mueller                                 : openCOSMO-RS
   Christopher J. Cramer and Donald G. Truhlar   : smd solvation model
   Lars Goerigk                                  : TD-DFT with DH, B97 family of functionals
   V. Asgeirsson, H. Jonsson                     : NEB implementation
   FAccTs GmbH                                   : IRC, NEB, NEB-TS, DLPNO-Multilevel, CI-OPT
                                                   MM, QMMM, 2- and 3-layer-ONIOM, Crystal-QMMM,
                                                   LR-CPCM, SF, NACMEs, symmetry and pop. for TD-DFT,
                                                   nearIR, NL-DFT gradient (VV10), updates on ESD,
                                                   ML-optimized integration grids, MBIS, APM,
                                                   GOAT, DOCKER, SOLVATOR, interface openCOSMO-RS
   S Lehtola, MJT Oliveira, MAL Marques          : LibXC Library
   Liviu Ungur et al                             : ANISO software


 Your calculation uses the libint2 library for the computation of 2-el integrals
 For citations please refer to: http://libint.valeyev.net

 Your ORCA version has been built with support for libXC version: 6.2.2
 For citations please refer to: https://libxc.gitlab.io

 This ORCA versions uses:
   CBLAS   interface :  Fast vector & matrix operations
   LAPACKE interface :  Fast linear algebra routines
   SCALAPACK package :  Parallel linear algebra routines
   Shared memory     :  Shared parallel matrices
   BLAS/LAPACK       :  OpenBLAS 0.3.27  USE64BITINT DYNAMIC_ARCH NO_AFFINITY SkylakeX SINGLE_THREADED
        Core in use  :  SkylakeX
   Copyright (c) 2011-2014, The OpenBLAS Project




***************************************
The coordinates will be read from file: xtb_opt.xyz
***************************************


Your calculation utilizes the geometrical counterpoise correction gCP
Please cite in your paper:
H.Kruse, S. Grimme J.Chem.Phys., 136, (2012), 154101 
   

Your calculation utilizes the atom-pairwise dispersion correction
based on EEQ partial charges (D4)


Your calculation utilizes the SMD solvation module
Please cite in your paper:
A.V. Marenich, C.J. Cramer, D.G. Truhlar J. Phys. Chem. B, 113, (2009), 6378 

================================================================================

----- Orbital basis set information -----
Your calculation utilizes the basis: def2-mTZVPP
   Stefan Grimme, Andreas Hansen, Sebastian Ehlert, and Jan-Michael Mewes 
   J. Chem. Phys. 154, 064103 (2021). DOI: 10.1063/5.0040021

----- AuxJ basis set information -----
Your calculation utilizes the auxiliary basis: def2/J
   F. Weigend, Phys. Chem. Chem. Phys. 8, 1057 (2006).

================================================================================
                                        WARNINGS
                       Please study these warnings very carefully!
================================================================================

WARNING: Old DensityContainer found on disk!
         Will remove this file - 
         If you want to keep old densities, please start your calculation with a different basename. 

Using LibXC functional ID 497 : Re-regularized SCAN exchange by Furness et al
[ 1]  J. W. Furness, A. D. Kaplan, J. Ning, J. P. Perdew, and J. Sun.,  J. Phys. Chem. Lett. 11, 8208-8215 (2020)
[ 2]  J. W. Furness, A. D. Kaplan, J. Ning, J. P. Perdew, and J. Sun.,  J. Phys. Chem. Lett. 11, 9248-9248 (2020)
Using LibXC functional ID 498 : Re-regularized SCAN correlation by Furness et al
[ 1]  J. W. Furness, A. D. Kaplan, J. Ning, J. P. Perdew, and J. Sun.,  J. Phys. Chem. Lett. 11, 8208-8215 (2020)
[ 2]  J. W. Furness, A. D. Kaplan, J. Ning, J. P. Perdew, and J. Sun.,  J. Phys. Chem. Lett. 11, 9248-9248 (2020)
Using LibXC functional ID 497 : Re-regularized SCAN exchange by Furness et al
[ 1]  J. W. Furness, A. D. Kaplan, J. Ning, J. P. Perdew, and J. Sun.,  J. Phys. Chem. Lett. 11, 8208-8215 (2020)
[ 2]  J. W. Furness, A. D. Kaplan, J. Ning, J. P. Perdew, and J. Sun.,  J. Phys. Chem. Lett. 11, 9248-9248 (2020)
Using LibXC functional ID 498 : Re-regularized SCAN correlation by Furness et al
[ 1]  J. W. Furness, A. D. Kaplan, J. Ning, J. P. Perdew, and J. Sun.,  J. Phys. Chem. Lett. 11, 8208-8215 (2020)
[ 2]  J. W. Furness, A. D. Kaplan, J. Ning, J. P. Perdew, and J. Sun.,  J. Phys. Chem. Lett. 11, 9248-9248 (2020)

================================================================================
                                       INPUT FILE
================================================================================
NAME = xtb_opt.inp
|  1> ! r2scan-3c def2/J RI DEFGRID2 scfconv7 ENGRAD tightSCF miniprint
|  2> %cpcm
|  3>     smd true
|  4>     smdsolvent "water"
|  5> end
|  6> * xyzfile 0 1 xtb_opt.xyz
|  7> 
|  8>                          ****END OF INPUT****
================================================================================

                     *******************************
                     * Energy+Gradient Calculation *
                     *******************************

---------------------------------
CARTESIAN COORDINATES (ANGSTROEM)
---------------------------------
  C     -2.682856   -1.247459   -0.328418
  C     -2.600302    0.208530    0.122447
  C     -1.272399    0.534194    0.806455
  C     -0.095443    0.409578   -0.121119
  O     -0.113555    0.684788   -1.310402
  O      1.011775   -0.013992    0.516382
  C      2.230380   -0.097504   -0.288549
  C      3.343548   -0.543636    0.625526
  H     -2.575015   -1.926993    0.523836
  H     -3.644524   -1.456218   -0.806997
  H     -1.893837   -1.485916   -1.050304
  H     -3.406490    0.422973    0.831784
  H     -2.742099    0.878420   -0.732232
  H     -1.111543   -0.096191    1.685256
  H     -1.269467    1.576492    1.153127
  H      2.057385   -0.811175   -1.099628
  H      2.426243    0.888691   -0.720081
  H      4.265859   -0.627789    0.043440
  H      3.508904    0.179938    1.428786
  H      3.125087   -1.521034    1.065381

----------------------------
CARTESIAN COORDINATES (A.U.)
----------------------------
  NO LB      ZA    FRAG     MASS         X           Y           Z
   0 C     6.0000    0    12.011   -5.069863   -2.357356   -0.620619
   1 C     6.0000    0    12.011   -4.913859    0.394065    0.231391
   2 C     6.0000    0    12.011   -2.404486    1.009481    1.523979
   3 C     6.0000    0    12.011   -0.180361    0.773989   -0.228881
   4 O     8.0000    0    15.999   -0.214587    1.294063   -2.476302
   5 O     8.0000    0    15.999    1.911978   -0.026440    0.975821
   6 C     6.0000    0    12.011    4.214808   -0.184256   -0.545279
   7 C     6.0000    0    12.011    6.318390   -1.027324    1.182072
   8 H     1.0000    0     1.008   -4.866074   -3.641489    0.989906
   9 H     1.0000    0     1.008   -6.887152   -2.751854   -1.525003
  10 H     1.0000    0     1.008   -3.578832   -2.807975   -1.984787
  11 H     1.0000    0     1.008   -6.437332    0.799303    1.571843
  12 H     1.0000    0     1.008   -5.181815    1.659973   -1.383719
  13 H     1.0000    0     1.008   -2.100512   -0.181774    3.184672
  14 H     1.0000    0     1.008   -2.398945    2.979138    2.179095
  15 H     1.0000    0     1.008    3.887894   -1.532898   -2.077996
  16 H     1.0000    0     1.008    4.584935    1.679383   -1.360757
  17 H     1.0000    0     1.008    8.061304   -1.186350    0.082089
  18 H     1.0000    0     1.008    6.630867    0.340033    2.700013
  19 H     1.0000    0     1.008    5.905558   -2.874339    2.013279

------------------------------------------------------------------------------
                   ___                                                        
                  /   \      - P O W E R E D   B Y -                         
                 /     \                                                     
                 |  |  |   _    _      __       _____    __    __             
                 |  |  |  | |  | |    /  \     |  _  \  |  |  /  |          
                  \  \/   | |  | |   /    \    | | | |  |  | /  /          
                 / \  \   | |__| |  /  /\  \   | |_| |  |  |/  /          
                |  |  |   |  __  | /  /__\  \  |    /   |      \           
                |  |  |   | |  | | |   __   |  |    \   |  |\   \          
                \     /   | |  | | |  |  |  |  | |\  \  |  | \   \       
                 \___/    |_|  |_| |__|  |__|  |_| \__\ |__|  \__/        
                                                                              
                      - O R C A' S   B I G   F R I E N D -                    
                                      &                                       
                       - I N T E G R A L  F E E D E R -                       
                                                                              
 v1 FN, 2020, v2 2021, v3 2022-2024                                           
------------------------------------------------------------------------------


----------------------
SHARK INTEGRAL PACKAGE
----------------------

Number of atoms                             ...     20
Number of basis functions                   ...    222
Number of shells                            ...    110
Maximum angular momentum                    ...      2
Integral batch strategy                     ... SHARK/LIBINT Hybrid
RI-J (if used) integral strategy            ... SPLIT-RIJ (Revised 2003 algorithm where possible)
Printlevel                                  ...      1
Contraction scheme used                     ... SEGMENTED contraction
Prescreening option                         ... SCHWARTZ
   Thresh                                   ... 3.000e-11
   Tcut                                     ... 1.000e-12
   Tpresel                                  ... 1.000e-12 
Coulomb Range Separation                    ... NOT USED
Exchange Range Separation                   ... NOT USED
Multipole approximations                    ... NOT USED
Finite Nucleus Model                        ... NOT USED
CABS basis                                  ... NOT available
Auxiliary Coulomb fitting basis             ... AVAILABLE
   # of basis functions in Aux-J            ...    524
   # of shells in Aux-J                     ...    180
   Maximum angular momentum in Aux-J        ...      4
Auxiliary J/K fitting basis                 ... NOT available
Auxiliary Correlation fitting basis         ... NOT available
Auxiliary 'external' fitting basis          ... NOT available

Checking pre-screening integrals            ... done (  0.0 sec) Dimension = 110
Check shell pair data                       ... done (  0.0 sec)
Shell pair information
Shell pair cut-off parameter TPreSel        ...   1.0e-12
Total number of shell pairs                 ...      6105
Shell pairs after pre-screening             ...      5309
Total number of primitive shell pairs       ...     21533
Primitive shell pairs kept                  ...     13298
          la=0 lb=0:   1778 shell pairs
          la=1 lb=0:   2002 shell pairs
          la=1 lb=1:    583 shell pairs
          la=2 lb=0:    572 shell pairs
          la=2 lb=1:    322 shell pairs
          la=2 lb=2:     52 shell pairs

Calculating one electron integrals          ... done (  0.0 sec)
Calculating RI/J V-Matrix + Cholesky decomp.... done (  0.1 sec)
Calculating Nuclear repulsion               ... done (  0.0 sec) ENN=    389.262982564804 Eh

Diagonalization of the overlap matrix:
Smallest eigenvalue                        ... 1.655e-04
Time for diagonalization                   ...    0.004 sec
Threshold for overlap eigenvalues          ... 1.000e-07
Number of eigenvalues below threshold      ... 0
Time for construction of square roots      ...    0.016 sec
Total time needed                          ...    0.029 sec

-------------------
DFT GRID GENERATION
-------------------

General Integration Accuracy     IntAcc      ... 4.388
Radial Grid Type                 RadialGrid  ... OptM3 with GC (2021)
Angular Grid (max. ang.)         AngularGrid ... 4 (Lebedev-302)
Angular grid pruning method      GridPruning ... 4 (adaptive)
Weight generation scheme         WeightScheme... mBecke (2022)
Basis function cutoff            BFCut       ... 1.0000e-11
Integration weight cutoff        WCut        ... 1.0000e-14
Partially contracted basis set               ... off
Rotationally invariant grid construction     ... off
Angular grids for H and He will be reduced by one unit
Diffuse basis detected: some atoms will have their outermost
                        angular grid increased by 1.

Total number of grid points                  ...    87467
Total number of batches                      ...     1377
Average number of points per batch           ...       63
Average number of grid points per atom       ...     4373
Initializing property integral containers    ... done (  0.0 sec)

SHARK setup successfully completed in   1.2 seconds

Maximum memory used throughout the entire STARTUP-calculation: 39.4 MB
Occupation numbers will be reassigned to an Aufbau configuration
             **** ENERGY FILE WAS UPDATED (xtb_opt.en.tmp) ****
Finished Guess after   0.3 sec
Maximum memory used throughout the entire GUESS-calculation: 15.0 MB
--------------------
CPCM SOLVATION MODEL
--------------------
CPCM parameters:
  Epsilon                                         ...      78.3550
  Refrac                                          ...       1.3328
  Rsolv                                           ...       1.3000
  Surface type                                    ... GAUSSIAN VDW
  Discretization scheme                           ... Constant charge density
    Threshold for H atoms                         ...       5.0000 (charges/Ang^2)
    Threshold for non-H atoms                     ...       5.0000 (charges/Ang^2)
  Epsilon function type                           ...         CPCM
Solvent:                                          ... WATER
SMD-CDS solvent descriptors:
  Soln                                            ...       1.3328
  Soln25                                          ...       1.3323
  Sola                                            ...       0.0000
  Solb                                            ...       0.0000
  Solg                                            ...       0.0000
  Solc                                            ...       0.0000
  Solh                                            ...       0.0000
Radii:
  Scheme                                          ... Element-dependent radii
  Radius for C  used is    3.4960 Bohr (=   1.8500 Ang.)
  Radius for O  used is    2.8724 Bohr (=   1.5200 Ang.)
  Radius for H  used is    2.2677 Bohr (=   1.2000 Ang.)
Calculating surface                               ...        done! (  0.0s)
Cavity surface points                             ...         1516
Cavity Volume                                     ...     883.6000
Cavity Surface-area                               ...     590.7398
Calculating surface distance matrix               ...        done! (  0.0s)
Performing Cholesky decomposition & store         ...        done! (  0.1s)
Overall time for CPCM initialization              ...                 0.1s

----------------------------------------D-I-I-S--------------------------------------------
Iteration    Energy (Eh)           Delta-E    RMSDP     MaxDP     DIISErr   Damp  Time(sec)
-------------------------------------------------------------------------------------------
               ***  Starting incremental Fock matrix formation  ***
                              *** Initializing SOSCF ***
---------------------------------------S-O-S-C-F--------------------------------------
Iteration    Energy (Eh)           Delta-E    RMSDP     MaxDP     MaxGrad    Time(sec)
--------------------------------------------------------------------------------------
    1    -386.2581742510137133     0.00e+00  3.79e-05  9.19e-04  6.88e-05     3.5
               *** Restarting incremental Fock matrix formation ***
    2    -386.2581869776861936    -1.27e-05  1.58e-05  3.76e-04  6.31e-05     3.4
    3    -386.2581877217816668    -7.44e-07  7.25e-06  1.82e-04  5.73e-05     2.7
    4    -386.2581876694572998     5.23e-08  4.46e-06  1.05e-04  9.61e-05     2.7
                 **** Energy Check signals convergence ****

               *****************************************************
               *                     SUCCESS                       *
               *           SCF CONVERGED AFTER   4 CYCLES          *
               *****************************************************


SMD CDS free energy correction energy :                 4.83988     Kcal/mol
Total Energy after SMD CDS correction =              -386.250474825 Eh
             **** ENERGY FILE WAS UPDATED (xtb_opt.en.tmp) ****

----------------
TOTAL SCF ENERGY
----------------

Total Energy       :       -386.25047482502129 Eh          -10510.40976 eV

Components:
Nuclear Repulsion  :        389.26298256480430 Eh           10592.38426 eV
Electronic Energy  :       -775.50473347153843 Eh          -21102.55663 eV
One Electron Energy:      -1296.04162952704814 Eh          -35267.08568 eV
Two Electron Energy:        520.53689605550971 Eh           14164.52905 eV
CPCM Dielectric    :         -0.01643676272318 Eh              -0.44727 eV
SMD CDS (Gcds)     :          0.00771284443599 Eh               0.20988 eV

Virial components:
Potential Energy   :       -770.70103990841903 Eh          -20971.84148 eV
Kinetic Energy     :        384.45056508339775 Eh           10461.43172 eV
Virial Ratio       :          2.00468177161148

DFT components:
N(Alpha)           :       32.000029571451 electrons
N(Beta)            :       32.000029571451 electrons
N(Total)           :       64.000059142902 electrons
E(X)               :      -52.037249898641 Eh       
E(C)               :       -2.035273689028 Eh       
E(XC)              :      -54.072523587669 Eh       

CPCM Solvation Model Properties:
Surface-charge          :         -0.04800056672428
Corrected charge        :          0.00000000000000
Outlying charge corr.   :          0.00017219474556 Eh               0.00469 eV
Free-energy (cav+disp)  :          0.00771284443599 Eh               0.20988 eV

---------------
SCF CONVERGENCE
---------------

  Last Energy change         ...   -5.2324e-08  Tolerance :   1.0000e-07
  Last MAX-Density change    ...    1.0547e-04  Tolerance :   1.0000e-07
  Last RMS-Density change    ...    4.4578e-06  Tolerance :   5.0000e-09
  Last DIIS Error            ...    1.4300e-03  Tolerance :   1.0000e-07
  Last Orbital Gradient      ...    9.6063e-05  Tolerance :   1.0000e-04
  Last Orbital Rotation      ...    1.4428e-04  Tolerance :   1.0000e-04


----------------
ORBITAL ENERGIES
----------------

  NO   OCC          E(Eh)            E(eV) 
   0   2.0000     -19.002099      -517.0734 
   1   2.0000     -18.945097      -515.5223 
   2   2.0000     -10.164326      -276.5854 
   3   2.0000     -10.084645      -274.4171 
   4   2.0000     -10.038110      -273.1509 
   5   2.0000     -10.028327      -272.8846 
   6   2.0000     -10.020808      -272.6800 
   7   2.0000     -10.013705      -272.4868 
   8   2.0000      -1.069344       -29.0983 
   9   2.0000      -0.983773       -26.7698 
  10   2.0000      -0.766643       -20.8614 
  11   2.0000      -0.734193       -19.9784 
  12   2.0000      -0.671931       -18.2842 
  13   2.0000      -0.606103       -16.4929 
  14   2.0000      -0.559788       -15.2326 
  15   2.0000      -0.524626       -14.2758 
  16   2.0000      -0.471189       -12.8217 
  17   2.0000      -0.461708       -12.5637 
  18   2.0000      -0.442020       -12.0280 
  19   2.0000      -0.422931       -11.5085 
  20   2.0000      -0.401714       -10.9312 
  21   2.0000      -0.377484       -10.2719 
  22   2.0000      -0.366636        -9.9767 
  23   2.0000      -0.358655        -9.7595 
  24   2.0000      -0.352576        -9.5941 
  25   2.0000      -0.327026        -8.8988 
  26   2.0000      -0.322544        -8.7769 
  27   2.0000      -0.307432        -8.3657 
  28   2.0000      -0.305327        -8.3084 
  29   2.0000      -0.300725        -8.1831 
  30   2.0000      -0.278225        -7.5709 
  31   2.0000      -0.252166        -6.8618 
  32   0.0000      -0.026456        -0.7199 
  33   0.0000       0.075058         2.0424 
  34   0.0000       0.093576         2.5463 
  35   0.0000       0.113125         3.0783 
  36   0.0000       0.131576         3.5804 
  37   0.0000       0.137290         3.7358 
  38   0.0000       0.143309         3.8996 
  39   0.0000       0.150808         4.1037 
  40   0.0000       0.152238         4.1426 
  41   0.0000       0.163653         4.4532 
  42   0.0000       0.170654         4.6437 
*Only the first 10 virtual orbitals were printed.
Total SCF time: 0 days 0 hours 0 min 12 sec 
Finished LeanSCF after  12.9 sec

Maximum memory used throughout the entire LEANSCF-calculation: 30.8 MB


-------------------------------------------------------------------------------
                          DFT DISPERSION CORRECTION                            
                                                                               
                                DFTD4 V3.4.0                                   
-------------------------------------------------------------------------------
-------------------------   ----------------
Dispersion correction           -0.004948727
-------------------------   ----------------

------------------   -----------------
gCP correction             0.011461084
------------------   -----------------

-------------------------   --------------------
[...]
  Last RMS-Density change    ...    8.9668e-07  Tolerance :   5.0000e-09
  Last DIIS Error            ...    1.9397e-05  Tolerance :   1.0000e-07
  Last Orbital Gradient      ...    1.0086e-05  Tolerance :   1.0000e-04
  Last Orbital Rotation      ...    2.3176e-05  Tolerance :   1.0000e-04


----------------
ORBITAL ENERGIES
----------------

  NO   OCC          E(Eh)            E(eV) 
   0   2.0000     -19.001316      -517.0521 
   1   2.0000     -18.945300      -515.5278 
   2   2.0000     -10.164404      -276.5875 
   3   2.0000     -10.084881      -274.4236 
   4   2.0000     -10.038190      -273.1530 
   5   2.0000     -10.028182      -272.8807 
   6   2.0000     -10.020862      -272.6815 
   7   2.0000     -10.013729      -272.4874 
   8   2.0000      -1.068864       -29.0853 
   9   2.0000      -0.983488       -26.7621 
  10   2.0000      -0.766694       -20.8628 
  11   2.0000      -0.734434       -19.9850 
  12   2.0000      -0.671803       -18.2807 
  13   2.0000      -0.605835       -16.4856 
  14   2.0000      -0.559789       -15.2326 
  15   2.0000      -0.524430       -14.2705 
  16   2.0000      -0.471273       -12.8240 
  17   2.0000      -0.461534       -12.5590 
  18   2.0000      -0.442135       -12.0311 
  19   2.0000      -0.423043       -11.5116 
  20   2.0000      -0.401072       -10.9137 
  21   2.0000      -0.377789       -10.2802 
  22   2.0000      -0.366342        -9.9687 
  23   2.0000      -0.358554        -9.7568 
  24   2.0000      -0.352622        -9.5953 
  25   2.0000      -0.327178        -8.9030 
  26   2.0000      -0.322496        -8.7756 
  27   2.0000      -0.307452        -8.3662 
  28   2.0000      -0.305132        -8.3031 
  29   2.0000      -0.300693        -8.1823 
  30   2.0000      -0.278186        -7.5698 
  31   2.0000      -0.252226        -6.8634 
  32   0.0000      -0.026348        -0.7170 
  33   0.0000       0.074822         2.0360 
  34   0.0000       0.092711         2.5228 
  35   0.0000       0.113181         3.0798 
  36   0.0000       0.131495         3.5782 
  37   0.0000       0.137023         3.7286 
  38   0.0000       0.143073         3.8932 
  39   0.0000       0.150874         4.1055 
  40   0.0000       0.151711         4.1283 
  41   0.0000       0.163166         4.4400 
  42   0.0000       0.170702         4.6450 
*Only the first 10 virtual orbitals were printed.
Total SCF time: 0 days 0 hours 0 min 7 sec 
Finished LeanSCF after   7.9 sec

Maximum memory used throughout the entire LEANSCF-calculation: 31.0 MB


-------------------------------------------------------------------------------
                          DFT DISPERSION CORRECTION                            
                                                                               
                                DFTD4 V3.4.0                                   
-------------------------------------------------------------------------------
-------------------------   ----------------
Dispersion correction           -0.004943255
-------------------------   ----------------

------------------   -----------------
gCP correction             0.011456273
------------------   -----------------

-------------------------   --------------------
FINAL SINGLE POINT ENERGY      -386.244005961315
-------------------------   --------------------

------------------------------------------------------------------------------
                         ORCA SCF GRADIENT CALCULATION
------------------------------------------------------------------------------

Nuc. rep. gradient        (SHARK) ... done (  0.0 sec)
HCore & Overlap gradient  (SHARK) ... done (  0.3 sec)
Split-RIJ-J gradient      (SHARK) ... done (  1.6 sec)
XC gradient                       ... done (  6.2 sec)
CPCM gradient                     ... done (  1.0 sec)
SMD gradient                      ... done (  0.0 sec)
Dispersion correction             ... done (  0.0 sec)

-------------------
DISPERSION GRADIENT
-------------------

   1   C   :   -0.000069575   -0.000051473   -0.000011747
   2   C   :   -0.000064805    0.000010121    0.000006139
   3   C   :   -0.000048960    0.000030508    0.000039814
   4   C   :    0.000001971    0.000033196   -0.000011542
   5   O   :    0.000011522    0.000042062   -0.000066291
   6   O   :    0.000055361    0.000009839    0.000011047
   7   C   :    0.000071772   -0.000000911   -0.000019265
   8   C   :    0.000078539   -0.000019676    0.000016734
   9   H   :   -0.000029327   -0.000028181    0.000002639
  10   H   :   -0.000026730   -0.000020165   -0.000009194
  11   H   :   -0.000031167   -0.000023702   -0.000014205
  12   H   :   -0.000026557    0.000003561    0.000008441
  13   H   :   -0.000022076    0.000007287   -0.000006170
  14   H   :   -0.000016624    0.000004798    0.000028270
  15   H   :   -0.000013205    0.000027113    0.000019086
  16   H   :    0.000028185   -0.000005266   -0.000011124
  17   H   :    0.000023157    0.000004251   -0.000007555
  18   H   :    0.000022425   -0.000006185    0.000003285
  19   H   :    0.000028030   -0.000003369    0.000011769
  20   H   :    0.000028063   -0.000013809    0.000009867

Difference to translation invariance:
           :    0.0000000000   -0.0000000000    0.0000000000

Difference to rotation invariance:
           :    0.0000000000   -0.0000000000    0.0000000000

Norm of the Dispersion gradient    ...    0.0002291748
RMS gradient                       ...    0.0000295863
MAX gradient                       ...    0.0000785391
gCP correction                   ... done

------------------
CARTESIAN GRADIENT
------------------

   1   C   :    0.000002319    0.000132297    0.000011213
   2   C   :    0.000079295   -0.000108893   -0.000025336
   3   C   :   -0.000057588   -0.000038990   -0.000250114
   4   C   :   -0.000193913   -0.000177134    0.000182180
   5   O   :   -0.000003636    0.000200070   -0.000199330
   6   O   :    0.000150206    0.000015758    0.000045668
   7   C   :    0.000257905   -0.000038772    0.000021811
   8   C   :   -0.000322158   -0.000029318   -0.000043867
   9   H   :    0.000052245   -0.000049900    0.000039356
  10   H   :   -0.000009395   -0.000048850    0.000012768
  11   H   :    0.000032766   -0.000008878   -0.000029498
  12   H   :   -0.000079418    0.000018605    0.000020422
  13   H   :   -0.000028148    0.000043361   -0.000028671
  14   H   :    0.000002203   -0.000085702    0.000148843
  15   H   :    0.000006783    0.000197353    0.000131457
  16   H   :   -0.000035080   -0.000041092   -0.000013994
  17   H   :   -0.000012881   -0.000047747   -0.000001439
  18   H   :    0.000124525   -0.000036500   -0.000035023
  19   H   :    0.000001068    0.000030572    0.000014644
  20   H   :    0.000032903    0.000073761   -0.000001090

Difference to translation invariance:
           :   -0.0000000000    0.0000000000    0.0000000000

Difference to rotation invariance:
           :    0.0000042178    0.0001815146    0.0000218957

Norm of the Cartesian gradient     ...    0.0007904376
RMS gradient                       ...    0.0001020451
MAX gradient                       ...    0.0003221584

-------
TIMINGS
-------

Total SCF gradient time     ....       10.016 sec

Densities                   ....       0.001 sec  (  0.0%)
One electron gradient       ....       0.313 sec  (  3.1%)
RI-J Coulomb gradient       ....       1.614 sec  ( 16.1%)
XC gradient                 ....       6.215 sec  ( 62.0%)
CPCM gradient               ....       0.974 sec  (  9.7%)
   A-Matrix (El+Nuc)        ....       0.077 sec  (  0.8%)
   Potential                ....       0.897 sec  (  9.0%)
SMD gradient                ....       0.014 sec  (  0.1%)

Maximum memory used throughout the entire SCFGRAD-calculation: 35.3 MB

------------------------------------------------------------------------------
                              ORCA PROPERTY CALCULATIONS
------------------------------------------------------------------------------

GBWName                                 ... xtb_opt.gbw
Number of atoms                         ...     20
Number of basis functions               ...    222
Max core memory                         ...   1024 MB

Electric properties:
Dipole moment                           ... YES
Quadrupole moment                       ...  NO
Static polarizability (Dipole/Dipole)   ...  NO
Static polarizability (Dipole/Quad.)    ...  NO
Static polarizability (Quad./Quad.)     ...  NO
Static polarizability (Velocity)        ...  NO

Atomic electric properties:
Dipole moment                           ...  NO
Quadrupole moment                       ...  NO
Static polarizability                   ...  NO

Choice of electric origin               ... Center of mass
Position of electric origin             ...     0.005362    -0.031480    -0.013713

General magnetic properties:
Magnetizability                         ...  NO

EPR properties:
g-Tensor (aka g-matrix)                 ...  NO
Zero-Field splitting spin-orbit         ...  NO
Zero-field splitting spin-spin          ...  NO
Hyperfine couplings                     ...  NO (   0 nuclei)
Quadrupole couplings                    ...  NO (   0 nuclei)
Contact density                         ...  NO (   0 nuclei)

NMR properties:
Chemical shifts                         ...  NO (   0 nuclei)
Spin-rotation constants                 ...  NO (   0 nuclei)
Spin-spin couplings                     ...  NO (   0 nuclei,    0 pairs)

Choice of magnetic origin               ... GIAO
Position of magnetic origin             ...     0.000000     0.000000     0.000000

Properties with geometric perturbations:
SCF Hessian                             ...  NO
IR spectrum                             ...  NO
VCD spectrum                            ...  NO
X-ray spectroscopy properties:
SCF XES/XAS/RIXS spectra                ...  NO


-------------
DIPOLE MOMENT
-------------

Method             : SCF
Type of density    : Electron Density
Multiplicity       :   1
Irrep              :   0
Energy             :  -386.2505189800288576 Eh
Relativity type    : 
Basis              : AO
                                X                 Y                 Z
Electronic contribution:      1.617344091       3.270557188      -1.279122022
Nuclear contribution   :     -1.211362363      -3.546929787       2.269443305
                        -----------------------------------------
Total Dipole Moment    :      0.405981728      -0.276372599       0.990321283
                        -----------------------------------------
Magnitude (a.u.)       :      1.105413597
Magnitude (Debye)      :      2.809738070



--------------------
Rotational spectrum 
--------------------
 
Rotational constants in cm-1:             0.154460             0.030935             0.030085 
Rotational constants in MHz :          4630.581228           927.422939           901.911007 

Dipole components along the rotational axes: 
x,y,z [a.u.] :    -0.464254     0.958772     0.295235 
x,y,z [Debye]:    -1.180039     2.437005     0.750428 

 

Dipole moment calculation done in   0.0 sec 

Maximum memory used throughout the entire PROP-calculation: 13.8 MB

--------------------------------
SUGGESTED CITATIONS FOR THIS RUN
--------------------------------

Below you find a list of papers that are relevant to this ORCA run
We neither can nor want to force you to cite these papers, but we appreciate if you do
You receive ORCA, which is the product of decades of hard work by many enthusiastic individuals, for free
The only thing we kindly ask in return is that you cite our papers,
We deeply appreciate it, if you show your appreciation for ORCA by not just citing the generic ORCA reference.

Please note that relegating all ORCA citations to the supporting information does *not* help us.
SI sections are not indexed - citations you put there will not count into any citation statistics
But we need these citations in order to attract the funding resources that allow us to do what we are doing

Therefore, if you are a happy ORCA user, please consider citing a few of the papers listed below in the main body of your paper

In addition to the list printed below, the program has created the file xtb_opt.bibtex that contains the list in bibtex format
You can import this file easily into all common literature databanks and citation aid programs


List of essential papers. We consider these as the minimum necessary citations

  1. Neese,F.
     Software update: the ORCA program system, version 5.0
     WIRES Comput. Molec. Sci., 2022 12(1)e1606
     doi.org/10.1002/wcms.1606
  2. Grimme,S.; Hansen,A.; Ehlert,S.; Mewes,J.
     r2SCAN-3c: A 'Swiss army knife' composite electronic-structure method
     J. Chem. Phys., 2021 154 064103
     doi.org/10.1063/5.0040021

List of papers to cite with high priority. The work reported in these papers was absolutely
necessary for this run to complete.
Our perspective: the developers of density functionals and basis sets usually get cited in chemistry papers
Good! But without the algorithms to do something with them, the functionals or basis sets would not do anything.
Hence, in our opinion, the algorithm design and method developments papers are equally worthy of getting cited

  1. Neese,F.
     An improvement of the resolution of the identity approximation for the formation of the Coulomb matrix
     J. Comp. Chem., 2003 24(14)1740-1747
     doi.org/10.1002/jcc.10318
  2. Garcia-Rates,M.; Neese,F.
     Effect of the Solute Cavity on the Solvation Energy and its Derivatives within the Framework of the Gaussian Charge Scheme
     J. Comput. Chem., 2020 41 922-939
     doi.org/10.1002/jcc.26139
  3. Neese,F.
     The SHARK Integral Generation and Digestion System
     J. Comp. Chem., 2022  1-16
     doi.org/10.1002/jcc.26942
  4. Lehtola,S.; Steigemann,C.; Oliveira,M.; Marques,M.
     Recent developments in Libxc - A comprehensive library of functionals for density functional theory
     Software X, 2018 7 
     doi.org/10.1016/j.softx.2017.11.002
  5. Caldeweyher,E.; Bannwarth,C.; Grimme,S.
     Extension of the D3 dispersion coefficient model
     J. Chem. Phys., 2017 147 034112-XXXX
     doi.org/10.1063/1.4993215
  6. Caldeweyher,E.; Ehlert,S.; Hansen,A.; Neugebauer,H.; Spicher,S.; Bannwarth,C.; Grimme,S.
     A generally applicable atomic-charge dependent London dispersion correction
     J. Chem. Phys., 2019 150 154122-XXXX
     doi.org/10.1063/1.5090222
  7. Caldeweyher,E.; Mewes,J.; Ehlert,S.; Grimme,S.
     Extension and evaluation of the D4 London-dispersion model for periodic systems
     Phys. Chem. Chem. Phys., 2020 22(16)8499-8512
     doi.org/10.1039/D0CP00502A

List of suggested additional citations. These are papers that are important in the 'surrounding' of 
of this run, or papers that preceded the highly important papers. If you like your results we are grateful for a citation.

  1. Neese,F.
     The ORCA program system
     WIRES Comput. Molec. Sci., 2012 2(1)73-78
     doi.org/10.1002/wcms.81
  2. Neese,F.
     Software update: the ORCA program system, version 4.0
     WIRES Comput. Molec. Sci., 2018 8(1)1-6
     doi.org/10.1002/wcms.1327
  3. Neese,F.; Wennmohs,F.; Becker,U.; Riplinger,C.
     The ORCA quantum chemistry program package
     J. Chem. Phys., 2020 152 Art. No. L224108
     doi.org/10.1063/5.0004608

List of optional additional citations

  1. Neese,F.
     Approximate second-order SCF convergence for spin unrestricted wavefunctions
     Chem. Phys. Lett., 2000 325(1-3)93-98
     doi.org/10.1016/s0009-2614(00)00662-x

Timings for individual modules:

Sum of individual times          ...       19.793 sec (=   0.330 min)
Startup calculation              ...        1.302 sec (=   0.022 min)   6.6 %
SCF iterations                   ...        8.240 sec (=   0.137 min)  41.6 %
Property calculations            ...        0.120 sec (=   0.002 min)   0.6 %
SCF Gradient evaluation          ...       10.130 sec (=   0.169 min)  51.2 %
                             ****ORCA TERMINATED NORMALLY****
TOTAL RUN TIME: 0 days 0 hours 0 minutes 21 seconds 474 msec
  ------------------------------------------------------------------------
          * successful ORCA run, taking over control again...

         :::::::::::::::::::::::::::::::::::::::::::::::::::::
         ::                  ORCA SUMMARY                   ::
         :::::::::::::::::::::::::::::::::::::::::::::::::::::
         :: total energy            -386.244005961315 Eh    ::
         :: gradient norm              0.000790437568 Eh/a0 ::
         :: HOMO-LUMO gap              0.000000000000 eV    ::
         :::::::::::::::::::::::::::::::::::::::::::::::::::::

           -------------------------------------------------
          |                Property Printout                |
           -------------------------------------------------
           -------------------------------------------------
          |                Geometry Summary                 |
           -------------------------------------------------

      molecular mass/u    :      116.1585142
   center of mass at/Å    :        0.0028439      -0.0166525      -0.0072627
  moments of inertia/u·Å² :        0.1091379E+03   0.5449137E+03   0.5603293E+03
rotational constants/cm⁻¹ :        0.1544617E+00   0.3093634E-01   0.3008522E-01

 * 17 selected distances

     #   Z          #   Z                                           value/Å
     1   6 C        2   6 C                                       1.5259983
     2   6 C        3   6 C                                       1.5279720 (max)
     4   6 C        5   8 O                                       1.2211658
     4   6 C        6   8 O                                       1.3458498
     7   6 C        8   6 C                                       1.5067741
     1   6 C        9   1 H                                       1.0955799
     1   6 C       10   1 H                                       1.0943194
     1   6 C       11   1 H                                       1.0959323
     2   6 C       12   1 H                                       1.0952190
     2   6 C       13   1 H                                       1.0954111
     3   6 C       14   1 H                                       1.0941532
     3   6 C       15   1 H                                       1.0990184
     7   6 C       16   1 H                                       1.0941059
     7   6 C       17   1 H                                       1.0940749
     8   6 C       18   1 H                                       1.0941857
     8   6 C       19   1 H                                       1.0938296
     8   6 C       20   1 H                                       1.0936640 (min)

 * 3 distinct bonds (by element types)

   Z      Z             #   av. dist./Å        max./Å        min./Å
   1 H    6 C          12     1.0949578     1.0990184     1.0936640
   6 C    6 C           3     1.5202481     1.5279720     1.5067741
   6 C    8 O           2     1.2835078     1.3458498     1.2211658


optimized geometry written to: xtbopt.coord


           -------------------------------------------------
          | TOTAL ENERGY             -386.244005961315 Eh   |
          | GRADIENT NORM               0.000790437568 Eh/α |
           -------------------------------------------------

------------------------------------------------------------------------
 * finished run on 2025/04/11 at 16:49:06.823     
------------------------------------------------------------------------
 total:
 * wall-time:     0 d,  0 h,  3 min, 36.473 sec
 *  cpu-time:     0 d,  0 h,  0 min,  2.259 sec
 * ratio c/w:     0.010 speedup
 SCF:
 * wall-time:     0 d,  0 h,  0 min, 22.909 sec
 *  cpu-time:     0 d,  0 h,  0 min,  1.109 sec
 * ratio c/w:     0.048 speedup
 ANC optimizer:
 * wall-time:     0 d,  0 h,  3 min, 13.487 sec
 *  cpu-time:     0 d,  0 h,  0 min,  0.885 sec
 * ratio c/w:     0.005 speedup

