33
 energy: -56.017413790755 gnorm: 0.033577684389 xtb: 6.7.1 (edcfbbe)
C           -4.53593047761155       -1.20786452329535       -0.25627845816797
C           -3.72191567382872       -2.34138198965193       -0.24072813813156
C           -2.34239485811816       -2.21163493356961       -0.15099692100687
C           -1.75698870884379       -0.94534709607152       -0.07459000832881
C           -2.57806737657842        0.19449538085448       -0.08939918580687
C           -3.96571696400916        0.05466807605764       -0.18174224177941
C           -1.98166968430246        1.54005588379392       -0.01070374346024
O           -2.69090840419879        2.55077346614429       -0.04451245138640
C           -0.50637833318554        1.64285525440251        0.11041848054305
C            0.04098534216214        2.91203165703630        0.21104989664131
C            1.42554470988762        3.06235946850353        0.33436438642772
C            2.25826373300896        1.96763069372624        0.35201762777292
C            1.73843271710824        0.65084941021294        0.24070418340769
C            0.31603558437973        0.48358925172181        0.12276922888759
C           -0.28039979982060       -0.83451378608008        0.02348115219813
O            0.40003392471850       -1.88484692723183        0.02269829268946
N            2.57280165592748       -0.40574039445208        0.25228933529414
C            4.02235206227520       -0.32433810096382        0.36506936058297
C            4.64115140428219       -1.70210398009735        0.22494586117758
O            4.52220661645828       -2.23769127122281       -1.10347254116759
H           -5.61342453689688       -1.31318200272788       -0.32613331286721
H           -4.16731053950130       -3.32913823728586       -0.29854288061853
H           -1.70828525331766       -3.09055479900658       -0.13879459083414
H           -4.58771076148899        0.94270809607818       -0.19276107770080
H           -0.60908368299378        3.77823332598797        0.19752597986976
H            1.85291031666017        4.05625841284108        0.42003120332882
H            3.32682808392862        2.11026800336532        0.45492842255379
H            2.12438840869208       -1.31526855970901        0.18451647549192
H            4.31388685558319        0.08925150983145        1.34120477828025
H            4.43241102915279        0.33425463144276       -0.41147924014356
H            4.20600819695605       -2.39484825636873        0.95802460764872
H            5.71190063650675       -1.61811623137604        0.42857339474549
H            3.61702708729184       -2.55089099621306       -1.22383525245190
33
 energy: -56.019183707878 gnorm: 0.014137906539 xtb: 6.7.1 (edcfbbe)
C           -4.51925498427735       -1.20493766666884       -0.25501830219754
C           -3.70980719707517       -2.33346102590766       -0.23987497465402
C           -2.33463672500635       -2.20246589652632       -0.15044737784953
C           -1.74606831491626       -0.94130705113182       -0.07317715965932
C           -2.56447658309224        0.19580515571649       -0.08855874299319
C           -3.94853375325736        0.05297748278030       -0.18046731656667
C           -1.97615709829684        1.54049768625865       -0.01051508534203
O           -2.68142378619692        2.54867609151149       -0.04298786305754
C           -0.50710266720833        1.63396041255403        0.11066640024685
C            0.03920927867585        2.90127106338950        0.21088265823308
C            1.41859467942405        3.05963083076309        0.33357748117831
C            2.24642627733805        1.96866464319756        0.35089283389926
C            1.73172857499328        0.65312199833699        0.24175680487162
C            0.31547939786336        0.48031202471129        0.12421708130136
C           -0.27354869464698       -0.83740773817443        0.02421375717492
O            0.40410113757801       -1.88333431765464        0.01961876922180
N            2.56304593272700       -0.39820219391749        0.25499014040758
C            4.00593011012738       -0.32492480481190        0.36237939217409
C            4.63304390706928       -1.70768049443950        0.22846268036272
O            4.52579380348186       -2.23931426449471       -1.08728936097069
H           -5.59226299504088       -1.30880872114936       -0.32508637047569
H           -4.15385999134459       -3.31668594946694       -0.29790926412159
H           -1.69838328850365       -3.07564640612482       -0.13827623022443
H           -4.56296792172699        0.94211149201832       -0.19150057642515
H           -0.61612861517718        3.75920942904325        0.19582035625329
H            1.83928627136034        4.05144288777734        0.41773598092322
H            3.30986307321723        2.11056902214482        0.45283092547243
H            2.11639218948511       -1.30950075933958        0.19832504737084
H            4.29177378033590        0.09131428530008        1.33649874577524
H            4.40735069901460        0.32179424875104       -0.42614183972678
H            4.19206861218598       -2.40058184133149        0.95354323081514
H            5.70535847802897       -1.63328154178460        0.42332219040159
H            3.61614972314491       -2.53099764465328       -1.23184138812966
33
 energy: -56.019619531843 gnorm: 0.005256937618 xtb: 6.7.1 (edcfbbe)
C           -4.50747871170489       -1.20452628799700       -0.25473930375720
C           -3.69932163850534       -2.33129283188193       -0.23952950528339
C           -2.32605268385459       -2.19832272161577       -0.14977550990874
C           -1.73606218437906       -0.93928190437415       -0.07224856403445
C           -2.55371699725690        0.19653463876996       -0.08800354257816
C           -3.93605655629469        0.05140499261644       -0.18015631520786
C           -1.97279961019226        1.54216063437303       -0.00918431103548
O           -2.67707793576013        2.54879976707187       -0.04136686532479
C           -0.50743469936318        1.62844510039124        0.11135658805586
C            0.03819056301780        2.89571709158882        0.21047676556742
C            1.41530866452095        3.06128077646983        0.33241748687791
C            2.24098932774008        1.97097608813240        0.34983415786186
C            1.72872706037978        0.65489971129597        0.24391044108117
C            0.31605672765392        0.47797345445702        0.12623823459466
C           -0.26597841999469       -0.84148582099292        0.02419419553921
O            0.41005853677904       -1.88565372161057        0.01715070609861
N            2.55710910736621       -0.39404015867287        0.25838801785608
C            3.99590526571180       -0.32540271153888        0.36041284790333
C            4.61866563990426       -1.71647850633358        0.23041323153088
O            4.52347593270276       -2.24590576633934       -1.07605583713410
H           -5.57842471087994       -1.30652563916817       -0.32464038128621
H           -4.14128233541989       -3.31294047240082       -0.29788221116572
H           -1.68485162216298       -3.06642399544378       -0.13748615194164
H           -4.54333800390458        0.94383154579085       -0.19072507999484
H           -0.62484596127918        3.74619516708431        0.19402484025351
H            1.82974941139565        4.05314124963498        0.41538582531686
H            3.30274068890802        2.11099761568953        0.45015134982797
H            2.11064158687903       -1.30708552836298        0.21454242163259
H            4.28516497994643        0.09490314610383        1.33010665043690
H            4.39503958939560        0.30775809114296       -0.43904104652593
H            4.16839954526305       -2.40132930990646        0.95646010050193
H            5.68978583412469       -1.64477172321881        0.42940556606415
H            3.60569691954726       -2.50073153407810       -1.25339217813290
33
 energy: -56.019733510170 gnorm: 0.005660846008 xtb: 6.7.1 (edcfbbe)
C           -4.50311812125311       -1.20661985069528       -0.25514958102859
C           -3.69401343328178       -2.33319996879072       -0.23993384800079
C           -2.32102407937970       -2.19853151404295       -0.14988775950055
C           -1.73146641939820       -0.93910535939852       -0.07192310821132
C           -2.54981846365877        0.19610267734413       -0.08771037523776
C           -3.93203264586263        0.04937965825679       -0.18017587653512
C           -1.97189910525286        1.54288191072235       -0.00852602506669
O           -2.67744431112978        2.54865803514567       -0.03986500249300
C           -0.50730907137316        1.62822762685330        0.11258987360109
C            0.03832268236247        2.89600182092168        0.21075985709572
C            1.41529570308833        3.06471676151787        0.33147662963148
C            2.24115001571717        1.97422780663822        0.34896598864907
C            1.72890287903576        0.65753812908385        0.24553035583953
C            0.31684994263629        0.47863164787190        0.12825841976690
C           -0.26208064454543       -0.84235202646982        0.02545401424851
O            0.41433280140744       -1.88620975309613        0.01657096073233
N            2.55582949204899       -0.39176759269363        0.26049051365353
C            3.99406249641185       -0.32656909133510        0.35840123712088
C            4.60902537323328       -1.72380194779463        0.23203940943325
O            4.51882041699446       -2.25209154303832       -1.07118938943347
H           -5.57397964920074       -1.30812162539152       -0.32539303289934
H           -4.13440561451342       -3.31544232132733       -0.29841656155015
H           -1.67618941829094       -3.06420848650223       -0.13712457507912
H           -4.53646169498089        0.94386264608704       -0.19073446564165
H           -0.62922558042041        3.74314526578652        0.19324945189305
H            1.82695046849809        4.05757867178526        0.41292691535996
H            3.30345940255135        2.11291763334591        0.44770046607163
H            2.10813309735906       -1.30515523547461        0.22503754435043
H            4.28952030055254        0.09683370207462        1.32443641706265
H            4.39405004386338        0.29915816719194       -0.44634729020948
H            4.14864334757342       -2.40209040072208        0.95919874205212
H            5.67896873548247       -1.65721074869655        0.43957439031423
H            3.59513436400949       -2.47456425848074       -1.26964167229986
33
 energy: -56.019828280000 gnorm: 0.006768078285 xtb: 6.7.1 (edcfbbe)
C           -4.49879513450562       -1.21103156292182       -0.25656104749644
C           -3.68758392999361       -2.33724131014667       -0.24101056609164
C           -2.31481341169325       -2.20017242624875       -0.14984418102207
C           -1.72694070610785       -0.93929450992464       -0.07120028349427
C           -2.54688065463739        0.19494355123157       -0.08716820389494
C           -3.92929716702833        0.04580490208081       -0.18087062884802
C           -1.97145379835691        1.54316914661642       -0.00610143894643
O           -2.67942055566121        2.54775946490044       -0.03697097302598
C           -0.50683550325329        1.63033398309307        0.11474941797959
C            0.03891170191498        2.89885251682447        0.21102518683937
C            1.41618017619671        3.07008207789503        0.32959633079982
C            2.24318362472282        1.97966368605832        0.34743894796268
C            1.73042257622530        0.66238799396217        0.24786287084927
C            0.31825891058138        0.48135369319965        0.13124772324720
C           -0.25798540241361       -0.84117890330277        0.02726455726496
O            0.41973289216437       -1.88479689667723        0.01799182185833
N            2.55603097247056       -0.38821070343270        0.26337097340144
C            3.99465702517057       -0.32855318700754        0.35581495752772
C            4.59603244314890       -1.73362662729911        0.23420845880659
O            4.51031095580527       -2.26104738169222       -1.06691770965287
H           -5.56997534542042       -1.31313076812086       -0.32743962134502
H           -4.12588522651389       -3.32087944837248       -0.30006819547228
H           -1.66593413106723       -3.06347706238434       -0.13684784220440
H           -4.53236267195684        0.94171094125561       -0.19123489072689
H           -0.63277373254175        3.74331745956920        0.19275362473031
H            1.82546205763983        4.06443517083685        0.40879202785816
H            3.30668899619037        2.11702488019842        0.44360716639427
H            2.10588548681066       -1.30124587643986        0.23772755234811
H            4.29955855733492        0.09897922199298        1.31704267805584
H            4.39646964830193        0.28878292931735       -0.45462604580566
H            4.12044503269955       -2.40416898591708        0.96115597360794
H            5.66444086783508       -1.67838359165500        0.45449771673949
H            3.58124875622201       -2.43934194081245       -1.28864373455471
33
 energy: -56.019885990409 gnorm: 0.004648495029 xtb: 6.7.1 (edcfbbe)
C           -4.49601788599737       -1.21481027932236       -0.25810256519832
C           -3.68303320661004       -2.34035469146083       -0.24229497419785
C           -2.31049138989744       -2.20156508006179       -0.14999508523805
C           -1.72466416263473       -0.93933878165419       -0.07032626638249
C           -2.54599825728803        0.19402017359510       -0.08643539728615
C           -3.92855952349217        0.04298686253582       -0.18134432821622
C           -1.97141834197323        1.54302648077692       -0.00430015064752
O           -2.68118638330113        2.54676971076811       -0.03384978125450
C           -0.50642503250408        1.63298026315056        0.11666058576764
C            0.03914095647689        2.90195264325054        0.21143327360929
C            1.41676838121438        3.07375060327192        0.32777394588367
C            2.24504636993703        1.98385238707649        0.34579722489461
C            1.73203198178134        0.66643596843786        0.24902146820246
C            0.31943631820253        0.48429691057895        0.13353781345742
C           -0.25593740884460       -0.83878270960653        0.03004820271709
O            0.42300965866695       -1.88216108618026        0.02141060401072
N            2.55711457227934       -0.38517605470809        0.26518290435654
C            3.99641687321965       -0.33037137406005        0.35433151803854
C            4.58700418779944       -1.73992229213869        0.23577982175981
O            4.50280064533148       -2.26669385136851       -1.06570912239398
H           -5.56735576720851       -1.31844955305331       -0.33005429317429
H           -4.11997548635781       -3.32499358453997       -0.30191779663980
H           -1.65989712868310       -3.06388117860252       -0.13659490548255
H           -4.53275252569240        0.93841768519355       -0.19204142810687
H           -0.63340224172885        3.74604736506630        0.19305373603094
H            1.82545655249146        4.06892404947315        0.40503841726769
H            3.30922797359806        2.12092617178768        0.44007238739968
H            2.10488343065882       -1.29737522824341        0.24460181017894
H            4.30733686080379        0.09957770742846        1.31267126847477
H            4.39964945571403        0.28235135363233       -0.45902584123286
H            4.10065538118790       -2.40648388510508        0.96049650989454
H            5.65437164877321       -1.69547482894672        0.46397205788728
H            3.57374680436122       -2.41766144029453       -1.29824899069067
33
 energy: -56.019932407994 gnorm: 0.003009798099 xtb: 6.7.1 (edcfbbe)
C           -4.49218426463358       -1.21897144624445       -0.26025088759745
C           -3.67745881711511       -2.34320787026032       -0.24384318815877
C           -2.30541744581025       -2.20252763951060       -0.14944025200667
C           -1.72231990093626       -0.93903302748681       -0.06840216670702
C           -2.54515544064797        0.19315044975084       -0.08496932755573
C           -3.92750949165913        0.03993398643200       -0.18202559012662
C           -1.97139966881058        1.54263244085165       -0.00064817192162
O           -2.68253477154799        2.54550384278145       -0.02889633108827
C           -0.50595922700254        1.63574894680378        0.11857995047625
C            0.03891755476619        2.90509087197841        0.21120839959066
C            1.41678989634686        3.07699228664290        0.32476932657747
C            2.24653032849001        1.98822630091578        0.34290840070663
C            1.73389817009958        0.67080519943669        0.24936638705111
C            0.32097321521256        0.48765867920079        0.13563517990215
C           -0.25391547762978       -0.83549233233480        0.03367949143315
O            0.42603222981633       -1.87850931581848        0.02807898318751
N            2.55863104005580       -0.38139479242476        0.26641878758490
C            3.99855791899855       -0.33306471396323        0.35345530357940
C            4.57707213916316       -1.74681094960465        0.23884412718540
O            4.49626151150926       -2.27295266027937       -1.06438698983275
H           -5.56328364759905       -1.32516129264137       -0.33374951679392
H           -4.11303431796305       -3.32849887541931       -0.30470961584366
H           -1.65408634877704       -3.06418227754912       -0.13588370169586
H           -4.53458721814229        0.93338640065491       -0.19299272027358
H           -0.63274434041806        3.74986165977486        0.19351795313643
H            1.82545481094518        4.07257053997687        0.39991856211637
H            3.31086878879648        2.12588678983289        0.43489227700651
H            2.10400766752211       -1.29236004190072        0.24914956290517
H            4.31327192370507        0.09866003609578        1.30976349071511
H            4.40393012182964        0.27546141740771       -0.46204328911039
H            4.07752883107813       -2.40988623782418        0.95812838747375
H            5.64312186271767       -1.71674608422493        0.47483752603253
H            3.56672567792412       -2.38994985437332       -1.31026772425868
33
 energy: -56.019952943537 gnorm: 0.001060549786 xtb: 6.7.1 (edcfbbe)
C           -4.48928246780429       -1.22130530301208       -0.26195661630516
C           -3.67362429350876       -2.34450610566022       -0.24531324345124
C           -2.30192214093865       -2.20258147267864       -0.14893770034683
C           -1.72083628592228       -0.93854997273500       -0.06623153871020
C           -2.54455883033066        0.19288162587132       -0.08307380071604
C           -3.92647852180506        0.03833777376527       -0.18184735826705
C           -1.97137875259891        1.54250460130264        0.00196631443680
O           -2.68297617144560        2.54495638308928       -0.02371182738243
C           -0.50573065269706        1.63704067626484        0.11977909910132
C            0.03841095625234        2.90656251063997        0.21072855213684
C            1.41649369810732        3.07846729144480        0.32168837729956
C            2.24706225374715        1.99052207899430        0.33976166987174
C            1.73495938068449        0.67304820391559        0.24864840171968
C            0.32199341828499        0.48950773207427        0.13681388332439
C           -0.25274524980578       -0.83357567606923        0.03771044143956
O            0.42744130463021       -1.87643789343443        0.03476732841068
N            2.55937021359850       -0.37920053661308        0.26646336077558
C            3.99946652027268       -0.33532983467384        0.35427213603709
C            4.57076576681141       -1.75090466058908        0.24146447605730
O            4.49287432243178       -2.27496940370454       -1.06430137575003
H           -5.55993937421488       -1.32939225436656       -0.33726554125808
H           -4.10837463024013       -3.32992316040452       -0.30748446627800
H           -1.65073472376521       -3.06407778064873       -0.13496051114764
H           -4.53622108473216        0.92978019370453       -0.19336574961721
H           -0.63163934357606        3.75240965960667        0.19364050725560
H            1.82552609890883        4.07399544965114        0.39504466260724
H            3.31122159658953        2.12915170383927        0.42991313211558
H            2.10320748005579       -1.28938515271598        0.24939307626739
H            4.31421689510886        0.09631498769367        1.31052046893413
H            4.40722391290115        0.27140864526722       -0.46130061442966
H            4.06280977394561       -2.41306385369942        0.95497232306707
H            5.63564149148257       -1.73003484403881        0.48143156511980
H            3.56474074985630       -2.37083117540374       -1.31858680862826
33
 energy: -56.019957422114 gnorm: 0.002046748008 xtb: 6.7.1 (edcfbbe)
C           -4.48666566446490       -1.22287442618595       -0.26371188774770
C           -3.67049402749933       -2.34530183379194       -0.24667547377344
C           -2.29906762721131       -2.20230579710399       -0.14777592884773
C           -1.71932322523883       -0.93814604065570       -0.06346402069487
C           -2.54363560773914        0.19278357071217       -0.08067845490153
C           -3.92498151395396        0.03722342527123       -0.18163789700311
C           -1.97139685209885        1.54251457028928        0.00621910051454
O           -2.68312108031546        2.54468192310457       -0.01711628893985
C           -0.50555877952559        1.63732243069560        0.12049885542922
C            0.03813831023142        2.90697464586168        0.20927800241944
C            1.41639964911416        3.07944367210396        0.31775926441565
C            2.24733296953569        1.99199791923813        0.33585551748716
C            1.73563774683034        0.67430281806010        0.24742951792179
C            0.32280420322609        0.49039776488229        0.13747711351400
C           -0.25149656746328       -0.83284337034804        0.04123725044524
O            0.42842196032899       -1.87573571171632        0.04173137891124
N            2.55948644435304       -0.37783379615200        0.26564692471003
C            3.99940726115100       -0.33757348420919        0.35634721030039
C            4.56528424969749       -1.75496795585655        0.24434396171805
O            4.49277581945874       -2.27570500759513       -1.06386907732664
H           -5.55686245764988       -1.33203077082189       -0.34084029023565
H           -4.10441680865456       -3.33071523218943       -0.31073180642518
H           -1.64772713694062       -3.06348827118598       -0.13360848838472
H           -4.53642924707768        0.92729921860801       -0.19308134030521
H           -0.63104736530884        3.75332580097861        0.19295672161723
H            1.82543270741629        4.07491479682372        0.38915585105351
H            3.31137144356600        2.13146019542258        0.42376405588826
H            2.10204088980646       -1.28767106298987        0.24852165937857
H            4.31218999090295        0.09300631731826        1.31364691227575
H            4.41074584003706        0.26808415251209       -0.45814790611103
H            4.04864402184421       -2.41668022233586        0.95145314829275
H            5.62878362799165       -1.74155207415867        0.48940372775602
H            3.56431013593466       -2.34748772790887       -1.33074468966264
33
 energy: -56.019961947267 gnorm: 0.001285701487 xtb: 6.7.1 (edcfbbe)
C           -4.48706116640838       -1.22227855966363       -0.26414364668813
C           -3.67116865018441       -2.34480076312870       -0.24718728071410
C           -2.29968940378984       -2.20197341321843       -0.14741470556758
C           -1.71977079014270       -0.93810275053319       -0.06244647530127
C           -2.54390388126220        0.19301949295075       -0.07960694973762
C           -3.92507650397020        0.03773002260488       -0.18115834339459
C           -1.97158633237237        1.54261188795937        0.00763710563105
O           -2.68302316709055        2.54494625298367       -0.01433325218987
C           -0.50564403596317        1.63682749443945        0.12037024355799
C            0.03818784234457        2.90640728745364        0.20842805728254
C            1.41656383535644        3.07883652398581        0.31619668683764
C            2.24721714982715        1.99122170032479        0.33444756998729
C            1.73540795890671        0.67346112207299        0.24660217322462
C            0.32260618051488        0.48986960322533        0.13720395792470
C           -0.25190136254896       -0.83336753903540        0.04222462113779
O            0.42760171960067       -1.87645653325166        0.04374068492090
N            2.55911471594349       -0.37857877083414        0.26468625288123
C            3.99878797011099       -0.33784033862042        0.35840787114894
C            4.56620585502355       -1.75426492162191        0.24429150369721
O            4.49474580335462       -2.27238792049696       -1.06531936335058
H           -5.55717114246758       -1.33113862155822       -0.34194982305888
H           -4.10514216204643       -3.33006547283140       -0.31206164489969
H           -1.64866534529445       -3.06337752534379       -0.13323128561242
H           -4.53665714523387        0.92767859037800       -0.19243710488458
H           -0.63059018975931        3.75304618312849        0.19225371801014
H            1.82585958536544        4.07416315203943        0.38691227186847
H            3.31123220687164        2.13091548665642        0.42178604369514
H            2.10177261893806       -1.28856458288667        0.24606435052515
H            4.30889523002246        0.09084756764181        1.31743986774439
H            4.41159117598593        0.26966207850673       -0.45388071610932
H            4.05021648051858       -2.41796077364849        0.94935084230273
H            5.62940876997008       -1.73967432433762        0.48929298742133
H            3.56861949016319       -2.34759119866403       -1.33152359460108
33
 energy: -56.019966267186 gnorm: 0.000684067907 xtb: 6.7.1 (edcfbbe)
C           -4.48830753947339       -1.22148973206489       -0.26384813984054
C           -3.67274664619667       -2.34441282333289       -0.24730219510220
C           -2.30115806919203       -2.20202985103363       -0.14764965152826
C           -1.72050542942176       -0.93839511544996       -0.06231658282146
C           -2.54433603229579        0.19305378844529       -0.07905443385486
C           -3.92565013205231        0.03822383721169       -0.18024033585581
C           -1.97165496951597        1.54261242605769        0.00737038791401
O           -2.68320343637559        2.54502697541139       -0.01219176635544
C           -0.50569912289350        1.63636527420918        0.12014532549696
C            0.03862694125489        2.90585829309069        0.20793856149539
C            1.41708305110957        3.07828798656340        0.31514450966603
C            2.24737722231062        1.99029563929319        0.33359079269674
C            1.73515949484974        0.67255059610320        0.24570428697274
C            0.32221445608091        0.48915258588120        0.13675184353559
C           -0.25253987149463       -0.83419363449269        0.04253567255438
O            0.42683195310248       -1.87740471614693        0.04318341568041
N            2.55881319258292       -0.37968185811850        0.26341515463727
C            3.99826984484039       -0.33770073356763        0.36011371012707
C            4.56789487410849       -1.75357762469923        0.24378606912835
O            4.49853685980081       -2.26945325228592       -1.06627263434770
H           -5.55857746970346       -1.32944643973462       -0.34194862692937
H           -4.10687033626486       -3.32970628563364       -0.31220580031199
H           -1.65004698270017       -3.06350798106749       -0.13319039987090
H           -4.53623392280482        0.92897199604241       -0.19157077533848
H           -0.63077016516292        3.75212427915050        0.19139207730071
H            1.82631899837151        4.07371928640267        0.38531087761710
H            3.31155895863126        2.12958202590491        0.42103891350389
H            2.10174099622588       -1.28990948262552        0.24520450829558
H            4.30631321497931        0.08910022142363        1.32073570576852
H            4.41240672093515        0.27194664294717       -0.44990643701042
H            4.05247639128152       -2.41899153928349        0.94804505421363
H            5.63095442185875       -1.73695239322341        0.49045812362878
H            3.57270584350770       -2.34719795470088       -1.33352458737616
33
 energy: -56.019971087186 gnorm: 0.000574659571 xtb: 6.7.1 (edcfbbe)
C           -4.48989197416639       -1.22050567176515       -0.26395315608835
C           -3.67476799455597       -2.34388999025024       -0.24763712216954
C           -2.30313216772932       -2.20214509258739       -0.14730253974381
C           -1.72163431825520       -0.93878576271902       -0.06146980524957
C           -2.54506342593820        0.19305433489980       -0.07771997606086
C           -3.92650470948694        0.03883437956033       -0.17949671996118
C           -1.97201963117027        1.54243323271755        0.01079678411497
O           -2.68362463557656        2.54493506086455       -0.00613190892178
C           -0.50571152096855        1.63586521314430        0.11954507797277
C            0.03935820418843        2.90527017794616        0.20567949022450