      -----------------------------------------------------------      
     |                   =====================                   |     
     |                           x T B                           |     
     |                   =====================                   |     
     |                         S. Grimme                         |     
     |          Mulliken Center for Theoretical Chemistry        |     
     |                    University of Bonn                     |     
      -----------------------------------------------------------      

   * xtb version 6.7.1 (edcfbbe) compiled by 'albert@albert-system' on 2024-07-22

   xtb is free software: you can redistribute it and/or modify it under
   the terms of the GNU Lesser General Public License as published by
   the Free Software Foundation, either version 3 of the License, or
   (at your option) any later version.
   
   xtb is distributed in the hope that it will be useful,
   but WITHOUT ANY WARRANTY; without even the implied warranty of
   MERCHANTABILITY or FITNESS FOR A PARTICULAR PURPOSE.  See the
   GNU Lesser General Public License for more details.
   
   Cite this work as:
   * C. Bannwarth, E. Caldeweyher, S. Ehlert, A. Hansen, P. Pracht,
     J. Seibert, S. Spicher, S. Grimme, WIREs Comput. Mol. Sci., 2020, 11,
     e01493. DOI: 10.1002/wcms.1493
   
   for GFN2-xTB:
   * C. Bannwarth, S. Ehlert and S. Grimme., J. Chem. Theory Comput., 2019,
     15, 1652-1671. DOI: 10.1021/acs.jctc.8b01176
   for GFN1-xTB:
   * S. Grimme, C. Bannwarth, P. Shushkov, J. Chem. Theory Comput., 2017,
     13, 1989-2009. DOI: 10.1021/acs.jctc.7b00118
   for GFN0-xTB:
   * P. Pracht, E. Caldeweyher, S. Ehlert, S. Grimme, ChemRxiv, 2019, preprint.
     DOI: 10.26434/chemrxiv.8326202.v1
   for GFN-FF:
   * S. Spicher and S. Grimme, Angew. Chem. Int. Ed., 2020, 59, 15665-15673.
     DOI: 10.1002/anie.202004239
   
   for ALPB and GBSA implicit solvation:
   * S. Ehlert, M. Stahn, S. Spicher, S. Grimme, J. Chem. Theory Comput.,
     2021, 17, 4250-4261. DOI: 10.1021/acs.jctc.1c00471
   
   for ddCOSMO and CPCM-X implicit solvation:
   * M. Stahn, S. Ehlert, S. Grimme, J. Phys. Chem. A,
     2023, XX, XXXX-XXXX. DOI: 10.1021/acs.jpca.3c04382
   
   for DFT-D4:
   * E. Caldeweyher, C. Bannwarth and S. Grimme, J. Chem. Phys., 2017,
     147, 034112. DOI: 10.1063/1.4993215
   * E. Caldeweyher, S. Ehlert, A. Hansen, H. Neugebauer, S. Spicher,
     C. Bannwarth and S. Grimme, J. Chem. Phys., 2019, 150, 154122.
     DOI: 10.1063/1.5090222
   * E. Caldeweyher, J.-M. Mewes, S. Ehlert and S. Grimme, Phys. Chem. Chem. Phys.
     2020, 22, 8499-8512. DOI: 10.1039/D0CP00502A
   
   for sTDA-xTB:
   * S. Grimme and C. Bannwarth, J. Chem. Phys., 2016, 145, 054103.
     DOI: 10.1063/1.4959605
   
   in the mass-spec context:
   * V. Asgeirsson, C. Bauer and S. Grimme, Chem. Sci., 2017, 8, 4879.
     DOI: 10.1039/c7sc00601b
   * J. Koopman and S. Grimme, ACS Omega 2019, 4, 12, 15120-15133.
     DOI: 10.1021/acsomega.9b02011
   
   for metadynamics refer to:
   * S. Grimme, J. Chem. Theory Comput., 2019, 155, 2847-2862
     DOI: 10.1021/acs.jctc.9b00143
   
   for SPH calculations refer to:
   * S. Spicher and S. Grimme, J. Chem. Theory Comput., 2021, 17, 1701-1714
     DOI: 10.1021/acs.jctc.0c01306
   
   for ONIOM refer to:
   * C. Plett, A. Katbashev, S. Ehlert, S. Grimme, M. Bursch,
     Phys. Chem. Chem. Phys., 2023, 25, 17860-17868. DOI: 10.1039/D3CP02178E
   
   for DIPRO refer to:
   * J. Kohn, N. Gildemeister, S. Grimme, D. Fazzi, A. Hansen,
     J. Chem. Phys., 2023, just accepted.
   
   for PTB refer to:
   * S. Grimme, M. Mueller, A. Hansen, J. Chem. Phys., 2023, 158, 124111.
     DOI: 10.1063/5.0137838
   
   with help from (in alphabetical order)
   P. Atkinson, C. Bannwarth, F. Bohle, G. Brandenburg, E. Caldeweyher
   M. Checinski, S. Dohm, S. Ehlert, S. Ehrlich, I. Gerasimov, C. Hölzer
   A. Katbashev, J. Kohn, J. Koopman, C. Lavigne, S. Lehtola, F. März, M. Müller,
   F. Musil, H. Neugebauer, J. Pisarek, C. Plett, P. Pracht, F. Pultar,
   J. Seibert, P. Shushkov, S. Spicher, M. Stahn, M. Steiner, T. Strunk,
   J. Stückrath, T. Rose, and J. Unsleber
   
 * started run on 2025/04/11 at 15:53:54.825     
   ID    Z sym.   atoms
    1    6 C      1-4, 7, 8
    2    8 O      5, 6
    3    1 H      9-20

           -------------------------------------------------
          |                Calculation Setup                |
           -------------------------------------------------

          program call               : /srv/scratch/z5358697/.xtb/bin/xtb solv.coord --gfn2 --sp --chrg 0 --norestart --parallel 1 --alpb water reference -I xtb_sp-xcontrol-inp
          hostname                   : k061
          coordinate file            : solv.coord
          omp threads                :                     1


           -------------------------------------------------
          |                 G F N 2 - x T B                 |
           -------------------------------------------------

        Reference                      10.1021/acs.jctc.8b01176
      * Hamiltonian:
        H0-scaling (s, p, d)           1.850000    2.230000    2.230000
        zeta-weighting                 0.500000
      * Dispersion:
        s8                             2.700000
        a1                             0.520000
        a2                             5.000000
        s9                             5.000000
      * Repulsion:
        kExp                           1.500000    1.000000
        rExp                           1.000000
      * Coulomb:
        alpha                          2.000000
        third order                    shell-resolved
        anisotropic                    true
        a3                             3.000000
        a5                             4.000000
        cn-shift                       1.200000
        cn-exp                         4.000000
        max-rad                        5.000000

      * Solvation model:               ALPB
        Solvent                        water
        Parameter file                 internal GFN2-xTB/ALPB
        Dielectric constant                8.0200E+01
        Reference state                gsolv=reference [X=1]
        Free energy shift                  2.8945E-03 Eh       1.8164E+00 kcal/mol
        Temperature                        2.9815E+02 K
        Density                            1.0000E+00 kg/L
        Solvent mass                       1.8000E+01 g/mol
        Interaction kernel             P16
        Born radius scaling (c1)           1.4744E+00
        Born radii integrator          GBOBC
        Born offset                        0.0000E+00 a0       0.0000E+00 AA
        H-bond correction              true
        Ion screening                  false
        Surface tension                    1.0000E-05 Eh       1.5569E+01 dyn/cm
        Grid points                               974 per atom

          ...................................................
          :                      SETUP                      :
          :.................................................:
          :  # basis functions                  44          :
          :  # atomic orbitals                  44          :
          :  # shells                           28          :
          :  # electrons                        48          :
          :  max. iterations                   250          :
          :  Hamiltonian                  GFN2-xTB          :
          :  restarted?                      false          :
          :  GBSA solvation                   true          :
          :  PC potential                    false          :
          :  electronic temp.          300.0000000     K    :
          :  accuracy                    1.0000000          :
          :  -> integral cutoff          0.2500000E+02      :
          :  -> integral neglect         0.1000000E-07      :
          :  -> SCF convergence          0.1000000E-05 Eh   :
          :  -> wf. convergence          0.1000000E-03 e    :
          :  Broyden damping             0.4000000          :
          :  net charge                          0          :
          :  unpaired electrons                  0          :
          ...................................................

 iter      E             dE          RMSdq      gap      omega  full diag
   1    -27.3729039 -0.273729E+02  0.410E+00    5.83       0.0  T
   2    -27.4336270 -0.607231E-01  0.208E+00    4.88       1.0  T
   3    -27.4352177 -0.159073E-02  0.103E+00    5.19       1.0  T
   4    -27.4366419 -0.142412E-02  0.159E-01    4.95       1.0  T
   5    -27.4368460 -0.204195E-03  0.689E-02    5.01       1.0  T
   6    -27.4368480 -0.194084E-05  0.219E-02    5.00       1.0  T
   7    -27.4368491 -0.110564E-05  0.414E-03    5.00       5.4  T
   8    -27.4368491 -0.244613E-07  0.235E-03    5.00       9.5  T
   9    -27.4368491 -0.112599E-07  0.399E-04    5.00      56.1  T
  10    -27.4368491 -0.372189E-09  0.212E-04    5.00     105.7  T

   *** convergence criteria satisfied after 10 iterations ***

         #    Occupation            Energy/Eh            Energy/eV
      -------------------------------------------------------------
         1        2.0000           -0.7494455             -20.3935
       ...           ...                  ...                  ...
        18        2.0000           -0.4657561             -12.6739
        19        2.0000           -0.4652912             -12.6612
        20        2.0000           -0.4499019             -12.2425
        21        2.0000           -0.4474513             -12.1758
        22        2.0000           -0.4403174             -11.9816
        23        2.0000           -0.4290811             -11.6759
        24        2.0000           -0.4198878             -11.4257 (HOMO)
        25                         -0.2359934              -6.4217 (LUMO)
        26                         -0.0041418              -0.1127
        27                          0.0787231               2.1422
        28                          0.1128391               3.0705
        29                          0.1170440               3.1849
       ...                                ...                  ...
        44                          0.6032250              16.4146
      -------------------------------------------------------------
                  HL-Gap            0.1838944 Eh            5.0040 eV
             Fermi-level           -0.3279406 Eh           -8.9237 eV

 SCC (total)                   0 d,  0 h,  0 min,  0.032 sec
 SCC setup                      ...        0 min,  0.003 sec (  8.412%)
 Dispersion                     ...        0 min,  0.000 sec (  0.483%)
 classical contributions        ...        0 min,  0.000 sec (  0.104%)
 integral evaluation            ...        0 min,  0.003 sec (  8.206%)
 iterations                     ...        0 min,  0.019 sec ( 60.963%)
 molecular gradient             ...        0 min,  0.007 sec ( 21.286%)
 printout                       ...        0 min,  0.000 sec (  0.468%)

         :::::::::::::::::::::::::::::::::::::::::::::::::::::
         ::                     SUMMARY                     ::
         :::::::::::::::::::::::::::::::::::::::::::::::::::::
         :: total energy             -27.120626777651 Eh    ::
         :: total w/o Gsasa/hb       -27.122219512746 Eh    ::
         :: gradient norm              0.000031218386 Eh/a0 ::
         :: HOMO-LUMO gap              5.004020842975 eV    ::
         ::.................................................::
         :: SCC energy               -27.436838975563 Eh    ::
         :: -> isotropic ES            0.059806035243 Eh    ::
         :: -> anisotropic ES          0.000953662957 Eh    ::
         :: -> anisotropic XC          0.008205655245 Eh    ::
         :: -> dispersion             -0.011398553244 Eh    ::
         :: -> Gsolv                  -0.007546332082 Eh    ::
         ::    -> Gelec               -0.009139067177 Eh    ::
         ::    -> Gsasa                0.001034936772 Eh    ::
         ::    -> Ghb                 -0.002336750838 Eh    ::
         ::    -> Gshift               0.002894549160 Eh    ::
         :: repulsion energy           0.316212197912 Eh    ::
         :: add. restraining           0.000000000000 Eh    ::
         :: total charge               0.000000000000 e     ::
         :::::::::::::::::::::::::::::::::::::::::::::::::::::

           -------------------------------------------------
          |                Property Printout                |
           -------------------------------------------------

    * Orbital Energies and Occupations

         #    Occupation            Energy/Eh            Energy/eV
      -------------------------------------------------------------
         1        2.0000           -0.7494455             -20.3935
       ...           ...                  ...                  ...
        12        2.0000           -0.5194344             -14.1345
        13        2.0000           -0.5130471             -13.9607
        14        2.0000           -0.5059142             -13.7666
        15        2.0000           -0.4937114             -13.4346
        16        2.0000           -0.4847407             -13.1905
        17        2.0000           -0.4690320             -12.7630
        18        2.0000           -0.4657561             -12.6739
        19        2.0000           -0.4652912             -12.6612
        20        2.0000           -0.4499019             -12.2425
        21        2.0000           -0.4474513             -12.1758
        22        2.0000           -0.4403174             -11.9816
        23        2.0000           -0.4290811             -11.6759
        24        2.0000           -0.4198878             -11.4257 (HOMO)
        25                         -0.2359934              -6.4217 (LUMO)
        26                         -0.0041418              -0.1127
        27                          0.0787231               2.1422
        28                          0.1128391               3.0705
        29                          0.1170440               3.1849
        30                          0.1360628               3.7025
        31                          0.1390170               3.7828
        32                          0.1573655               4.2821
        33                          0.1604823               4.3669
        34                          0.1718475               4.6762
        35                          0.1810671               4.9271
       ...                                ...                  ...
        44                          0.6032250              16.4146
      -------------------------------------------------------------
                  HL-Gap            0.1838944 Eh            5.0040 eV
             Fermi-level           -0.3279406 Eh           -8.9237 eV

     #   Z          covCN         q      C6AA      α(0)
     1   6 C        3.753    -0.118    22.819     6.812
     2   6 C        3.801    -0.059    21.635     6.622
     3   6 C        3.805    -0.100    22.414     6.740
     4   6 C        2.711     0.364    20.824     7.470
     5   8 O        0.856    -0.499    23.755     6.535
     6   8 O        1.703    -0.265    18.400     5.791
     7   6 C        3.694     0.067    19.616     6.336
     8   6 C        3.750    -0.127    22.999     6.839
     9   1 H        0.925     0.044     2.398     2.422
    10   1 H        0.925     0.048     2.339     2.392
    11   1 H        0.925     0.045     2.382     2.414
    12   1 H        0.924     0.044     2.393     2.419
    13   1 H        0.924     0.052     2.296     2.370
    14   1 H        0.924     0.091     1.872     2.139
    15   1 H        0.924     0.082     1.960     2.189
    16   1 H        0.924     0.082     1.957     2.188
    17   1 H        0.924     0.058     2.217     2.328
    18   1 H        0.925     0.067     2.124     2.279
    19   1 H        0.925     0.071     2.076     2.253
    20   1 H        0.925     0.053     2.289     2.366

 Mol. C6AA /au·bohr⁶  :       2994.950470
 Mol. C8AA /au·bohr⁸  :      63816.861217
 Mol. α(0) /au        :         80.904404


Wiberg/Mayer (AO) data.
largest (>0.10) Wiberg bond orders for each atom

 ---------------------------------------------------------------------------
     #   Z sym  total        # sym  WBO       # sym  WBO       # sym  WBO
 ---------------------------------------------------------------------------
     1   6 C    3.995 --     2 C    1.019     9 H    0.987    11 H    0.987
                            10 H    0.986
     2   6 C    3.993 --     1 C    1.019     3 C    1.006    12 H    0.978
                            13 H    0.976
     3   6 C    3.989 --     2 C    1.006     4 C    0.983    15 H    0.955
                            14 H    0.939
     4   6 C    3.905 --     5 O    1.680     6 O    1.174     3 C    0.983
     5   8 O    1.961 --     4 C    1.680     6 O    0.169
     6   8 O    2.325 --     4 C    1.174     7 C    0.920     5 O    0.169
     7   6 C    3.911 --     8 C    1.013    17 H    0.970    16 H    0.969
                             6 O    0.920
     8   6 C    3.989 --     7 C    1.013    20 H    0.986    18 H    0.984
                            19 H    0.980
     9   1 H    0.998 --     1 C    0.987
    10   1 H    0.997 --     1 C    0.986
    11   1 H    0.998 --     1 C    0.987
    12   1 H    0.998 --     2 C    0.978
    13   1 H    0.997 --     2 C    0.976
    14   1 H    0.992 --     3 C    0.939
    15   1 H    0.993 --     3 C    0.955
    16   1 H    0.993 --     7 C    0.969
    17   1 H    0.997 --     7 C    0.970
    18   1 H    0.996 --     8 C    0.984
    19   1 H    0.994 --     8 C    0.980
    20   1 H    0.997 --     8 C    0.986
 ---------------------------------------------------------------------------

Topologies differ in total number of bonds
Writing topology from bond orders to xtbtopo.mol

molecular dipole:
                 x           y           z       tot (Debye)
 q only:       -0.125      -1.198       0.303
   full:       -0.142      -1.157       0.269       3.041
molecular quadrupole (traceless):
                xx          xy          yy          xz          yz          zz
 q only:        9.617      -4.154      -8.372      -0.500       1.817      -1.245
  q+dip:        7.297      -4.803      -8.450      -0.386       1.866       1.153
   full:        7.883      -4.655      -9.091      -0.295       2.056       1.208


           -------------------------------------------------
          | TOTAL ENERGY              -27.120626777651 Eh   |
          | GRADIENT NORM               0.000031218386 Eh/α |
          | HOMO-LUMO GAP               5.004020842975 eV   |
           -------------------------------------------------

------------------------------------------------------------------------
 * finished run on 2025/04/11 at 15:53:54.897     
------------------------------------------------------------------------
 total:
 * wall-time:     0 d,  0 h,  0 min,  0.070 sec
 *  cpu-time:     0 d,  0 h,  0 min,  0.032 sec
 * ratio c/w:     0.454 speedup
 SCF:
 * wall-time:     0 d,  0 h,  0 min,  0.032 sec
 *  cpu-time:     0 d,  0 h,  0 min,  0.021 sec
 * ratio c/w:     0.669 speedup

