      -----------------------------------------------------------      
     |                   =====================                   |     
     |                           x T B                           |     
     |                   =====================                   |     
     |                         S. Grimme                         |     
     |          Mulliken Center for Theoretical Chemistry        |     
     |                    University of Bonn                     |     
      -----------------------------------------------------------      

   * xtb version 6.7.1 (edcfbbe) compiled by 'albert@albert-system' on 2024-07-22

   xtb is free software: you can redistribute it and/or modify it under
   the terms of the GNU Lesser General Public License as published by
   the Free Software Foundation, either version 3 of the License, or
   (at your option) any later version.
   
   xtb is distributed in the hope that it will be useful,
   but WITHOUT ANY WARRANTY; without even the implied warranty of
   MERCHANTABILITY or FITNESS FOR A PARTICULAR PURPOSE.  See the
   GNU Lesser General Public License for more details.
   
   Cite this work as:
   * C. Bannwarth, E. Caldeweyher, S. Ehlert, A. Hansen, P. Pracht,
     J. Seibert, S. Spicher, S. Grimme, WIREs Comput. Mol. Sci., 2020, 11,
     e01493. DOI: 10.1002/wcms.1493
   
   for GFN2-xTB:
   * C. Bannwarth, S. Ehlert and S. Grimme., J. Chem. Theory Comput., 2019,
     15, 1652-1671. DOI: 10.1021/acs.jctc.8b01176
   for GFN1-xTB:
   * S. Grimme, C. Bannwarth, P. Shushkov, J. Chem. Theory Comput., 2017,
     13, 1989-2009. DOI: 10.1021/acs.jctc.7b00118
   for GFN0-xTB:
   * P. Pracht, E. Caldeweyher, S. Ehlert, S. Grimme, ChemRxiv, 2019, preprint.
     DOI: 10.26434/chemrxiv.8326202.v1
   for GFN-FF:
   * S. Spicher and S. Grimme, Angew. Chem. Int. Ed., 2020, 59, 15665-15673.
     DOI: 10.1002/anie.202004239
   
   for ALPB and GBSA implicit solvation:
   * S. Ehlert, M. Stahn, S. Spicher, S. Grimme, J. Chem. Theory Comput.,
     2021, 17, 4250-4261. DOI: 10.1021/acs.jctc.1c00471
   
   for ddCOSMO and CPCM-X implicit solvation:
   * M. Stahn, S. Ehlert, S. Grimme, J. Phys. Chem. A,
     2023, XX, XXXX-XXXX. DOI: 10.1021/acs.jpca.3c04382
   
   for DFT-D4:
   * E. Caldeweyher, C. Bannwarth and S. Grimme, J. Chem. Phys., 2017,
     147, 034112. DOI: 10.1063/1.4993215
   * E. Caldeweyher, S. Ehlert, A. Hansen, H. Neugebauer, S. Spicher,
     C. Bannwarth and S. Grimme, J. Chem. Phys., 2019, 150, 154122.
     DOI: 10.1063/1.5090222
   * E. Caldeweyher, J.-M. Mewes, S. Ehlert and S. Grimme, Phys. Chem. Chem. Phys.
     2020, 22, 8499-8512. DOI: 10.1039/D0CP00502A
   
   for sTDA-xTB:
   * S. Grimme and C. Bannwarth, J. Chem. Phys., 2016, 145, 054103.
     DOI: 10.1063/1.4959605
   
   in the mass-spec context:
   * V. Asgeirsson, C. Bauer and S. Grimme, Chem. Sci., 2017, 8, 4879.
     DOI: 10.1039/c7sc00601b
   * J. Koopman and S. Grimme, ACS Omega 2019, 4, 12, 15120-15133.
     DOI: 10.1021/acsomega.9b02011
   
   for metadynamics refer to:
   * S. Grimme, J. Chem. Theory Comput., 2019, 155, 2847-2862
     DOI: 10.1021/acs.jctc.9b00143
   
   for SPH calculations refer to:
   * S. Spicher and S. Grimme, J. Chem. Theory Comput., 2021, 17, 1701-1714
     DOI: 10.1021/acs.jctc.0c01306
   
   for ONIOM refer to:
   * C. Plett, A. Katbashev, S. Ehlert, S. Grimme, M. Bursch,
     Phys. Chem. Chem. Phys., 2023, 25, 17860-17868. DOI: 10.1039/D3CP02178E
   
   for DIPRO refer to:
   * J. Kohn, N. Gildemeister, S. Grimme, D. Fazzi, A. Hansen,
     J. Chem. Phys., 2023, just accepted.
   
   for PTB refer to:
   * S. Grimme, M. Mueller, A. Hansen, J. Chem. Phys., 2023, 158, 124111.
     DOI: 10.1063/5.0137838
   
   with help from (in alphabetical order)
   P. Atkinson, C. Bannwarth, F. Bohle, G. Brandenburg, E. Caldeweyher
   M. Checinski, S. Dohm, S. Ehlert, S. Ehrlich, I. Gerasimov, C. Hölzer
   A. Katbashev, J. Kohn, J. Koopman, C. Lavigne, S. Lehtola, F. März, M. Müller,
   F. Musil, H. Neugebauer, J. Pisarek, C. Plett, P. Pracht, F. Pultar,
   J. Seibert, P. Shushkov, S. Spicher, M. Stahn, M. Steiner, T. Strunk,
   J. Stückrath, T. Rose, and J. Unsleber
   
 * started run on 2025/04/11 at 16:44:11.609     
   ID    Z sym.   atoms
    1    6 C      1-4, 7, 8
    2    8 O      5, 6
    3    1 H      9-20

           -------------------------------------------------
          |                Calculation Setup                |
           -------------------------------------------------

          program call               : /srv/scratch/z5358697/.xtb/bin/xtb xtb_rrho.coord --gfn2 --bhess vtight --chrg 0 --enso --norestart -I rrho-xcontrol-inp --parallel 1 --alpb water
          hostname                   : k061
          coordinate file            : xtb_rrho.coord
          omp threads                :                     1


           -------------------------------------------------
          |                 G F N 2 - x T B                 |
           -------------------------------------------------

        Reference                      10.1021/acs.jctc.8b01176
      * Hamiltonian:
        H0-scaling (s, p, d)           1.850000    2.230000    2.230000
        zeta-weighting                 0.500000
      * Dispersion:
        s8                             2.700000
        a1                             0.520000
        a2                             5.000000
        s9                             5.000000
      * Repulsion:
        kExp                           1.500000    1.000000
        rExp                           1.000000
      * Coulomb:
        alpha                          2.000000
        third order                    shell-resolved
        anisotropic                    true
        a3                             3.000000
        a5                             4.000000
        cn-shift                       1.200000
        cn-exp                         4.000000
        max-rad                        5.000000

      * Solvation model:               ALPB
        Solvent                        water
        Parameter file                 internal GFN2-xTB/ALPB
        Dielectric constant                8.0200E+01
        Reference state                gsolv [1 M gas/solution]
        Free energy shift                  1.0808E-03 Eh       6.7819E-01 kcal/mol
        Temperature                        2.9815E+02 K
        Density                            1.0000E+00 kg/L
        Solvent mass                       1.8000E+01 g/mol
        Interaction kernel             P16
        Born radius scaling (c1)           1.4744E+00
        Born radii integrator          GBOBC
        Born offset                        0.0000E+00 a0       0.0000E+00 AA
        H-bond correction              true
        Ion screening                  false
        Surface tension                    1.0000E-05 Eh       1.5569E+01 dyn/cm
        Grid points                               974 per atom

          ...................................................
          :                      SETUP                      :
          :.................................................:
          :  # basis functions                  44          :
          :  # atomic orbitals                  44          :
          :  # shells                           28          :
          :  # electrons                        48          :
          :  max. iterations                   250          :
          :  Hamiltonian                  GFN2-xTB          :
          :  restarted?                      false          :
          :  GBSA solvation                   true          :
          :  PC potential                    false          :
          :  electronic temp.          300.0000000     K    :
          :  accuracy                    1.0000000          :
          :  -> integral cutoff          0.2500000E+02      :
          :  -> integral neglect         0.1000000E-07      :
          :  -> SCF convergence          0.1000000E-05 Eh   :
          :  -> wf. convergence          0.1000000E-03 e    :
          :  Broyden damping             0.4000000          :
          :  net charge                          0          :
          :  unpaired electrons                  0          :
          ...................................................

 iter      E             dE          RMSdq      gap      omega  full diag
   1    -27.3582784 -0.273583E+02  0.392E+00    5.56       0.0  T
   2    -27.4182079 -0.599295E-01  0.194E+00    4.63       1.0  T
   3    -27.4201311 -0.192323E-02  0.102E+00    4.96       1.0  T
   4    -27.4217974 -0.166625E-02  0.160E-01    4.70       1.0  T
   5    -27.4220051 -0.207717E-03  0.661E-02    4.75       1.0  T
   6    -27.4220068 -0.170090E-05  0.236E-02    4.75       1.0  T
   7    -27.4220075 -0.719054E-06  0.371E-03    4.75       6.0  T
   8    -27.4220075 -0.251688E-07  0.212E-03    4.75      10.5  T
   9    -27.4220075 -0.697638E-08  0.364E-04    4.75      61.4  T
  10    -27.4220075 -0.395975E-09  0.187E-04    4.75     119.5  T

   *** convergence criteria satisfied after 10 iterations ***

         #    Occupation            Energy/Eh            Energy/eV
      -------------------------------------------------------------
         1        2.0000           -0.7438289             -20.2406
       ...           ...                  ...                  ...
        18        2.0000           -0.4664694             -12.6933
        19        2.0000           -0.4517611             -12.2930
        20        2.0000           -0.4475596             -12.1787
        21        2.0000           -0.4453473             -12.1185
        22        2.0000           -0.4431079             -12.0576
        23        2.0000           -0.4372540             -11.8983
        24        2.0000           -0.4157754             -11.3138 (HOMO)
        25                         -0.2412885              -6.5658 (LUMO)
        26                         -0.0258691              -0.7039
        27                          0.0855059               2.3267
        28                          0.1003740               2.7313
        29                          0.1113810               3.0308
       ...                                ...                  ...
        44                          0.5909032              16.0793
      -------------------------------------------------------------
                  HL-Gap            0.1744870 Eh            4.7480 eV
             Fermi-level           -0.3285319 Eh           -8.9398 eV

 SCC (total)                   0 d,  0 h,  0 min,  0.018 sec
 SCC setup                      ...        0 min,  0.001 sec (  7.579%)
 Dispersion                     ...        0 min,  0.000 sec (  0.655%)
 classical contributions        ...        0 min,  0.000 sec (  0.144%)
 integral evaluation            ...        0 min,  0.002 sec (  9.206%)
 iterations                     ...        0 min,  0.010 sec ( 56.255%)
 molecular gradient             ...        0 min,  0.005 sec ( 25.338%)
 printout                       ...        0 min,  0.000 sec (  0.739%)

         :::::::::::::::::::::::::::::::::::::::::::::::::::::
         ::                     SUMMARY                     ::
         :::::::::::::::::::::::::::::::::::::::::::::::::::::
         :: total energy             -27.120010943433 Eh    ::
         :: total w/o Gsasa/hb       -27.119831934685 Eh    ::
         :: gradient norm              0.033356483890 Eh/a0 ::
         :: HOMO-LUMO gap              4.748031835405 eV    ::
         ::.................................................::
         :: SCC energy               -27.422001236830 Eh    ::
         :: -> isotropic ES            0.059190973074 Eh    ::
         :: -> anisotropic ES          0.001609472105 Eh    ::
         :: -> anisotropic XC          0.008831299040 Eh    ::
         :: -> dispersion             -0.011515598502 Eh    ::
         :: -> Gsolv                  -0.008976615320 Eh    ::
         ::    -> Gelec               -0.008797606571 Eh    ::
         ::    -> Gsasa                0.000858660814 Eh    ::
         ::    -> Ghb                 -0.002118429261 Eh    ::
         ::    -> Gshift               0.001080759698 Eh    ::
         :: repulsion energy           0.301990293398 Eh    ::
         :: add. restraining           0.000000000000 Eh    ::
         :: total charge              -0.000000000000 e     ::
         :::::::::::::::::::::::::::::::::::::::::::::::::::::

metadynamics with 1 initial structures loaded
           -------------------------------------------------
          |           Optimal kpush determination           |
           -------------------------------------------------
      ----------------------------------------------------------- 
     |                   =====================                   |
     |                        A N C O P T                        |
     |                   =====================                   |
     |               Approximate Normal Coordinate               |
     |                Rational Function Optimizer                |
      ----------------------------------------------------------- 
target rmsd / Å         0.100000
unbiased initial rmsd   0.776040
 
iter. min.        max.        rmsd       kpush
      ----------------------------------------------------------- 
     |                   =====================                   |
     |                        A N C O P T                        |
     |                   =====================                   |
     |               Approximate Normal Coordinate               |
     |                Rational Function Optimizer                |
      ----------------------------------------------------------- 
 1    0.000000    0.909091    0.011139   -0.454545
      ----------------------------------------------------------- 
     |                   =====================                   |
     |                        A N C O P T                        |
     |                   =====================                   |
     |               Approximate Normal Coordinate               |
     |                Rational Function Optimizer                |
      ----------------------------------------------------------- 
 2    0.000000    0.454545    0.014916   -0.227273
      ----------------------------------------------------------- 
     |                   =====================                   |
     |                        A N C O P T                        |
     |                   =====================                   |
     |               Approximate Normal Coordinate               |
     |                Rational Function Optimizer                |
      ----------------------------------------------------------- 
 3    0.000000    0.227273    0.020130   -0.113636
      ----------------------------------------------------------- 
     |                   =====================                   |
     |                        A N C O P T                        |
     |                   =====================                   |
     |               Approximate Normal Coordinate               |
     |                Rational Function Optimizer                |
      ----------------------------------------------------------- 
 4    0.000000    0.113636    0.027736   -0.056818
      ----------------------------------------------------------- 
     |                   =====================                   |
     |                        A N C O P T                        |
     |                   =====================                   |
     |               Approximate Normal Coordinate               |
     |                Rational Function Optimizer                |
      ----------------------------------------------------------- 
 5    0.000000    0.056818    0.039340   -0.028409
      ----------------------------------------------------------- 
     |                   =====================                   |
     |                        A N C O P T                        |
     |                   =====================                   |
     |               Approximate Normal Coordinate               |
     |                Rational Function Optimizer                |
      ----------------------------------------------------------- 
 6    0.000000    0.028409    0.054287   -0.014205
      ----------------------------------------------------------- 
     |                   =====================                   |
     |                        A N C O P T                        |
     |                   =====================                   |
     |               Approximate Normal Coordinate               |
     |                Rational Function Optimizer                |
      ----------------------------------------------------------- 
 7    0.000000    0.014205    0.074267   -0.007102
      ----------------------------------------------------------- 
     |                   =====================                   |
     |                        A N C O P T                        |
     |                   =====================                   |
     |               Approximate Normal Coordinate               |
     |                Rational Function Optimizer                |
      ----------------------------------------------------------- 
 8    0.000000    0.007102    0.108471   -0.003551
      ----------------------------------------------------------- 
     |                   =====================                   |
     |                        A N C O P T                        |
     |                   =====================                   |
     |               Approximate Normal Coordinate               |
     |                Rational Function Optimizer                |
      ----------------------------------------------------------- 
 9    0.003551    0.007102    0.085656   -0.005327
      ----------------------------------------------------------- 
     |                   =====================                   |
     |                        A N C O P T                        |
     |                   =====================                   |
     |               Approximate Normal Coordinate               |
     |                Rational Function Optimizer                |
      ----------------------------------------------------------- 
10    0.003551    0.005327    0.094603   -0.004439
final kpush: -0.004439
           -------------------------------------------------
          |            Biased Numerical Hessian             |
           -------------------------------------------------
kpush                :  -0.00444
alpha                :   1.00000
step length          :   0.00500
SCC accuracy         :   0.30000
Hessian scale factor :   1.00000
frozen atoms in %    :   0.00000    0
RMS gradient         :   0.00002
estimated CPU  time      0.02 min
estimated wall time      0.02 min

writing file <hessian>.

 projected vibrational frequencies (cm⁻¹)
eigval :       -0.00    -0.00     0.00     0.00     0.00     0.00
eigval :       36.94    68.06    98.09   115.80   167.97   211.22
eigval :      252.86   289.14   313.96   401.98   459.65   583.74
eigval :      654.20   793.85   825.99   874.19   900.17   911.40
eigval :      966.23  1051.52  1064.20  1087.83  1094.95  1126.24
eigval :     1135.80  1161.04  1188.99  1249.83  1257.51  1309.36
eigval :     1322.72  1339.02  1393.72  1409.77  1419.85  1429.44
eigval :     1470.60  1475.59  1484.94  1495.23  1502.62  1709.26
eigval :     2944.22  2963.79  2978.69  2990.58  2991.73  2997.79
eigval :     3029.00  3039.97  3040.51  3048.16  3049.55  3061.60
           -------------------------------------------------
          |                Property Printout                |
           -------------------------------------------------

    * Orbital Energies and Occupations

         #    Occupation            Energy/Eh            Energy/eV
      -------------------------------------------------------------
         1        2.0000           -0.7485150             -20.3681
       ...           ...                  ...                  ...
        12        2.0000           -0.5190061             -14.1229
        13        2.0000           -0.5125676             -13.9477
        14        2.0000           -0.5023650             -13.6700
        15        2.0000           -0.4949101             -13.4672
        16        2.0000           -0.4867277             -13.2445
        17        2.0000           -0.4775434             -12.9946
        18        2.0000           -0.4676855             -12.7264
        19        2.0000           -0.4508430             -12.2681
        20        2.0000           -0.4472899             -12.1714
        21        2.0000           -0.4445433             -12.0966
        22        2.0000           -0.4436683             -12.0728
        23        2.0000           -0.4373521             -11.9010
        24        2.0000           -0.4148416             -11.2884 (HOMO)
        25                         -0.2362250              -6.4280 (LUMO)
        26                         -0.0070789              -0.1926
        27                          0.0983123               2.6752
        28                          0.1104447               3.0054
        29                          0.1153985               3.1402
        30                          0.1269712               3.4551
        31                          0.1494383               4.0664
        32                          0.1534928               4.1768
        33                          0.1575090               4.2860
        34                          0.1660703               4.5190
        35                          0.1809595               4.9242
       ...                                ...                  ...
        44                          0.6243978              16.9907
      -------------------------------------------------------------
                  HL-Gap            0.1786167 Eh            4.8604 eV
             Fermi-level           -0.3255333 Eh           -8.8582 eV

     #   Z          covCN         q      C6AA      α(0)
     1   6 C        3.752    -0.115    22.762     6.804
     2   6 C        3.801    -0.056    21.584     6.615
     3   6 C        3.804    -0.103    22.465     6.748
     4   6 C        2.710     0.366    20.793     7.464
     5   8 O        0.856    -0.476    23.269     6.467
     6   8 O        1.703    -0.284    18.708     5.840
     7   6 C        3.692     0.069    19.592     6.333
     8   6 C        3.750    -0.127    22.992     6.838
     9   1 H        0.925     0.042     2.418     2.432
    10   1 H        0.925     0.042     2.422     2.434
    11   1 H        0.925     0.044     2.392     2.418
    12   1 H        0.924     0.053     2.281     2.362
    13   1 H        0.924     0.041     2.429     2.437
    14   1 H        0.924     0.093     1.854     2.129
    15   1 H        0.924     0.084     1.936     2.176
    16   1 H        0.924     0.081     1.970     2.195
    17   1 H        0.924     0.057     2.236     2.339
    18   1 H        0.925     0.054     2.276     2.359
    19   1 H        0.925     0.064     2.150     2.293
    20   1 H        0.925     0.070     2.088     2.260

 Mol. C6AA /au·bohr⁶  :       2997.208050
 Mol. C8AA /au·bohr⁸  :      63833.204429
 Mol. α(0) /au        :         80.942424


Wiberg/Mayer (AO) data.
largest (>0.10) Wiberg bond orders for each atom

 ---------------------------------------------------------------------------
     #   Z sym  total        # sym  WBO       # sym  WBO       # sym  WBO
 ---------------------------------------------------------------------------
     1   6 C    3.995 --     2 C    1.021    10 H    0.987     9 H    0.987
                            11 H    0.986
     2   6 C    3.994 --     1 C    1.021     3 C    1.004    13 H    0.978
                            12 H    0.977
     3   6 C    3.989 --     2 C    1.004     4 C    0.981    15 H    0.958
                            14 H    0.939
     4   6 C    3.903 --     5 O    1.704     6 O    1.153     3 C    0.981
     5   8 O    1.986 --     4 C    1.704     6 O    0.167
     6   8 O    2.302 --     4 C    1.153     7 C    0.921     5 O    0.167
     7   6 C    3.913 --     8 C    1.014    17 H    0.970    16 H    0.970
                             6 O    0.921
     8   6 C    3.989 --     7 C    1.014    18 H    0.986    19 H    0.985
                            20 H    0.980
     9   1 H    0.998 --     1 C    0.987
    10   1 H    0.998 --     1 C    0.987
    11   1 H    0.998 --     1 C    0.986
    12   1 H    0.997 --     2 C    0.977
    13   1 H    0.998 --     2 C    0.978
    14   1 H    0.991 --     3 C    0.939
    15   1 H    0.993 --     3 C    0.958
    16   1 H    0.993 --     7 C    0.970
    17   1 H    0.997 --     7 C    0.970
    18   1 H    0.997 --     8 C    0.986
    19   1 H    0.996 --     8 C    0.985
    20   1 H    0.995 --     8 C    0.980
 ---------------------------------------------------------------------------

Topologies differ in total number of bonds
Writing topology from bond orders to xtbtopo.mol

molecular dipole:
                 x           y           z       tot (Debye)
 q only:        0.259       0.876       0.424
   full:        0.279       0.890       0.496       2.684
molecular quadrupole (traceless):
                xx          xy          yy          xz          yz          zz
 q only:        8.998      -1.163      -5.679      -0.447      -1.767      -3.320
  q+dip:        7.040      -1.558      -5.073      -0.481      -2.346      -1.967
   full:        7.332      -1.444      -5.474      -0.552      -2.844      -1.858

           -------------------------------------------------
          |                Geometry Summary                 |
           -------------------------------------------------

      molecular mass/u    :      116.1585142
   center of mass at/Å    :       -0.0011774       0.0075037      -0.0571223
  moments of inertia/u·Å² :        0.9554618E+02   0.5218484E+03   0.5514766E+03
rotational constants/cm⁻¹ :        0.1764344E+00   0.3230370E-01   0.3056817E-01

 * 18 selected distances

     #   Z          #   Z                                           value/Å
     1   6 C        2   6 C                                       1.5242919
     2   6 C        3   6 C                                       1.5292769 (max)
     4   6 C        5   8 O                                       1.2117171
     4   6 C        6   8 O                                       1.3318635
     6   8 O        7   6 C                                       1.4375074
     7   6 C        8   6 C                                       1.5213344
     1   6 C        9   1 H                                       1.0869410
     1   6 C       10   1 H                                       1.0875888
     1   6 C       11   1 H                                       1.0868617
     2   6 C       12   1 H                                       1.0907873
     2   6 C       13   1 H                                       1.0915823
     3   6 C       14   1 H                                       1.0926806
     3   6 C       15   1 H                                       1.0904524
     7   6 C       16   1 H                                       1.0902845
     7   6 C       17   1 H                                       1.0942676
     8   6 C       18   1 H                                       1.0877291
     8   6 C       19   1 H                                       1.0866933
     8   6 C       20   1 H                                       1.0851145 (min)

 * 3 distinct bonds (by element types)

   Z      Z             #   av. dist./Å        max./Å        min./Å
   1 H    6 C          12     1.0892486     1.0942676     1.0851145
   6 C    6 C           3     1.5249677     1.5292769     1.5213344
   6 C    8 O           3     1.3270293     1.4375074     1.2117171

           -------------------------------------------------
          |               Frequency Printout                |
           -------------------------------------------------
 projected vibrational frequencies (cm⁻¹)
eigval :       -0.00    -0.00     0.00     0.00     0.00     0.00
eigval :       36.94    68.06    98.09   115.80   167.97   211.22
eigval :      252.86   289.14   313.96   401.98   459.65   583.74
eigval :      654.20   793.85   825.99   874.19   900.17   911.40
eigval :      966.23  1051.52  1064.20  1087.83  1094.95  1126.24
eigval :     1135.80  1161.04  1188.99  1249.83  1257.51  1309.36
eigval :     1322.72  1339.02  1393.72  1409.77  1419.85  1429.44
eigval :     1470.60  1475.59  1484.94  1495.23  1502.62  1709.26
eigval :     2944.22  2963.79  2978.69  2990.58  2991.73  2997.79
eigval :     3029.00  3039.97  3040.51  3048.16  3049.55  3061.60
 reduced masses (amu)
   1: 10.92   2: 11.87   3:  9.97   4: 10.84   5: 11.74   6: 11.03   7: 11.90   8:  9.22
   9:  9.60  10:  9.20  11:  6.41  12:  3.90  13:  4.73  14:  8.34  15:  9.70  16: 10.23
  17:  8.42  18: 10.47  19: 10.96  20:  4.34  21:  3.20  22:  7.34  23:  9.27  24:  8.77
  25:  7.25  26:  8.90  27:  5.14  28:  5.09  29:  7.53  30: 10.29  31:  8.19  32:  7.66
  33:  4.57  34:  2.77  35:  2.92  36:  3.50  37:  5.32  38:  4.68  39:  3.08  40:  3.10
  41:  2.02  42:  2.00  43:  1.51  44:  1.91  45:  1.57  46:  1.56  47:  1.55  48: 13.29
  49:  1.72  50:  1.81  51:  1.99  52:  1.49  53:  1.73  54:  1.65  55:  1.84  56:  1.81
  57:  1.83  58:  1.61  59:  1.50  60:  1.73
 IR intensities (km·mol⁻¹)
   1:  1.04   2:  0.01   3:  0.45   4:  1.58   5:  0.17   6:  0.12   7:  1.85   8:  2.03
   9:  1.00  10:  3.70  11:  3.37  12:  4.42  13:  1.85  14: 11.83  15:  9.15  16:  4.35
  17:  0.93  18: 16.70  19: 11.18  20: 25.18  21: 15.66  22: 23.29  23: 12.65  24:  0.87
  25:  4.15  26: 17.67  27: 13.71  28: 68.22  29: 16.34  30:272.38  31:135.99  32:112.17
  33: 10.24  34:  9.11  35: 15.53  36: 12.25  37: 58.14  38:  9.75  39:  6.16  40:  5.04
  41: 23.67  42:  2.82  43:  5.61  44:  1.06  45:  2.39  46:  1.72  47:  1.41  48:639.62
  49: 33.68  50:  2.93  51: 51.80  52: 47.03  53: 11.37  54: 30.33  55: 76.82  56: 68.76
  57: 30.19  58: 31.49  59: 34.66  60: 23.61
 Raman intensities (Ä⁴*amu⁻¹)
   1:  0.00   2:  0.00   3:  0.00   4:  0.00   5:  0.00   6:  0.00   7:  0.00   8:  0.00
   9:  0.00  10:  0.00  11:  0.00  12:  0.00  13:  0.00  14:  0.00  15:  0.00  16:  0.00
  17:  0.00  18:  0.00  19:  0.00  20:  0.00  21:  0.00  22:  0.00  23:  0.00  24:  0.00
  25:  0.00  26:  0.00  27:  0.00  28:  0.00  29:  0.00  30:  0.00  31:  0.00  32:  0.00
  33:  0.00  34:  0.00  35:  0.00  36:  0.00  37:  0.00  38:  0.00  39:  0.00  40:  0.00
  41:  0.00  42:  0.00  43:  0.00  44:  0.00  45:  0.00  46:  0.00  47:  0.00  48:  0.00
  49:  0.00  50:  0.00  51:  0.00  52:  0.00  53:  0.00  54:  0.00  55:  0.00  56:  0.00
  57:  0.00  58:  0.00  59:  0.00  60:  0.00
 output can be read by thermo (or use thermo option).
 writing <g98.out> molden fake output.
 recommended (thermochemical) frequency scaling factor: 1.0
           -------------------------------------------------
          |             Thermodynamic Functions             |
           -------------------------------------------------

Molecule has no symmetry elements
It seems to be the C1 point group
c1  symmetry found (for desy threshold:  0.10E+00) used in thermo

          ...................................................
          :                      SETUP                      :
          :.................................................:
          :  # frequencies                          54      :
          :  # imaginary freq.                       0      :
          :  linear?                             false      :
          :  only rotor calc.                    false      :
          :  symmetry                               c1      :
          :  rotational number                       1      :
          :  scaling factor                  1.0000000      :
          :  rotor cutoff                    0.0000000 cm⁻¹ :
          :  imag. cutoff                 -100.0000000 cm⁻¹ :
          :.................................................:

    mode    ω/cm⁻¹     T·S(HO)/kcal·mol⁻¹    T·S(FR)/kcal·mol⁻¹   T·S(vib)
   ------------------------------------------------------------------------
       1     36.94    -1.61500 (100.00%)    -1.14588 (  0.00%)    -1.61500
       2     68.06    -1.25479 (100.00%)    -0.96499 (  0.00%)    -1.25479
       3     98.09    -1.04113 (100.00%)    -0.85680 (  0.00%)    -1.04113
       4    115.80    -0.94495 (100.00%)    -0.80765 (  0.00%)    -0.94495
       5    167.97    -0.73286 (100.00%)    -0.69749 (  0.00%)    -0.73286
       6    211.22    -0.60617 (100.00%)    -0.62964 (  0.00%)    -0.60617
       7    252.86    -0.51000 (100.00%)    -0.57635 (  0.00%)    -0.51000
       8    289.14    -0.44097 (100.00%)    -0.53664 (  0.00%)    -0.44097
   ------------------------------------------------------------------------

   temp. (K)  partition function   enthalpy   heat capacity  entropy
                                   cal/mol     cal/K/mol   cal/K/mol   J/K/mol
 298.15  VIB  0.156E+04             4460.191     28.397     29.565
         ROT  0.401E+06              888.752      2.981     28.618
         INT  0.623E+09             5348.943     31.378     58.183
         TR   0.121E+28             1481.254      4.968     40.146
         TOT                        6830.1971    36.3463    98.3294   411.4101

       T/K    H(0)-H(T)+PV         H(T)/Eh          T*S/Eh         G(T)/Eh
   ------------------------------------------------------------------------
    298.15    0.108846E-01    0.182296E+00    0.467195E-01    0.135577E+00
   ------------------------------------------------------------------------

         :::::::::::::::::::::::::::::::::::::::::::::::::::::
         ::                  THERMODYNAMIC                  ::
         :::::::::::::::::::::::::::::::::::::::::::::::::::::
         :: total free energy         -26.990660159842 Eh   ::
         ::.................................................::
         :: total energy              -27.126237011645 Eh   ::
         :: zero point energy           0.171411703701 Eh   ::
         :: G(RRHO) w/o ZPVE           -0.035834851898 Eh   ::
         :: G(RRHO) contrib.            0.135576851804 Eh   ::
         :::::::::::::::::::::::::::::::::::::::::::::::::::::

optimized geometry written to: xtbopt.coord


           -------------------------------------------------
          | TOTAL ENERGY              -27.126237011645 Eh   |
          | TOTAL ENTHALPY            -26.943940696002 Eh   |
          | TOTAL FREE ENERGY         -26.990660159842 Eh   |
          | GRADIENT NORM               0.000021046885 Eh/α |
          | HOMO-LUMO GAP               4.860407059861 eV   |
           -------------------------------------------------

------------------------------------------------------------------------
 * finished run on 2025/04/11 at 16:44:15.477     
------------------------------------------------------------------------
 total:
 * wall-time:     0 d,  0 h,  0 min,  3.867 sec
 *  cpu-time:     0 d,  0 h,  0 min,  3.694 sec
 * ratio c/w:     0.955 speedup
 SCF:
 * wall-time:     0 d,  0 h,  0 min,  0.018 sec
 *  cpu-time:     0 d,  0 h,  0 min,  0.014 sec
 * ratio c/w:     0.773 speedup
 analytical hessian:
 * wall-time:     0 d,  0 h,  0 min,  1.082 sec
 *  cpu-time:     0 d,  0 h,  0 min,  1.073 sec
 * ratio c/w:     0.991 speedup

