      -----------------------------------------------------------      
     |                   =====================                   |     
     |                           x T B                           |     
     |                   =====================                   |     
     |                         S. Grimme                         |     
     |          Mulliken Center for Theoretical Chemistry        |     
     |                    University of Bonn                     |     
      -----------------------------------------------------------      

   * xtb version 6.7.1 (edcfbbe) compiled by 'albert@albert-system' on 2024-07-22

   xtb is free software: you can redistribute it and/or modify it under
   the terms of the GNU Lesser General Public License as published by
   the Free Software Foundation, either version 3 of the License, or
   (at your option) any later version.
   
   xtb is distributed in the hope that it will be useful,
   but WITHOUT ANY WARRANTY; without even the implied warranty of
   MERCHANTABILITY or FITNESS FOR A PARTICULAR PURPOSE.  See the
   GNU Lesser General Public License for more details.
   
   Cite this work as:
   * C. Bannwarth, E. Caldeweyher, S. Ehlert, A. Hansen, P. Pracht,
     J. Seibert, S. Spicher, S. Grimme, WIREs Comput. Mol. Sci., 2020, 11,
     e01493. DOI: 10.1002/wcms.1493
   
   for GFN2-xTB:
   * C. Bannwarth, S. Ehlert and S. Grimme., J. Chem. Theory Comput., 2019,
     15, 1652-1671. DOI: 10.1021/acs.jctc.8b01176
   for GFN1-xTB:
   * S. Grimme, C. Bannwarth, P. Shushkov, J. Chem. Theory Comput., 2017,
     13, 1989-2009. DOI: 10.1021/acs.jctc.7b00118
   for GFN0-xTB:
   * P. Pracht, E. Caldeweyher, S. Ehlert, S. Grimme, ChemRxiv, 2019, preprint.
     DOI: 10.26434/chemrxiv.8326202.v1
   for GFN-FF:
   * S. Spicher and S. Grimme, Angew. Chem. Int. Ed., 2020, 59, 15665-15673.
     DOI: 10.1002/anie.202004239
   
   for ALPB and GBSA implicit solvation:
   * S. Ehlert, M. Stahn, S. Spicher, S. Grimme, J. Chem. Theory Comput.,
     2021, 17, 4250-4261. DOI: 10.1021/acs.jctc.1c00471
   
   for ddCOSMO and CPCM-X implicit solvation:
   * M. Stahn, S. Ehlert, S. Grimme, J. Phys. Chem. A,
     2023, XX, XXXX-XXXX. DOI: 10.1021/acs.jpca.3c04382
   
   for DFT-D4:
   * E. Caldeweyher, C. Bannwarth and S. Grimme, J. Chem. Phys., 2017,
     147, 034112. DOI: 10.1063/1.4993215
   * E. Caldeweyher, S. Ehlert, A. Hansen, H. Neugebauer, S. Spicher,
     C. Bannwarth and S. Grimme, J. Chem. Phys., 2019, 150, 154122.
     DOI: 10.1063/1.5090222
   * E. Caldeweyher, J.-M. Mewes, S. Ehlert and S. Grimme, Phys. Chem. Chem. Phys.
     2020, 22, 8499-8512. DOI: 10.1039/D0CP00502A
   
   for sTDA-xTB:
   * S. Grimme and C. Bannwarth, J. Chem. Phys., 2016, 145, 054103.
     DOI: 10.1063/1.4959605
   
   in the mass-spec context:
   * V. Asgeirsson, C. Bauer and S. Grimme, Chem. Sci., 2017, 8, 4879.
     DOI: 10.1039/c7sc00601b
   * J. Koopman and S. Grimme, ACS Omega 2019, 4, 12, 15120-15133.
     DOI: 10.1021/acsomega.9b02011
   
   for metadynamics refer to:
   * S. Grimme, J. Chem. Theory Comput., 2019, 155, 2847-2862
     DOI: 10.1021/acs.jctc.9b00143
   
   for SPH calculations refer to:
   * S. Spicher and S. Grimme, J. Chem. Theory Comput., 2021, 17, 1701-1714
     DOI: 10.1021/acs.jctc.0c01306
   
   for ONIOM refer to:
   * C. Plett, A. Katbashev, S. Ehlert, S. Grimme, M. Bursch,
     Phys. Chem. Chem. Phys., 2023, 25, 17860-17868. DOI: 10.1039/D3CP02178E
   
   for DIPRO refer to:
   * J. Kohn, N. Gildemeister, S. Grimme, D. Fazzi, A. Hansen,
     J. Chem. Phys., 2023, just accepted.
   
   for PTB refer to:
   * S. Grimme, M. Mueller, A. Hansen, J. Chem. Phys., 2023, 158, 124111.
     DOI: 10.1063/5.0137838
   
   with help from (in alphabetical order)
   P. Atkinson, C. Bannwarth, F. Bohle, G. Brandenburg, E. Caldeweyher
   M. Checinski, S. Dohm, S. Ehlert, S. Ehrlich, I. Gerasimov, C. Hölzer
   A. Katbashev, J. Kohn, J. Koopman, C. Lavigne, S. Lehtola, F. März, M. Müller,
   F. Musil, H. Neugebauer, J. Pisarek, C. Plett, P. Pracht, F. Pultar,
   J. Seibert, P. Shushkov, S. Spicher, M. Stahn, M. Steiner, T. Strunk,
   J. Stückrath, T. Rose, and J. Unsleber
   
 * started run on 2025/04/11 at 12:27:00.489     
   ID    Z sym.   atoms
    1    6 C      1, 2, 4
    2   17 Cl     3, 5
    3    1 H      6-11

           -------------------------------------------------
          |                Calculation Setup                |
           -------------------------------------------------

          program call               : /srv/scratch/z5358697/.xtb/bin/xtb solv.coord --gfn2 --sp --chrg 0 --norestart --parallel 1 --alpb water reference -I xtb_sp-xcontrol-inp
          hostname                   : k112
          coordinate file            : solv.coord
          omp threads                :                     1


           -------------------------------------------------
          |                 G F N 2 - x T B                 |
           -------------------------------------------------

        Reference                      10.1021/acs.jctc.8b01176
      * Hamiltonian:
        H0-scaling (s, p, d)           1.850000    2.230000    2.230000
        zeta-weighting                 0.500000
      * Dispersion:
        s8                             2.700000
        a1                             0.520000
        a2                             5.000000
        s9                             5.000000
      * Repulsion:
        kExp                           1.500000    1.000000
        rExp                           1.000000
      * Coulomb:
        alpha                          2.000000
        third order                    shell-resolved
        anisotropic                    true
        a3                             3.000000
        a5                             4.000000
        cn-shift                       1.200000
        cn-exp                         4.000000
        max-rad                        5.000000

      * Solvation model:               ALPB
        Solvent                        water
        Parameter file                 internal GFN2-xTB/ALPB
        Dielectric constant                8.0200E+01
        Reference state                gsolv=reference [X=1]
        Free energy shift                  2.8945E-03 Eh       1.8164E+00 kcal/mol
        Temperature                        2.9815E+02 K
        Density                            1.0000E+00 kg/L
        Solvent mass                       1.8000E+01 g/mol
        Interaction kernel             P16
        Born radius scaling (c1)           1.4744E+00
        Born radii integrator          GBOBC
        Born offset                        0.0000E+00 a0       0.0000E+00 AA
        H-bond correction              true
        Ion screening                  false
        Surface tension                    1.0000E-05 Eh       1.5569E+01 dyn/cm
        Grid points                               974 per atom

          ...................................................
          :                      SETUP                      :
          :.................................................:
          :  # basis functions                  38          :
          :  # atomic orbitals                  36          :
          :  # shells                           18          :
          :  # electrons                        32          :
          :  max. iterations                   250          :
          :  Hamiltonian                  GFN2-xTB          :
          :  restarted?                      false          :
          :  GBSA solvation                   true          :
          :  PC potential                    false          :
          :  electronic temp.          300.0000000     K    :
          :  accuracy                    1.0000000          :
          :  -> integral cutoff          0.2500000E+02      :
          :  -> integral neglect         0.1000000E-07      :
          :  -> SCF convergence          0.1000000E-05 Eh   :
          :  -> wf. convergence          0.1000000E-03 e    :
          :  Broyden damping             0.4000000          :
          :  net charge                          0          :
          :  unpaired electrons                  0          :
          ...................................................

 iter      E             dE          RMSdq      gap      omega  full diag
   1    -18.6779765 -0.186780E+02  0.454E+00    7.04       0.0  T
   2    -18.7210858 -0.431092E-01  0.257E+00    6.58       1.0  T
   3    -18.7216763 -0.590514E-03  0.116E+00    6.65       1.0  T
   4    -18.7219497 -0.273465E-03  0.128E-01    6.62       1.0  T
   5    -18.7219964 -0.466380E-04  0.853E-02    6.64       1.0  T
   6    -18.7220163 -0.199158E-04  0.468E-02    6.65       1.0  T
   7    -18.7220282 -0.118747E-04  0.117E-02    6.66       2.6  T
   8    -18.7220288 -0.655722E-06  0.496E-03    6.67       6.1  T
   9    -18.7220289 -0.553523E-07  0.198E-03    6.67      15.3  T
  10    -18.7220289 -0.969514E-08  0.684E-04    6.67      44.1  T
  11    -18.7220289 -0.204729E-08  0.175E-04    6.67     171.9  T

   *** convergence criteria satisfied after 11 iterations ***

         #    Occupation            Energy/Eh            Energy/eV
      -------------------------------------------------------------
         1        2.0000           -1.0558561             -28.7313
       ...           ...                  ...                  ...
        10        2.0000           -0.4828391             -13.1387
        11        2.0000           -0.4712468             -12.8233
        12        2.0000           -0.4524541             -12.3119
        13        2.0000           -0.4243591             -11.5474
        14        2.0000           -0.4152836             -11.3004
        15        2.0000           -0.4137026             -11.2574
        16        2.0000           -0.4037022             -10.9853 (HOMO)
        17                         -0.1586038              -4.3158 (LUMO)
        18                         -0.1551721              -4.2224
        19                          0.0136951               0.3727
        20                          0.0170304               0.4634
        21                          0.0214236               0.5830
       ...                                ...                  ...
        36                          0.2698429               7.3428
      -------------------------------------------------------------
                  HL-Gap            0.2450984 Eh            6.6695 eV
             Fermi-level           -0.2811530 Eh           -7.6506 eV

 SCC (total)                   0 d,  0 h,  0 min,  0.010 sec
 SCC setup                      ...        0 min,  0.001 sec (  6.624%)
 Dispersion                     ...        0 min,  0.000 sec (  0.442%)
 classical contributions        ...        0 min,  0.000 sec (  0.163%)
 integral evaluation            ...        0 min,  0.002 sec ( 21.792%)
 iterations                     ...        0 min,  0.004 sec ( 41.734%)
 molecular gradient             ...        0 min,  0.003 sec ( 27.713%)
 printout                       ...        0 min,  0.000 sec (  1.399%)

         :::::::::::::::::::::::::::::::::::::::::::::::::::::
         ::                     SUMMARY                     ::
         :::::::::::::::::::::::::::::::::::::::::::::::::::::
         :: total energy             -18.585534154962 Eh    ::
         :: total w/o Gsasa/hb       -18.586027023011 Eh    ::
         :: gradient norm              0.000039855275 Eh/a0 ::
         :: HOMO-LUMO gap              6.669466935049 eV    ::
         ::.................................................::
         :: SCC energy               -18.722022272193 Eh    ::
         :: -> isotropic ES            0.023617280663 Eh    ::
         :: -> anisotropic ES         -0.003973576009 Eh    ::
         :: -> anisotropic XC          0.007395512190 Eh    ::
         :: -> dispersion             -0.006983543582 Eh    ::
         :: -> Gsolv                  -0.009866933933 Eh    ::
         ::    -> Gelec               -0.010359801982 Eh    ::
         ::    -> Gsasa               -0.000625347030 Eh    ::
         ::    -> Ghb                 -0.001776334081 Eh    ::
         ::    -> Gshift               0.002894549160 Eh    ::
         :: repulsion energy           0.136488117231 Eh    ::
         :: add. restraining           0.000000000000 Eh    ::
         :: total charge               0.000000000000 e     ::
         :::::::::::::::::::::::::::::::::::::::::::::::::::::

           -------------------------------------------------
          |                Property Printout                |
           -------------------------------------------------

    * Orbital Energies and Occupations

         #    Occupation            Energy/Eh            Energy/eV
      -------------------------------------------------------------
         1        2.0000           -1.0558561             -28.7313
       ...           ...                  ...                  ...
         4        2.0000           -0.6136876             -16.6993
         5        2.0000           -0.5775893             -15.7170
         6        2.0000           -0.5336732             -14.5220
         7        2.0000           -0.5300227             -14.4227
         8        2.0000           -0.5157627             -14.0346
         9        2.0000           -0.4952923             -13.4776
        10        2.0000           -0.4828391             -13.1387
        11        2.0000           -0.4712468             -12.8233
        12        2.0000           -0.4524541             -12.3119
        13        2.0000           -0.4243591             -11.5474
        14        2.0000           -0.4152836             -11.3004
        15        2.0000           -0.4137026             -11.2574
        16        2.0000           -0.4037022             -10.9853 (HOMO)
        17                         -0.1586038              -4.3158 (LUMO)
        18                         -0.1551721              -4.2224
        19                          0.0136951               0.3727
        20                          0.0170304               0.4634
        21                          0.0214236               0.5830
        22                          0.0220229               0.5993
        23                          0.0262986               0.7156
        24                          0.0263079               0.7159
        25                          0.0265445               0.7223
        26                          0.0268171               0.7297
        27                          0.0668100               1.8180
       ...                                ...                  ...
        36                          0.2698429               7.3428
      -------------------------------------------------------------
                  HL-Gap            0.2450984 Eh            6.6695 eV
             Fermi-level           -0.2811530 Eh           -7.6506 eV

     #   Z          covCN         q      C6AA      α(0)
     1   6 C        3.835    -0.080    21.999     6.673
     2   6 C        3.712     0.019    20.377     6.451
     3  17 Cl       0.911    -0.267   107.632    15.872
     4   6 C        3.712     0.019    20.377     6.451
     5  17 Cl       0.911    -0.267   107.632    15.872
     6   1 H        0.924     0.086     1.916     2.165
     7   1 H        0.924     0.102     1.766     2.078
     8   1 H        0.925     0.094     1.840     2.121
     9   1 H        0.925     0.099     1.792     2.093
    10   1 H        0.925     0.094     1.840     2.121
    11   1 H        0.925     0.099     1.792     2.093

 Mol. C6AA /au·bohr⁶  :       1809.038822
 Mol. C8AA /au·bohr⁸  :      55597.811818
 Mol. α(0) /au        :         63.989089


Wiberg/Mayer (AO) data.
largest (>0.10) Wiberg bond orders for each atom

 ---------------------------------------------------------------------------
     #   Z sym  total        # sym  WBO       # sym  WBO       # sym  WBO
 ---------------------------------------------------------------------------
     1   6 C    3.988 --     4 C    1.022     2 C    1.022     6 H    0.968
                             7 H    0.950
     2   6 C    3.909 --     1 C    1.022     9 H    0.974     8 H    0.974
                             3 Cl   0.919
     3  17 Cl   0.961 --     2 C    0.919
     4   6 C    3.909 --     1 C    1.022    11 H    0.974    10 H    0.974
                             5 Cl   0.919
     5  17 Cl   0.961 --     4 C    0.919
     6   1 H    0.993 --     1 C    0.968
     7   1 H    0.990 --     1 C    0.950
     8   1 H    0.991 --     2 C    0.974
     9   1 H    0.990 --     2 C    0.974
    10   1 H    0.991 --     4 C    0.974
    11   1 H    0.990 --     4 C    0.974
 ---------------------------------------------------------------------------

Topologies differ in total number of bonds
Writing topology from bond orders to xtbtopo.mol

molecular dipole:
                 x           y           z       tot (Debye)
 q only:       -0.077       2.231       0.430
   full:       -0.064       1.711       0.359       4.448
molecular quadrupole (traceless):
                xx          xy          yy          xz          yz          zz
 q only:       -3.309      -0.091       3.173      -0.657       0.531       0.136
  q+dip:       -3.360      -0.034       2.074      -0.883       0.200       1.287
   full:       -3.900      -0.143       3.676      -0.784       0.809       0.224


           -------------------------------------------------
          | TOTAL ENERGY              -18.585534154962 Eh   |
          | GRADIENT NORM               0.000039855275 Eh/α |
          | HOMO-LUMO GAP               6.669466935049 eV   |
           -------------------------------------------------

------------------------------------------------------------------------
 * finished run on 2025/04/11 at 12:27:00.533     
------------------------------------------------------------------------
 total:
 * wall-time:     0 d,  0 h,  0 min,  0.044 sec
 *  cpu-time:     0 d,  0 h,  0 min,  0.018 sec
 * ratio c/w:     0.404 speedup
 SCF:
 * wall-time:     0 d,  0 h,  0 min,  0.010 sec
 *  cpu-time:     0 d,  0 h,  0 min,  0.010 sec
 * ratio c/w:     0.990 speedup

