      -----------------------------------------------------------      
     |                   =====================                   |     
     |                           x T B                           |     
     |                   =====================                   |     
     |                         S. Grimme                         |     
     |          Mulliken Center for Theoretical Chemistry        |     
     |                    University of Bonn                     |     
      -----------------------------------------------------------      

   * xtb version 6.7.1 (edcfbbe) compiled by 'albert@albert-system' on 2024-07-22

   xtb is free software: you can redistribute it and/or modify it under
   the terms of the GNU Lesser General Public License as published by
   the Free Software Foundation, either version 3 of the License, or
   (at your option) any later version.
   
   xtb is distributed in the hope that it will be useful,
   but WITHOUT ANY WARRANTY; without even the implied warranty of
   MERCHANTABILITY or FITNESS FOR A PARTICULAR PURPOSE.  See the
   GNU Lesser General Public License for more details.
   
   Cite this work as:
   * C. Bannwarth, E. Caldeweyher, S. Ehlert, A. Hansen, P. Pracht,
     J. Seibert, S. Spicher, S. Grimme, WIREs Comput. Mol. Sci., 2020, 11,
     e01493. DOI: 10.1002/wcms.1493
   
   for GFN2-xTB:
   * C. Bannwarth, S. Ehlert and S. Grimme., J. Chem. Theory Comput., 2019,
     15, 1652-1671. DOI: 10.1021/acs.jctc.8b01176
   for GFN1-xTB:
   * S. Grimme, C. Bannwarth, P. Shushkov, J. Chem. Theory Comput., 2017,
     13, 1989-2009. DOI: 10.1021/acs.jctc.7b00118
   for GFN0-xTB:
   * P. Pracht, E. Caldeweyher, S. Ehlert, S. Grimme, ChemRxiv, 2019, preprint.
     DOI: 10.26434/chemrxiv.8326202.v1
   for GFN-FF:
   * S. Spicher and S. Grimme, Angew. Chem. Int. Ed., 2020, 59, 15665-15673.
     DOI: 10.1002/anie.202004239
   
   for ALPB and GBSA implicit solvation:
   * S. Ehlert, M. Stahn, S. Spicher, S. Grimme, J. Chem. Theory Comput.,
     2021, 17, 4250-4261. DOI: 10.1021/acs.jctc.1c00471
   
   for ddCOSMO and CPCM-X implicit solvation:
   * M. Stahn, S. Ehlert, S. Grimme, J. Phys. Chem. A,
     2023, XX, XXXX-XXXX. DOI: 10.1021/acs.jpca.3c04382
   
   for DFT-D4:
   * E. Caldeweyher, C. Bannwarth and S. Grimme, J. Chem. Phys., 2017,
     147, 034112. DOI: 10.1063/1.4993215
   * E. Caldeweyher, S. Ehlert, A. Hansen, H. Neugebauer, S. Spicher,
     C. Bannwarth and S. Grimme, J. Chem. Phys., 2019, 150, 154122.
     DOI: 10.1063/1.5090222
   * E. Caldeweyher, J.-M. Mewes, S. Ehlert and S. Grimme, Phys. Chem. Chem. Phys.
     2020, 22, 8499-8512. DOI: 10.1039/D0CP00502A
   
   for sTDA-xTB:
   * S. Grimme and C. Bannwarth, J. Chem. Phys., 2016, 145, 054103.
     DOI: 10.1063/1.4959605
   
   in the mass-spec context:
   * V. Asgeirsson, C. Bauer and S. Grimme, Chem. Sci., 2017, 8, 4879.
     DOI: 10.1039/c7sc00601b
   * J. Koopman and S. Grimme, ACS Omega 2019, 4, 12, 15120-15133.
     DOI: 10.1021/acsomega.9b02011
   
   for metadynamics refer to:
   * S. Grimme, J. Chem. Theory Comput., 2019, 155, 2847-2862
     DOI: 10.1021/acs.jctc.9b00143
   
   for SPH calculations refer to:
   * S. Spicher and S. Grimme, J. Chem. Theory Comput., 2021, 17, 1701-1714
     DOI: 10.1021/acs.jctc.0c01306
   
   for ONIOM refer to:
   * C. Plett, A. Katbashev, S. Ehlert, S. Grimme, M. Bursch,
     Phys. Chem. Chem. Phys., 2023, 25, 17860-17868. DOI: 10.1039/D3CP02178E
   
   for DIPRO refer to:
   * J. Kohn, N. Gildemeister, S. Grimme, D. Fazzi, A. Hansen,
     J. Chem. Phys., 2023, just accepted.
   
   for PTB refer to:
   * S. Grimme, M. Mueller, A. Hansen, J. Chem. Phys., 2023, 158, 124111.
     DOI: 10.1063/5.0137838
   
   with help from (in alphabetical order)
   P. Atkinson, C. Bannwarth, F. Bohle, G. Brandenburg, E. Caldeweyher
   M. Checinski, S. Dohm, S. Ehlert, S. Ehrlich, I. Gerasimov, C. Hölzer
   A. Katbashev, J. Kohn, J. Koopman, C. Lavigne, S. Lehtola, F. März, M. Müller,
   F. Musil, H. Neugebauer, J. Pisarek, C. Plett, P. Pracht, F. Pultar,
   J. Seibert, P. Shushkov, S. Spicher, M. Stahn, M. Steiner, T. Strunk,
   J. Stückrath, T. Rose, and J. Unsleber
   
 * started run on 2025/04/11 at 12:29:39.471     
   ID    Z sym.   atoms
    1    6 C      1-4
    2    7 N      5
    3    1 H      6-16

           -------------------------------------------------
          |                Calculation Setup                |
           -------------------------------------------------

          program call               : /srv/scratch/z5358697/.xtb/bin/xtb solv.coord --gfn2 --sp --chrg 0 --norestart --parallel 1 --alpb water reference -I xtb_sp-xcontrol-inp
          hostname                   : k077
          coordinate file            : solv.coord
          omp threads                :                     1


           -------------------------------------------------
          |                 G F N 2 - x T B                 |
           -------------------------------------------------

        Reference                      10.1021/acs.jctc.8b01176
      * Hamiltonian:
        H0-scaling (s, p, d)           1.850000    2.230000    2.230000
        zeta-weighting                 0.500000
      * Dispersion:
        s8                             2.700000
        a1                             0.520000
        a2                             5.000000
        s9                             5.000000
      * Repulsion:
        kExp                           1.500000    1.000000
        rExp                           1.000000
      * Coulomb:
        alpha                          2.000000
        third order                    shell-resolved
        anisotropic                    true
        a3                             3.000000
        a5                             4.000000
        cn-shift                       1.200000
        cn-exp                         4.000000
        max-rad                        5.000000

      * Solvation model:               ALPB
        Solvent                        water
        Parameter file                 internal GFN2-xTB/ALPB
        Dielectric constant                8.0200E+01
        Reference state                gsolv=reference [X=1]
        Free energy shift                  2.8945E-03 Eh       1.8164E+00 kcal/mol
        Temperature                        2.9815E+02 K
        Density                            1.0000E+00 kg/L
        Solvent mass                       1.8000E+01 g/mol
        Interaction kernel             P16
        Born radius scaling (c1)           1.4744E+00
        Born radii integrator          GBOBC
        Born offset                        0.0000E+00 a0       0.0000E+00 AA
        H-bond correction              true
        Ion screening                  false
        Surface tension                    1.0000E-05 Eh       1.5569E+01 dyn/cm
        Grid points                               974 per atom

          ...................................................
          :                      SETUP                      :
          :.................................................:
          :  # basis functions                  31          :
          :  # atomic orbitals                  31          :
          :  # shells                           21          :
          :  # electrons                        32          :
          :  max. iterations                   250          :
          :  Hamiltonian                  GFN2-xTB          :
          :  restarted?                      false          :
          :  GBSA solvation                   true          :
          :  PC potential                    false          :
          :  electronic temp.          300.0000000     K    :
          :  accuracy                    1.0000000          :
          :  -> integral cutoff          0.2500000E+02      :
          :  -> integral neglect         0.1000000E-07      :
          :  -> SCF convergence          0.1000000E-05 Eh   :
          :  -> wf. convergence          0.1000000E-03 e    :
          :  Broyden damping             0.4000000          :
          :  net charge                          0          :
          :  unpaired electrons                  0          :
          ...................................................

 iter      E             dE          RMSdq      gap      omega  full diag
   1    -17.2977234 -0.172977E+02  0.256E+00   11.21       0.0  T
   2    -17.3158447 -0.181214E-01  0.142E+00   11.29       1.0  T
   3    -17.3167739 -0.929159E-03  0.528E-01   11.31       1.0  T
   4    -17.3168676 -0.937160E-04  0.921E-02   11.27       1.0  T
   5    -17.3168774 -0.975374E-05  0.414E-02   11.26       1.0  T
   6    -17.3168783 -0.976981E-06  0.141E-02   11.26       1.8  T
   7    -17.3168785 -0.164385E-06  0.251E-03   11.26       9.9  T
   8    -17.3168785 -0.621372E-08  0.141E-03   11.26      17.7  T
   9    -17.3168785 -0.224124E-08  0.234E-04   11.26     107.0  T
  10    -17.3168785 -0.592983E-10  0.110E-04   11.26     227.2  T

   *** convergence criteria satisfied after 10 iterations ***

         #    Occupation            Energy/Eh            Energy/eV
      -------------------------------------------------------------
         1        2.0000           -0.6272159             -17.0674
       ...           ...                  ...                  ...
        10        2.0000           -0.4720461             -12.8450
        11        2.0000           -0.4568562             -12.4317
        12        2.0000           -0.4537048             -12.3459
        13        2.0000           -0.4308052             -11.7228
        14        2.0000           -0.4257016             -11.5839
        15        2.0000           -0.4163251             -11.3288
        16        2.0000           -0.3640764              -9.9070 (HOMO)
        17                          0.0496616               1.3514 (LUMO)
        18                          0.0859393               2.3385
        19                          0.1112384               3.0269
        20                          0.1238383               3.3698
        21                          0.1382359               3.7616
       ...                                ...                  ...
        31                          0.3179291               8.6513
      -------------------------------------------------------------
                  HL-Gap            0.4137379 Eh           11.2584 eV
             Fermi-level           -0.1572074 Eh           -4.2778 eV

 SCC (total)                   0 d,  0 h,  0 min,  0.021 sec
 SCC setup                      ...        0 min,  0.001 sec (  4.403%)
 Dispersion                     ...        0 min,  0.000 sec (  0.340%)
 classical contributions        ...        0 min,  0.000 sec (  0.086%)
 integral evaluation            ...        0 min,  0.001 sec (  4.253%)
 iterations                     ...        0 min,  0.016 sec ( 78.105%)
 molecular gradient             ...        0 min,  0.003 sec ( 12.074%)
 printout                       ...        0 min,  0.000 sec (  0.667%)

         :::::::::::::::::::::::::::::::::::::::::::::::::::::
         ::                     SUMMARY                     ::
         :::::::::::::::::::::::::::::::::::::::::::::::::::::
         :: total energy             -17.079693619030 Eh    ::
         :: total w/o Gsasa/hb       -17.078928549729 Eh    ::
         :: gradient norm              0.000043120953 Eh/a0 ::
         :: HOMO-LUMO gap             11.258382414956 eV    ::
         ::.................................................::
         :: SCC energy               -17.316860442193 Eh    ::
         :: -> isotropic ES            0.016133388239 Eh    ::
         :: -> anisotropic ES          0.005866364075 Eh    ::
         :: -> anisotropic XC          0.013335232942 Eh    ::
         :: -> dispersion             -0.008238685963 Eh    ::
         :: -> Gsolv                  -0.001996403035 Eh    ::
         ::    -> Gelec               -0.001231333735 Eh    ::
         ::    -> Gsasa               -0.001690773017 Eh    ::
         ::    -> Ghb                 -0.001968845444 Eh    ::
         ::    -> Gshift               0.002894549160 Eh    ::
         :: repulsion energy           0.237166823163 Eh    ::
         :: add. restraining           0.000000000000 Eh    ::
         :: total charge               0.000000000000 e     ::
         :::::::::::::::::::::::::::::::::::::::::::::::::::::

           -------------------------------------------------
          |                Property Printout                |
           -------------------------------------------------

    * Orbital Energies and Occupations

         #    Occupation            Energy/Eh            Energy/eV
      -------------------------------------------------------------
         1        2.0000           -0.6272159             -17.0674
       ...           ...                  ...                  ...
         4        2.0000           -0.5649484             -15.3730
         5        2.0000           -0.5490313             -14.9399
         6        2.0000           -0.5247734             -14.2798
         7        2.0000           -0.5161150             -14.0442
         8        2.0000           -0.4931899             -13.4204
         9        2.0000           -0.4881336             -13.2828
        10        2.0000           -0.4720461             -12.8450
        11        2.0000           -0.4568562             -12.4317
        12        2.0000           -0.4537048             -12.3459
        13        2.0000           -0.4308052             -11.7228
        14        2.0000           -0.4257016             -11.5839
        15        2.0000           -0.4163251             -11.3288
        16        2.0000           -0.3640764              -9.9070 (HOMO)
        17                          0.0496616               1.3514 (LUMO)
        18                          0.0859393               2.3385
        19                          0.1112384               3.0269
        20                          0.1238383               3.3698
        21                          0.1382359               3.7616
        22                          0.1421825               3.8690
        23                          0.1579612               4.2983
        24                          0.1767220               4.8089
        25                          0.1980802               5.3900
        26                          0.2191360               5.9630
        27                          0.2258038               6.1444
       ...                                ...                  ...
        31                          0.3179291               8.6513
      -------------------------------------------------------------
                  HL-Gap            0.4137379 Eh           11.2584 eV
             Fermi-level           -0.1572074 Eh           -4.2778 eV

     #   Z          covCN         q      C6AA      α(0)
     1   6 C        3.751    -0.112    22.711     6.796
     2   6 C        3.799    -0.055    21.572     6.613
     3   6 C        3.801    -0.073    21.893     6.662
     4   6 C        3.729     0.024    20.262     6.426
     5   7 N        2.629    -0.387    30.003     8.135
     6   1 H        0.925     0.046     2.371     2.408
     7   1 H        0.925     0.037     2.493     2.469
     8   1 H        0.925     0.034     2.528     2.486
     9   1 H        0.924     0.029     2.603     2.523
    10   1 H        0.924     0.030     2.584     2.514
    11   1 H        0.924     0.033     2.539     2.492
    12   1 H        0.925     0.052     2.292     2.368
    13   1 H        0.924     0.028     2.610     2.526
    14   1 H        0.922    -0.003     3.113     2.759
    15   1 H        0.860     0.160     1.334     1.809
    16   1 H        0.860     0.156     1.361     1.827

 Mol. C6AA /au·bohr⁶  :       1659.825437
 Mol. C8AA /au·bohr⁸  :      33722.553245
 Mol. α(0) /au        :         60.813262


Wiberg/Mayer (AO) data.
largest (>0.10) Wiberg bond orders for each atom

 ---------------------------------------------------------------------------
     #   Z sym  total        # sym  WBO       # sym  WBO       # sym  WBO
 ---------------------------------------------------------------------------
     1   6 C    3.996 --     2 C    1.021     7 H    0.988     8 H    0.987
                             6 H    0.984
     2   6 C    3.998 --     1 C    1.021     3 C    1.005    10 H    0.981
                             9 H    0.977
     3   6 C    3.996 --     4 C    1.005     2 C    1.005    11 H    0.978
                            12 H    0.976
     4   6 C    3.988 --     5 N    1.024     3 C    1.005    13 H    0.977
                            14 H    0.969
     5   7 N    2.987 --     4 C    1.024    15 H    0.961    16 H    0.959
     6   1 H    0.998 --     1 C    0.984
     7   1 H    0.999 --     1 C    0.988
     8   1 H    0.999 --     1 C    0.987
     9   1 H    0.999 --     2 C    0.977
    10   1 H    0.999 --     2 C    0.981
    11   1 H    0.999 --     3 C    0.978
    12   1 H    0.997 --     3 C    0.976
    13   1 H    0.999 --     4 C    0.977
    14   1 H    1.000 --     4 C    0.969
    15   1 H    0.974 --     5 N    0.961
    16   1 H    0.976 --     5 N    0.959
 ---------------------------------------------------------------------------

Topologies differ in total number of bonds
Writing topology from bond orders to xtbtopo.mol

molecular dipole:
                 x           y           z       tot (Debye)
 q only:        0.017       0.081       0.133
   full:       -0.067       0.359       0.387       1.354
molecular quadrupole (traceless):
                xx          xy          yy          xz          yz          zz
 q only:        0.526      -0.480      -1.207      -0.876      -0.815       0.681
  q+dip:        1.087      -1.311      -2.825      -2.082      -0.339       1.737
   full:        1.295      -1.389      -2.824      -2.006      -0.856       1.528


           -------------------------------------------------
          | TOTAL ENERGY              -17.079693619030 Eh   |
          | GRADIENT NORM               0.000043120953 Eh/α |
          | HOMO-LUMO GAP              11.258382414956 eV   |
           -------------------------------------------------

------------------------------------------------------------------------
 * finished run on 2025/04/11 at 12:29:39.527     
------------------------------------------------------------------------
 total:
 * wall-time:     0 d,  0 h,  0 min,  0.055 sec
 *  cpu-time:     0 d,  0 h,  0 min,  0.017 sec
 * ratio c/w:     0.303 speedup
 SCF:
 * wall-time:     0 d,  0 h,  0 min,  0.021 sec
 *  cpu-time:     0 d,  0 h,  0 min,  0.009 sec
 * ratio c/w:     0.422 speedup

