      -----------------------------------------------------------      
     |                   =====================                   |     
     |                           x T B                           |     
     |                   =====================                   |     
     |                         S. Grimme                         |     
     |          Mulliken Center for Theoretical Chemistry        |     
     |                    University of Bonn                     |     
      -----------------------------------------------------------      

   * xtb version 6.7.1 (edcfbbe) compiled by 'albert@albert-system' on 2024-07-22

   xtb is free software: you can redistribute it and/or modify it under
   the terms of the GNU Lesser General Public License as published by
   the Free Software Foundation, either version 3 of the License, or
   (at your option) any later version.
   
   xtb is distributed in the hope that it will be useful,
   but WITHOUT ANY WARRANTY; without even the implied warranty of
   MERCHANTABILITY or FITNESS FOR A PARTICULAR PURPOSE.  See the
   GNU Lesser General Public License for more details.
   
   Cite this work as:
   * C. Bannwarth, E. Caldeweyher, S. Ehlert, A. Hansen, P. Pracht,
     J. Seibert, S. Spicher, S. Grimme, WIREs Comput. Mol. Sci., 2020, 11,
     e01493. DOI: 10.1002/wcms.1493
   
   for GFN2-xTB:
   * C. Bannwarth, S. Ehlert and S. Grimme., J. Chem. Theory Comput., 2019,
     15, 1652-1671. DOI: 10.1021/acs.jctc.8b01176
   for GFN1-xTB:
   * S. Grimme, C. Bannwarth, P. Shushkov, J. Chem. Theory Comput., 2017,
     13, 1989-2009. DOI: 10.1021/acs.jctc.7b00118
   for GFN0-xTB:
   * P. Pracht, E. Caldeweyher, S. Ehlert, S. Grimme, ChemRxiv, 2019, preprint.
     DOI: 10.26434/chemrxiv.8326202.v1
   for GFN-FF:
   * S. Spicher and S. Grimme, Angew. Chem. Int. Ed., 2020, 59, 15665-15673.
     DOI: 10.1002/anie.202004239
   
   for ALPB and GBSA implicit solvation:
   * S. Ehlert, M. Stahn, S. Spicher, S. Grimme, J. Chem. Theory Comput.,
     2021, 17, 4250-4261. DOI: 10.1021/acs.jctc.1c00471
   
   for ddCOSMO and CPCM-X implicit solvation:
   * M. Stahn, S. Ehlert, S. Grimme, J. Phys. Chem. A,
     2023, XX, XXXX-XXXX. DOI: 10.1021/acs.jpca.3c04382
   
   for DFT-D4:
   * E. Caldeweyher, C. Bannwarth and S. Grimme, J. Chem. Phys., 2017,
     147, 034112. DOI: 10.1063/1.4993215
   * E. Caldeweyher, S. Ehlert, A. Hansen, H. Neugebauer, S. Spicher,
     C. Bannwarth and S. Grimme, J. Chem. Phys., 2019, 150, 154122.
     DOI: 10.1063/1.5090222
   * E. Caldeweyher, J.-M. Mewes, S. Ehlert and S. Grimme, Phys. Chem. Chem. Phys.
     2020, 22, 8499-8512. DOI: 10.1039/D0CP00502A
   
   for sTDA-xTB:
   * S. Grimme and C. Bannwarth, J. Chem. Phys., 2016, 145, 054103.
     DOI: 10.1063/1.4959605
   
   in the mass-spec context:
   * V. Asgeirsson, C. Bauer and S. Grimme, Chem. Sci., 2017, 8, 4879.
     DOI: 10.1039/c7sc00601b
   * J. Koopman and S. Grimme, ACS Omega 2019, 4, 12, 15120-15133.
     DOI: 10.1021/acsomega.9b02011
   
   for metadynamics refer to:
   * S. Grimme, J. Chem. Theory Comput., 2019, 155, 2847-2862
     DOI: 10.1021/acs.jctc.9b00143
   
   for SPH calculations refer to:
   * S. Spicher and S. Grimme, J. Chem. Theory Comput., 2021, 17, 1701-1714
     DOI: 10.1021/acs.jctc.0c01306
   
   for ONIOM refer to:
   * C. Plett, A. Katbashev, S. Ehlert, S. Grimme, M. Bursch,
     Phys. Chem. Chem. Phys., 2023, 25, 17860-17868. DOI: 10.1039/D3CP02178E
   
   for DIPRO refer to:
   * J. Kohn, N. Gildemeister, S. Grimme, D. Fazzi, A. Hansen,
     J. Chem. Phys., 2023, just accepted.
   
   for PTB refer to:
   * S. Grimme, M. Mueller, A. Hansen, J. Chem. Phys., 2023, 158, 124111.
     DOI: 10.1063/5.0137838
   
   with help from (in alphabetical order)
   P. Atkinson, C. Bannwarth, F. Bohle, G. Brandenburg, E. Caldeweyher
   M. Checinski, S. Dohm, S. Ehlert, S. Ehrlich, I. Gerasimov, C. Hölzer
   A. Katbashev, J. Kohn, J. Koopman, C. Lavigne, S. Lehtola, F. März, M. Müller,
   F. Musil, H. Neugebauer, J. Pisarek, C. Plett, P. Pracht, F. Pultar,
   J. Seibert, P. Shushkov, S. Spicher, M. Stahn, M. Steiner, T. Strunk,
   J. Stückrath, T. Rose, and J. Unsleber
   
 * started run on 2025/04/11 at 15:53:55.361     
   ID    Z sym.   atoms
    1    6 C      1-4, 7, 8
    2    8 O      5, 6
    3    1 H      9-20

           -------------------------------------------------
          |                Calculation Setup                |
           -------------------------------------------------

          program call               : /srv/scratch/z5358697/.xtb/bin/xtb gas.coord --gfn2 --sp --chrg 0 --norestart --parallel 1
          hostname                   : k061
          coordinate file            : gas.coord
          omp threads                :                     1


           -------------------------------------------------
          |                 G F N 2 - x T B                 |
           -------------------------------------------------

        Reference                      10.1021/acs.jctc.8b01176
      * Hamiltonian:
        H0-scaling (s, p, d)           1.850000    2.230000    2.230000
        zeta-weighting                 0.500000
      * Dispersion:
        s8                             2.700000
        a1                             0.520000
        a2                             5.000000
        s9                             5.000000
      * Repulsion:
        kExp                           1.500000    1.000000
        rExp                           1.000000
      * Coulomb:
        alpha                          2.000000
        third order                    shell-resolved
        anisotropic                    true
        a3                             3.000000
        a5                             4.000000
        cn-shift                       1.200000
        cn-exp                         4.000000
        max-rad                        5.000000


          ...................................................
          :                      SETUP                      :
          :.................................................:
          :  # basis functions                  44          :
          :  # atomic orbitals                  44          :
          :  # shells                           28          :
          :  # electrons                        48          :
          :  max. iterations                   250          :
          :  Hamiltonian                  GFN2-xTB          :
          :  restarted?                      false          :
          :  GBSA solvation                  false          :
          :  PC potential                    false          :
          :  electronic temp.          300.0000000     K    :
          :  accuracy                    1.0000000          :
          :  -> integral cutoff          0.2500000E+02      :
          :  -> integral neglect         0.1000000E-07      :
          :  -> SCF convergence          0.1000000E-05 Eh   :
          :  -> wf. convergence          0.1000000E-03 e    :
          :  Broyden damping             0.4000000          :
          :  net charge                          0          :
          :  unpaired electrons                  0          :
          ...................................................

 iter      E             dE          RMSdq      gap      omega  full diag
   1    -27.3542688 -0.273543E+02  0.401E+00    6.01       0.0  T
   2    -27.4250206 -0.707518E-01  0.210E+00    4.76       1.0  T
   3    -27.4280071 -0.298649E-02  0.115E+00    5.27       1.0  T
   4    -27.4304459 -0.243881E-02  0.180E-01    4.96       1.0  T
   5    -27.4307319 -0.286026E-03  0.757E-02    5.03       1.0  T
   6    -27.4307372 -0.521597E-05  0.226E-02    5.02       1.0  T
   7    -27.4307384 -0.123118E-05  0.753E-03    5.02       3.0  T
   8    -27.4307385 -0.132180E-06  0.212E-03    5.02      10.5  T
   9    -27.4307385 -0.780803E-08  0.887E-04    5.02      25.2  T
  10    -27.4307385 -0.206420E-08  0.290E-04    5.02      77.0  T

   *** convergence criteria satisfied after 10 iterations ***

         #    Occupation            Energy/Eh            Energy/eV
      -------------------------------------------------------------
         1        2.0000           -0.7412880             -20.1715
       ...           ...                  ...                  ...
        18        2.0000           -0.4704438             -12.8014
        19        2.0000           -0.4662715             -12.6879
        20        2.0000           -0.4636899             -12.6176
        21        2.0000           -0.4466699             -12.1545
        22        2.0000           -0.4398301             -11.9684
        23        2.0000           -0.4333774             -11.7928
        24        2.0000           -0.4076523             -11.0928 (HOMO)
        25                         -0.2230357              -6.0691 (LUMO)
        26                         -0.0042966              -0.1169
        27                          0.0773903               2.1059
        28                          0.1021900               2.7807
        29                          0.1167529               3.1770
       ...                                ...                  ...
        44                          0.6123776              16.6636
      -------------------------------------------------------------
                  HL-Gap            0.1846166 Eh            5.0237 eV
             Fermi-level           -0.3153440 Eh           -8.5809 eV

 SCC (total)                   0 d,  0 h,  0 min,  0.019 sec
 SCC setup                      ...        0 min,  0.000 sec (  1.017%)
 Dispersion                     ...        0 min,  0.000 sec (  0.667%)
 classical contributions        ...        0 min,  0.000 sec (  0.136%)
 integral evaluation            ...        0 min,  0.002 sec (  9.457%)
 iterations                     ...        0 min,  0.012 sec ( 61.233%)
 molecular gradient             ...        0 min,  0.005 sec ( 26.655%)
 printout                       ...        0 min,  0.000 sec (  0.723%)

         :::::::::::::::::::::::::::::::::::::::::::::::::::::
         ::                     SUMMARY                     ::
         :::::::::::::::::::::::::::::::::::::::::::::::::::::
         :: total energy             -27.114335722614 Eh    ::
         :: gradient norm              0.029187173342 Eh/a0 ::
         :: HOMO-LUMO gap              5.023673107473 eV    ::
         ::.................................................::
         :: SCC energy               -27.430717097409 Eh    ::
         :: -> isotropic ES            0.049143236765 Eh    ::
         :: -> anisotropic ES          0.002579407396 Eh    ::
         :: -> anisotropic XC          0.007657764112 Eh    ::
         :: -> dispersion             -0.011248378231 Eh    ::
         :: repulsion energy           0.316381374795 Eh    ::
         :: add. restraining           0.000000000000 Eh    ::
         :: total charge               0.000000000000 e     ::
         :::::::::::::::::::::::::::::::::::::::::::::::::::::

           -------------------------------------------------
          |                Property Printout                |
           -------------------------------------------------

    * Orbital Energies and Occupations

         #    Occupation            Energy/Eh            Energy/eV
      -------------------------------------------------------------
         1        2.0000           -0.7412880             -20.1715
       ...           ...                  ...                  ...
        12        2.0000           -0.5298305             -14.4174
        13        2.0000           -0.5113906             -13.9156
        14        2.0000           -0.4993447             -13.5879
        15        2.0000           -0.4926178             -13.4048
        16        2.0000           -0.4842187             -13.1763
        17        2.0000           -0.4770972             -12.9825
        18        2.0000           -0.4704438             -12.8014
        19        2.0000           -0.4662715             -12.6879
        20        2.0000           -0.4636899             -12.6176
        21        2.0000           -0.4466699             -12.1545
        22        2.0000           -0.4398301             -11.9684
        23        2.0000           -0.4333774             -11.7928
        24        2.0000           -0.4076523             -11.0928 (HOMO)
        25                         -0.2230357              -6.0691 (LUMO)
        26                         -0.0042966              -0.1169
        27                          0.0773903               2.1059
        28                          0.1021900               2.7807
        29                          0.1167529               3.1770
        30                          0.1311308               3.5682
        31                          0.1425858               3.8800
        32                          0.1465358               3.9874
        33                          0.1549620               4.2167
        34                          0.1645069               4.4765
        35                          0.1708966               4.6503
       ...                                ...                  ...
        44                          0.6123776              16.6636
      -------------------------------------------------------------
                  HL-Gap            0.1846166 Eh            5.0237 eV
             Fermi-level           -0.3153440 Eh           -8.5809 eV

     #   Z          covCN         q      C6AA      α(0)
     1   6 C        3.753    -0.106    22.588     6.777
     2   6 C        3.801    -0.054    21.545     6.609
     3   6 C        3.805    -0.091    22.229     6.712
     4   6 C        2.713     0.354    20.992     7.500
     5   8 O        0.856    -0.435    22.393     6.344
     6   8 O        1.703    -0.259    18.285     5.773
     7   6 C        3.695     0.081    19.397     6.300
     8   6 C        3.751    -0.116    22.781     6.807
     9   1 H        0.925     0.039     2.456     2.451
    10   1 H        0.925     0.038     2.476     2.461
    11   1 H        0.925     0.038     2.478     2.462
    12   1 H        0.924     0.044     2.394     2.420
    13   1 H        0.924     0.043     2.411     2.428
    14   1 H        0.924     0.071     2.074     2.252
    15   1 H        0.924     0.071     2.070     2.250
    16   1 H        0.924     0.059     2.208     2.324
    17   1 H        0.924     0.050     2.314     2.379
    18   1 H        0.925     0.058     2.224     2.332
    19   1 H        0.925     0.054     2.273     2.357
    20   1 H        0.925     0.060     2.202     2.321

 Mol. C6AA /au·bohr⁶  :       3016.332601
 Mol. C8AA /au·bohr⁸  :      64000.252552
 Mol. α(0) /au        :         81.259037


Wiberg/Mayer (AO) data.
largest (>0.10) Wiberg bond orders for each atom

 ---------------------------------------------------------------------------
     #   Z sym  total        # sym  WBO       # sym  WBO       # sym  WBO
 ---------------------------------------------------------------------------
     1   6 C    3.996 --     2 C    1.019    11 H    0.988    10 H    0.988
                             9 H    0.987
     2   6 C    3.995 --     1 C    1.019     3 C    1.009    13 H    0.978
                            12 H    0.977
     3   6 C    3.993 --     2 C    1.009     4 C    0.976    14 H    0.953
                            15 H    0.950
     4   6 C    3.917 --     5 O    1.723     6 O    1.157     3 C    0.976
     5   8 O    2.006 --     4 C    1.723     6 O    0.174
     6   8 O    2.320 --     4 C    1.157     7 C    0.930     5 O    0.174
     7   6 C    3.926 --     8 C    1.020    17 H    0.969    16 H    0.969
                             6 O    0.930
     8   6 C    3.992 --     7 C    1.020    18 H    0.985    20 H    0.985
                            19 H    0.983
     9   1 H    0.998 --     1 C    0.987
    10   1 H    0.999 --     1 C    0.988
    11   1 H    0.999 --     1 C    0.988
    12   1 H    0.998 --     2 C    0.977
    13   1 H    0.998 --     2 C    0.978
    14   1 H    0.995 --     3 C    0.953
    15   1 H    0.995 --     3 C    0.950
    16   1 H    0.996 --     7 C    0.969
    17   1 H    0.997 --     7 C    0.969
    18   1 H    0.997 --     8 C    0.985
    19   1 H    0.996 --     8 C    0.983
    20   1 H    0.996 --     8 C    0.985
 ---------------------------------------------------------------------------

Topologies differ in total number of bonds
Writing topology from bond orders to xtbtopo.mol

molecular dipole:
                 x           y           z       tot (Debye)
 q only:        0.042      -1.049       0.271
   full:        0.007      -1.043       0.285       2.748
molecular quadrupole (traceless):
                xx          xy          yy          xz          yz          zz
 q only:        8.732      -2.728      -7.257       0.830       1.947      -1.474
  q+dip:        7.293      -2.792      -8.813       0.973       3.179       1.520
   full:        7.816      -2.805      -8.941       0.934       3.232       1.125


           -------------------------------------------------
          | TOTAL ENERGY              -27.114335722614 Eh   |
          | GRADIENT NORM               0.029187173342 Eh/α |
          | HOMO-LUMO GAP               5.023673107473 eV   |
           -------------------------------------------------

------------------------------------------------------------------------
 * finished run on 2025/04/11 at 15:53:55.416     
------------------------------------------------------------------------
 total:
 * wall-time:     0 d,  0 h,  0 min,  0.054 sec
 *  cpu-time:     0 d,  0 h,  0 min,  0.023 sec
 * ratio c/w:     0.431 speedup
 SCF:
 * wall-time:     0 d,  0 h,  0 min,  0.019 sec
 *  cpu-time:     0 d,  0 h,  0 min,  0.014 sec
 * ratio c/w:     0.741 speedup

