      -----------------------------------------------------------      
     |                   =====================                   |     
     |                           x T B                           |     
     |                   =====================                   |     
     |                         S. Grimme                         |     
     |          Mulliken Center for Theoretical Chemistry        |     
     |                    University of Bonn                     |     
      -----------------------------------------------------------      

   * xtb version 6.7.1 (edcfbbe) compiled by 'albert@albert-system' on 2024-07-22

   xtb is free software: you can redistribute it and/or modify it under
   the terms of the GNU Lesser General Public License as published by
   the Free Software Foundation, either version 3 of the License, or
   (at your option) any later version.
   
   xtb is distributed in the hope that it will be useful,
   but WITHOUT ANY WARRANTY; without even the implied warranty of
   MERCHANTABILITY or FITNESS FOR A PARTICULAR PURPOSE.  See the
   GNU Lesser General Public License for more details.
   
   Cite this work as:
   * C. Bannwarth, E. Caldeweyher, S. Ehlert, A. Hansen, P. Pracht,
     J. Seibert, S. Spicher, S. Grimme, WIREs Comput. Mol. Sci., 2020, 11,
     e01493. DOI: 10.1002/wcms.1493
   
   for GFN2-xTB:
   * C. Bannwarth, S. Ehlert and S. Grimme., J. Chem. Theory Comput., 2019,
     15, 1652-1671. DOI: 10.1021/acs.jctc.8b01176
   for GFN1-xTB:
   * S. Grimme, C. Bannwarth, P. Shushkov, J. Chem. Theory Comput., 2017,
     13, 1989-2009. DOI: 10.1021/acs.jctc.7b00118
   for GFN0-xTB:
   * P. Pracht, E. Caldeweyher, S. Ehlert, S. Grimme, ChemRxiv, 2019, preprint.
     DOI: 10.26434/chemrxiv.8326202.v1
   for GFN-FF:
   * S. Spicher and S. Grimme, Angew. Chem. Int. Ed., 2020, 59, 15665-15673.
     DOI: 10.1002/anie.202004239
   
   for ALPB and GBSA implicit solvation:
   * S. Ehlert, M. Stahn, S. Spicher, S. Grimme, J. Chem. Theory Comput.,
     2021, 17, 4250-4261. DOI: 10.1021/acs.jctc.1c00471
   
   for ddCOSMO and CPCM-X implicit solvation:
   * M. Stahn, S. Ehlert, S. Grimme, J. Phys. Chem. A,
     2023, XX, XXXX-XXXX. DOI: 10.1021/acs.jpca.3c04382
   
   for DFT-D4:
   * E. Caldeweyher, C. Bannwarth and S. Grimme, J. Chem. Phys., 2017,
     147, 034112. DOI: 10.1063/1.4993215
   * E. Caldeweyher, S. Ehlert, A. Hansen, H. Neugebauer, S. Spicher,
     C. Bannwarth and S. Grimme, J. Chem. Phys., 2019, 150, 154122.
     DOI: 10.1063/1.5090222
   * E. Caldeweyher, J.-M. Mewes, S. Ehlert and S. Grimme, Phys. Chem. Chem. Phys.
     2020, 22, 8499-8512. DOI: 10.1039/D0CP00502A
   
   for sTDA-xTB:
   * S. Grimme and C. Bannwarth, J. Chem. Phys., 2016, 145, 054103.
     DOI: 10.1063/1.4959605
   
   in the mass-spec context:
   * V. Asgeirsson, C. Bauer and S. Grimme, Chem. Sci., 2017, 8, 4879.
     DOI: 10.1039/c7sc00601b
   * J. Koopman and S. Grimme, ACS Omega 2019, 4, 12, 15120-15133.
     DOI: 10.1021/acsomega.9b02011
   
   for metadynamics refer to:
   * S. Grimme, J. Chem. Theory Comput., 2019, 155, 2847-2862
     DOI: 10.1021/acs.jctc.9b00143
   
   for SPH calculations refer to:
   * S. Spicher and S. Grimme, J. Chem. Theory Comput., 2021, 17, 1701-1714
     DOI: 10.1021/acs.jctc.0c01306
   
   for ONIOM refer to:
   * C. Plett, A. Katbashev, S. Ehlert, S. Grimme, M. Bursch,
     Phys. Chem. Chem. Phys., 2023, 25, 17860-17868. DOI: 10.1039/D3CP02178E
   
   for DIPRO refer to:
   * J. Kohn, N. Gildemeister, S. Grimme, D. Fazzi, A. Hansen,
     J. Chem. Phys., 2023, just accepted.
   
   for PTB refer to:
   * S. Grimme, M. Mueller, A. Hansen, J. Chem. Phys., 2023, 158, 124111.
     DOI: 10.1063/5.0137838
   
   with help from (in alphabetical order)
   P. Atkinson, C. Bannwarth, F. Bohle, G. Brandenburg, E. Caldeweyher
   M. Checinski, S. Dohm, S. Ehlert, S. Ehrlich, I. Gerasimov, C. Hölzer
   A. Katbashev, J. Kohn, J. Koopman, C. Lavigne, S. Lehtola, F. März, M. Müller,
   F. Musil, H. Neugebauer, J. Pisarek, C. Plett, P. Pracht, F. Pultar,
   J. Seibert, P. Shushkov, S. Spicher, M. Stahn, M. Steiner, T. Strunk,
   J. Stückrath, T. Rose, and J. Unsleber
   
 * started run on 2025/04/11 at 17:19:37.419     
   ID    Z sym.   atoms
    1    6 C      1-4, 7, 8
    2    8 O      5, 6
    3    1 H      9-20

           -------------------------------------------------
          |                Calculation Setup                |
           -------------------------------------------------

          program call               : /srv/scratch/z5358697/.xtb/bin/xtb xtb_opt.coord --opt normal --orca -I xtb_opt-xcontrol-inp
          hostname                   : k061
          coordinate file            : xtb_opt.coord
          omp threads                :                    16

           -------------------------------------------------
          |                   Orca driver                   |
           -------------------------------------------------
orca executable           : /apps/z_install_tree/linux-rocky8-ivybridge/gcc-12.2.0/orca-6.0.0-srtngmq3qlimg2qxbl6avaaiffipurdx/bin/orca
orca input file           : xtb_opt.inp
orca input line           : 
orca parallel             : true
orca number of threads    : 16
                         * ORCA takes the control...
  ------------------------------------------------------------------------

                                 *****************
                                 * O   R   C   A *
                                 *****************

                                            #,                                       
                                            ###                                      
                                            ####                                     
                                            #####                                    
                                            ######                                   
                                           ########,                                 
                                     ,,################,,,,,                         
                               ,,#################################,,                 
                          ,,##########################################,,             
                       ,#########################################, ''#####,          
                    ,#############################################,,   '####,        
                  ,##################################################,,,,####,       
                ,###########''''           ''''###############################       
              ,#####''   ,,,,##########,,,,          '''####'''          '####       
            ,##' ,,,,###########################,,,                        '##       
           ' ,,###''''                  '''############,,,                           
         ,,##''                                '''############,,,,        ,,,,,,###''
      ,#''                                            '''#######################'''  
     '                                                          ''''####''''         
             ,#######,   #######,   ,#######,      ##                                
            ,#'     '#,  ##    ##  ,#'     '#,    #''#        ,####,   ,####,        
            ##       ##  ##   ,#'  ##            #'  '#       #'       #'  '#        
            ##       ##  #######   ##           ,######,      #####,   #    #        
            '#,     ,#'  ##    ##  '#,     ,#' ,#      #,     #,   #   #,  ,#        
             '#######'   ##     ##  '#######'  #'      '#     '####' # '####'        



                #########################################################
                #                        -***-                          #
                #          Department of theory and spectroscopy        #
                #                                                       #
                #                      Frank Neese                      #
                #                                                       #
                #     Directorship, Architecture, Infrastructure        #
                #                    SHARK, DRIVERS                     #
                #        Core code/Algorithms in most modules           #
                #                                                       #
                #        Max Planck Institute fuer Kohlenforschung      #
                #                Kaiser Wilhelm Platz 1                 #
                #                 D-45470 Muelheim/Ruhr                 #
                #                      Germany                          #
                #                                                       #
                #                  All rights reserved                  #
                #                        -***-                          #
                #########################################################


                         Program Version 6.0.0  -   RELEASE  -


 With contributions from (in alphabetic order):
   Daniel Aravena         : Magnetic Suceptibility
   Michael Atanasov       : Ab Initio Ligand Field Theory (pilot matlab implementation)
   Alexander A. Auer      : GIAO ZORA, VPT2 properties, NMR spectrum
   Ute Becker             : All parallelization in ORCA, NUMFREQ, NUMCALC
   Giovanni Bistoni       : ED, misc. LED, open-shell LED, HFLD
   Martin Brehm           : Molecular dynamics
   Dmytro Bykov           : pre 5.0 version of the SCF Hessian
   Marcos Casanova-Páez   : Triplet and SCS-CIS(D). UHF-(DLPNO)-IP/EA/STEOM-CCSD. UHF-CVS-IP/STEOM-CCSD
   Vijay G. Chilkuri      : MRCI spin determinant printing, contributions to CSF-ICE
   Pauline Colinet        : FMM embedding
   Dipayan Datta          : RHF DLPNO-CCSD density
   Achintya Kumar Dutta   : EOM-CC, STEOM-CC
   Nicolas Foglia         : Exact transition moments, OPA infrastructure, MCD improvements
   Dmitry Ganyushin       : Spin-Orbit,Spin-Spin,Magnetic field MRCI
   Miquel Garcia          : C-PCM and meta-GGA Hessian, CCSD/C-PCM, Gaussian charge scheme
   Tiago L. C. Gouveia    : GS-ROHF, GS-ROCIS
   Yang Guo               : DLPNO-NEVPT2, F12-NEVPT2, CIM, IAO-localization
   Andreas Hansen         : Spin unrestricted coupled pair/coupled cluster methods
   Ingolf Harden          : AUTO-CI MPn and infrastructure 
   Benjamin Helmich-Paris : MC-RPA, TRAH-(SCF,CASSCF), AVAS, COSX integrals, SCF dyn. polar.
   Lee Huntington         : MR-EOM, pCC
   Robert Izsak           : Overlap fitted RIJCOSX, COSX-SCS-MP3, EOM
   Riya Kayal             : Wick's Theorem for AUTO-CI, AUTO-CI UHF-CCSDT
   Emily Kempfer          : AUTO-CI, RHF CISDT and CCSDT
   Christian Kollmar      : KDIIS, OOCD, Brueckner-CCSD(T), CCSD density, CASPT2, CASPT2-K, improved NEVPT2
   Axel Koslowski         : Symmetry handling
   Simone Kossmann        : Meta GGA functionals, TD-DFT gradient, OOMP2, (MP2 Hessian; deprecated post 5.0)
   Lucas Lang             : DCDCAS
   Marvin Lechner         : AUTO-CI (C++ implementation), FIC-MRCC
   Spencer Leger          : CASSCF response
   Dagmar Lenk            : GEPOL surface, SMD, ORCA-2-JSON
   Dimitrios Liakos       : Extrapolation schemes; Compound Job, initial MDCI parallelization
   Dimitrios Manganas     : Further ROCIS development; embedding schemes. LFT, Crystal Embedding
   Dimitrios Pantazis     : SARC Basis sets
   Anastasios Papadopoulos: AUTO-CI, single reference methods and gradients
   Taras Petrenko         : pre 6.0 DFT Hessian and TD-DFT gradient, (ASA, deprecated), ECA, 1-Electron XAS/XES, NRVS
   Peter Pinski           : DLPNO-MP2, DLPNO-MP2 Gradient
   Christoph Reimann      : Effective Core Potentials
   Marius Retegan         : Local ZFS, SOC
   Christoph Riplinger    : Optimizer, TS searches, QM/MM, DLPNO-CCSD(T), (RO)-DLPNO pert. Triples
   Michael Roemelt        : Original ROCIS implementation
   Masaaki Saitow         : Open-shell DLPNO-CCSD energy and density
   Barbara Sandhoefer     : DKH picture change effects
   Kantharuban Sivalingam : CASSCF convergence/infrastructure, NEVPT2 and variants, FIC-MRCI
   Bernardo de Souza      : ESD, SOC TD-DFT
   Georgi Stoychev        : AutoAux, RI-MP2 NMR, DLPNO-MP2 response, X2C
   Van Anh Tran           : RI-MP2 g-tensors
   Willem Van den Heuvel  : Paramagnetic NMR
   Zikuan Wang            : NOTCH, Electric field optimization 
   Frank Wennmohs         : Technical directorship and infrastructure
   Hang Xu                : AUTO-CI-Response properties 


 We gratefully acknowledge several colleagues who have allowed us to
 interface, adapt or use parts of their codes:
   Stefan Grimme, W. Hujo, H. Kruse, P. Pracht,  : VdW corrections, initial TS optimization,
                  C. Bannwarth, S. Ehlert,         DFT functionals, gCP, sTDA/sTD-DF
                  L. Wittmann, M. Mueller
   Ed Valeev, F. Pavosevic, A. Kumar             : LibInt (2-el integral package), F12 methods
   Garnet Chan, S. Sharma, J. Yang, R. Olivares  : DMRG
   Ulf Ekstrom                                   : XCFun DFT Library
   Mihaly Kallay                                 : mrcc  (arbitrary order and MRCC methods)
   Frank Weinhold                                : gennbo (NPA and NBO analysis)
   Simon Mueller                                 : openCOSMO-RS
   Christopher J. Cramer and Donald G. Truhlar   : smd solvation model
   Lars Goerigk                                  : TD-DFT with DH, B97 family of functionals
   V. Asgeirsson, H. Jonsson                     : NEB implementation
   FAccTs GmbH                                   : IRC, NEB, NEB-TS, DLPNO-Multilevel, CI-OPT
                                                   MM, QMMM, 2- and 3-layer-ONIOM, Crystal-QMMM,
                                                   LR-CPCM, SF, NACMEs, symmetry and pop. for TD-DFT,
                                                   nearIR, NL-DFT gradient (VV10), updates on ESD,
                                                   ML-optimized integration grids, MBIS, APM,
                                                   GOAT, DOCKER, SOLVATOR, interface openCOSMO-RS
   S Lehtola, MJT Oliveira, MAL Marques          : LibXC Library
   Liviu Ungur et al                             : ANISO software


 Your calculation uses the libint2 library for the computation of 2-el integrals
 For citations please refer to: http://libint.valeyev.net

 Your ORCA version has been built with support for libXC version: 6.2.2
 For citations please refer to: https://libxc.gitlab.io

 This ORCA versions uses:
   CBLAS   interface :  Fast vector & matrix operations
   LAPACKE interface :  Fast linear algebra routines
   SCALAPACK package :  Parallel linear algebra routines
   Shared memory     :  Shared parallel matrices
   BLAS/LAPACK       :  OpenBLAS 0.3.27  USE64BITINT DYNAMIC_ARCH NO_AFFINITY SkylakeX SINGLE_THREADED
        Core in use  :  SkylakeX
   Copyright (c) 2011-2014, The OpenBLAS Project




***************************************
The coordinates will be read from file: xtb_opt.xyz
***************************************


Your calculation utilizes the geometrical counterpoise correction gCP
Please cite in your paper:
H.Kruse, S. Grimme J.Chem.Phys., 136, (2012), 154101 
   

Your calculation utilizes the atom-pairwise dispersion correction
based on EEQ partial charges (D4)


Your calculation utilizes the SMD solvation module
Please cite in your paper:
A.V. Marenich, C.J. Cramer, D.G. Truhlar J. Phys. Chem. B, 113, (2009), 6378 

================================================================================

----- Orbital basis set information -----
Your calculation utilizes the basis: def2-mTZVPP
   Stefan Grimme, Andreas Hansen, Sebastian Ehlert, and Jan-Michael Mewes 
   J. Chem. Phys. 154, 064103 (2021). DOI: 10.1063/5.0040021

----- AuxJ basis set information -----
Your calculation utilizes the auxiliary basis: def2/J
   F. Weigend, Phys. Chem. Chem. Phys. 8, 1057 (2006).

================================================================================
                                        WARNINGS
                       Please study these warnings very carefully!
================================================================================

WARNING: Old DensityContainer found on disk!
         Will remove this file - 
         If you want to keep old densities, please start your calculation with a different basename. 

Using LibXC functional ID 497 : Re-regularized SCAN exchange by Furness et al
[ 1]  J. W. Furness, A. D. Kaplan, J. Ning, J. P. Perdew, and J. Sun.,  J. Phys. Chem. Lett. 11, 8208-8215 (2020)
[ 2]  J. W. Furness, A. D. Kaplan, J. Ning, J. P. Perdew, and J. Sun.,  J. Phys. Chem. Lett. 11, 9248-9248 (2020)
Using LibXC functional ID 498 : Re-regularized SCAN correlation by Furness et al
[ 1]  J. W. Furness, A. D. Kaplan, J. Ning, J. P. Perdew, and J. Sun.,  J. Phys. Chem. Lett. 11, 8208-8215 (2020)
[ 2]  J. W. Furness, A. D. Kaplan, J. Ning, J. P. Perdew, and J. Sun.,  J. Phys. Chem. Lett. 11, 9248-9248 (2020)
Using LibXC functional ID 497 : Re-regularized SCAN exchange by Furness et al
[ 1]  J. W. Furness, A. D. Kaplan, J. Ning, J. P. Perdew, and J. Sun.,  J. Phys. Chem. Lett. 11, 8208-8215 (2020)
[ 2]  J. W. Furness, A. D. Kaplan, J. Ning, J. P. Perdew, and J. Sun.,  J. Phys. Chem. Lett. 11, 9248-9248 (2020)
Using LibXC functional ID 498 : Re-regularized SCAN correlation by Furness et al
[ 1]  J. W. Furness, A. D. Kaplan, J. Ning, J. P. Perdew, and J. Sun.,  J. Phys. Chem. Lett. 11, 8208-8215 (2020)
[ 2]  J. W. Furness, A. D. Kaplan, J. Ning, J. P. Perdew, and J. Sun.,  J. Phys. Chem. Lett. 11, 9248-9248 (2020)

================================================================================
                                       INPUT FILE
================================================================================
NAME = xtb_opt.inp
|  1> ! r2scan-3c def2/J RI DEFGRID2 scfconv7 ENGRAD tightSCF miniprint
|  2> %cpcm
|  3>     smd true
|  4>     smdsolvent "water"
|  5> end
|  6> * xyzfile 0 1 xtb_opt.xyz
|  7> 
|  8>                          ****END OF INPUT****
================================================================================

                     *******************************
                     * Energy+Gradient Calculation *
                     *******************************

---------------------------------
CARTESIAN COORDINATES (ANGSTROEM)
---------------------------------
  C     -2.965743   -0.920745    0.218552
  C     -2.514644    0.281859   -0.607571
  C     -1.241093    0.921043   -0.062682
  C     -0.014639    0.067179   -0.244472
  O      0.103284   -0.830849   -1.062028
  O      0.970347    0.441003    0.597917
  C      2.259145   -0.236806    0.464968
  C      3.087492    0.385444   -0.637987
  H     -3.868634   -1.373254   -0.204470
  H     -2.190190   -1.693545    0.253697
  H     -3.189446   -0.622522    1.249035
  H     -3.302895    1.042044   -0.611672
  H     -2.354818   -0.013195   -1.650657
  H     -1.341851    1.171457    0.999003
  H     -1.023950    1.865066   -0.582066
  H      2.728178   -0.101689    1.441659
  H      2.082710   -1.302129    0.294602
  H      3.220041    1.458535   -0.465190
  H      4.075917   -0.084645   -0.648367
  H      2.625288    0.236274   -1.618680

----------------------------
CARTESIAN COORDINATES (A.U.)
----------------------------
  NO LB      ZA    FRAG     MASS         X           Y           Z
   0 C     6.0000    0    12.011   -5.604442   -1.739956    0.413003
   1 C     6.0000    0    12.011   -4.751989    0.532637   -1.148142
   2 C     6.0000    0    12.011   -2.345325    1.740519   -0.118452
   3 C     6.0000    0    12.011   -0.027663    0.126949   -0.461985
   4 O     8.0000    0    15.999    0.195179   -1.570077   -2.006943
   5 O     8.0000    0    15.999    1.833691    0.833375    1.129899
   6 C     6.0000    0    12.011    4.269166   -0.447498    0.878662
   7 C     6.0000    0    12.011    5.834514    0.728384   -1.205620
   8 H     1.0000    0     1.008   -7.310659   -2.595073   -0.386392
   9 H     1.0000    0     1.008   -4.138859   -3.200335    0.479418
  10 H     1.0000    0     1.008   -6.027180   -1.176397    2.360333
  11 H     1.0000    0     1.008   -6.241567    1.969177   -1.155893
  12 H     1.0000    0     1.008   -4.449960   -0.024936   -3.119289
  13 H     1.0000    0     1.008   -2.535731    2.213733    1.887841
  14 H     1.0000    0     1.008   -1.934984    3.524464   -1.099945
  15 H     1.0000    0     1.008    5.155509   -0.192164    2.724341
  16 H     1.0000    0     1.008    3.935752   -2.460668    0.556717
  17 H     1.0000    0     1.008    6.084996    2.756232   -0.879081
  18 H     1.0000    0     1.008    7.702367   -0.159957   -1.225236
  19 H     1.0000    0     1.008    4.961075    0.446494   -3.058862

------------------------------------------------------------------------------
                   ___                                                        
                  /   \      - P O W E R E D   B Y -                         
                 /     \                                                     
                 |  |  |   _    _      __       _____    __    __             
                 |  |  |  | |  | |    /  \     |  _  \  |  |  /  |          
                  \  \/   | |  | |   /    \    | | | |  |  | /  /          
                 / \  \   | |__| |  /  /\  \   | |_| |  |  |/  /          
                |  |  |   |  __  | /  /__\  \  |    /   |      \           
                |  |  |   | |  | | |   __   |  |    \   |  |\   \          
                \     /   | |  | | |  |  |  |  | |\  \  |  | \   \       
                 \___/    |_|  |_| |__|  |__|  |_| \__\ |__|  \__/        
                                                                              
                      - O R C A' S   B I G   F R I E N D -                    
                                      &                                       
                       - I N T E G R A L  F E E D E R -                       
                                                                              
 v1 FN, 2020, v2 2021, v3 2022-2024                                           
------------------------------------------------------------------------------


----------------------
SHARK INTEGRAL PACKAGE
----------------------

Number of atoms                             ...     20
Number of basis functions                   ...    222
Number of shells                            ...    110
Maximum angular momentum                    ...      2
Integral batch strategy                     ... SHARK/LIBINT Hybrid
RI-J (if used) integral strategy            ... SPLIT-RIJ (Revised 2003 algorithm where possible)
Printlevel                                  ...      1
Contraction scheme used                     ... SEGMENTED contraction
Prescreening option                         ... SCHWARTZ
   Thresh                                   ... 3.000e-11
   Tcut                                     ... 1.000e-12
   Tpresel                                  ... 1.000e-12 
Coulomb Range Separation                    ... NOT USED
Exchange Range Separation                   ... NOT USED
Multipole approximations                    ... NOT USED
Finite Nucleus Model                        ... NOT USED
CABS basis                                  ... NOT available
Auxiliary Coulomb fitting basis             ... AVAILABLE
   # of basis functions in Aux-J            ...    524
   # of shells in Aux-J                     ...    180
   Maximum angular momentum in Aux-J        ...      4
Auxiliary J/K fitting basis                 ... NOT available
Auxiliary Correlation fitting basis         ... NOT available
Auxiliary 'external' fitting basis          ... NOT available

Checking pre-screening integrals            ... done (  0.0 sec) Dimension = 110
Check shell pair data                       ... done (  0.0 sec)
Shell pair information
Shell pair cut-off parameter TPreSel        ...   1.0e-12
Total number of shell pairs                 ...      6105
Shell pairs after pre-screening             ...      5342
Total number of primitive shell pairs       ...     21533
Primitive shell pairs kept                  ...     13438
          la=0 lb=0:   1791 shell pairs
          la=1 lb=0:   2014 shell pairs
          la=1 lb=1:    585 shell pairs
          la=2 lb=0:    575 shell pairs
          la=2 lb=1:    326 shell pairs
          la=2 lb=2:     51 shell pairs

Calculating one electron integrals          ... done (  0.0 sec)
Calculating RI/J V-Matrix + Cholesky decomp.... done (  0.1 sec)
Calculating Nuclear repulsion               ... done (  0.0 sec) ENN=    391.963085663249 Eh

Diagonalization of the overlap matrix:
Smallest eigenvalue                        ... 1.469e-04
Time for diagonalization                   ...    0.008 sec
Threshold for overlap eigenvalues          ... 1.000e-07
Number of eigenvalues below threshold      ... 0
Time for construction of square roots      ...    0.020 sec
Total time needed                          ...    0.045 sec

-------------------
DFT GRID GENERATION
-------------------

General Integration Accuracy     IntAcc      ... 4.388
Radial Grid Type                 RadialGrid  ... OptM3 with GC (2021)
Angular Grid (max. ang.)         AngularGrid ... 4 (Lebedev-302)
Angular grid pruning method      GridPruning ... 4 (adaptive)
Weight generation scheme         WeightScheme... mBecke (2022)
Basis function cutoff            BFCut       ... 1.0000e-11
Integration weight cutoff        WCut        ... 1.0000e-14
Partially contracted basis set               ... off
Rotationally invariant grid construction     ... off
Angular grids for H and He will be reduced by one unit
Diffuse basis detected: some atoms will have their outermost
                        angular grid increased by 1.

Total number of grid points                  ...    87448
Total number of batches                      ...     1374
Average number of points per batch           ...       63
Average number of grid points per atom       ...     4372
Initializing property integral containers    ... done (  0.0 sec)

SHARK setup successfully completed in   1.5 seconds

Maximum memory used throughout the entire STARTUP-calculation: 39.4 MB
Occupation numbers will be reassigned to an Aufbau configuration
             **** ENERGY FILE WAS UPDATED (xtb_opt.en.tmp) ****
Finished Guess after   0.5 sec
Maximum memory used throughout the entire GUESS-calculation: 15.2 MB
--------------------
CPCM SOLVATION MODEL
--------------------
CPCM parameters:
  Epsilon                                         ...      78.3550
  Refrac                                          ...       1.3328
  Rsolv                                           ...       1.3000
  Surface type                                    ... GAUSSIAN VDW
  Discretization scheme                           ... Constant charge density
    Threshold for H atoms                         ...       5.0000 (charges/Ang^2)
    Threshold for non-H atoms                     ...       5.0000 (charges/Ang^2)
  Epsilon function type                           ...         CPCM
Solvent:                                          ... WATER
SMD-CDS solvent descriptors:
  Soln                                            ...       1.3328
  Soln25                                          ...       1.3323
  Sola                                            ...       0.0000
  Solb                                            ...       0.0000
  Solg                                            ...       0.0000
  Solc                                            ...       0.0000
  Solh                                            ...       0.0000
Radii:
  Scheme                                          ... Element-dependent radii
  Radius for C  used is    3.4960 Bohr (=   1.8500 Ang.)
  Radius for O  used is    2.8724 Bohr (=   1.5200 Ang.)
  Radius for H  used is    2.2677 Bohr (=   1.2000 Ang.)
Calculating surface                               ...        done! (  0.0s)
Cavity surface points                             ...         1506
Cavity Volume                                     ...     884.3989
Cavity Surface-area                               ...     591.1155
Calculating surface distance matrix               ...        done! (  0.0s)
Performing Cholesky decomposition & store         ...        done! (  0.3s)
Overall time for CPCM initialization              ...                 0.4s

----------------------------------------D-I-I-S--------------------------------------------
Iteration    Energy (Eh)           Delta-E    RMSDP     MaxDP     DIISErr   Damp  Time(sec)
-------------------------------------------------------------------------------------------
               ***  Starting incremental Fock matrix formation  ***
                              *** Initializing SOSCF ***
---------------------------------------S-O-S-C-F--------------------------------------
Iteration    Energy (Eh)           Delta-E    RMSDP     MaxDP     MaxGrad    Time(sec)
--------------------------------------------------------------------------------------
    1    -386.2574248417541298     0.00e+00  1.61e-06  5.50e-05  1.51e-05     3.2
               *** Restarting incremental Fock matrix formation ***
    2    -386.2574248335305924     8.22e-09  3.33e-06  1.03e-04  3.55e-05     3.2
    3    -386.2574247412085811     9.23e-08  2.57e-06  8.57e-05  1.01e-04     2.6
                 **** Energy Check signals convergence ****

               *****************************************************
               *                     SUCCESS                       *
               *           SCF CONVERGED AFTER   3 CYCLES          *
               *****************************************************


SMD CDS free energy correction energy :                 4.83787     Kcal/mol
Total Energy after SMD CDS correction =              -386.249715113 Eh
             **** ENERGY FILE WAS UPDATED (xtb_opt.en.tmp) ****

----------------
TOTAL SCF ENERGY
----------------

Total Energy       :       -386.24971511290744 Eh          -10510.38909 eV

Components:
Nuclear Repulsion  :        391.96308566324916 Eh           10665.85780 eV
Electronic Energy  :       -778.20489053483493 Eh          -21176.03164 eV
One Electron Energy:      -1301.50833201884916 Eh          -35415.84222 eV
Two Electron Energy:        523.30344148401423 Eh           14239.81058 eV
CPCM Dielectric    :         -0.01561986962285 Eh              -0.42504 eV
SMD CDS (Gcds)     :          0.00770962830113 Eh               0.20979 eV

Virial components:
Potential Energy   :       -770.68375278171516 Eh          -20971.37108 eV
Kinetic Energy     :        384.43403766880772 Eh           10460.98199 eV
Virial Ratio       :          2.00472298825336

DFT components:
N(Alpha)           :       31.999984266180 electrons
N(Beta)            :       31.999984266180 electrons
N(Total)           :       63.999968532360 electrons
E(X)               :      -52.033803095499 Eh       
E(C)               :       -2.035763566283 Eh       
E(XC)              :      -54.069566661782 Eh       

CPCM Solvation Model Properties:
Surface-charge          :         -0.04741900317618
Corrected charge        :          0.00000000000000
Outlying charge corr.   :          0.00016897021889 Eh               0.00460 eV
Free-energy (cav+disp)  :          0.00770962830113 Eh               0.20979 eV

---------------
SCF CONVERGENCE
---------------

  Last Energy change         ...   -9.2322e-08  Tolerance :   1.0000e-07
  Last MAX-Density change    ...    8.5705e-05  Tolerance :   1.0000e-07
  Last RMS-Density change    ...    2.5677e-06  Tolerance :   5.0000e-09
  Last DIIS Error            ...    8.0585e-05  Tolerance :   1.0000e-07
  Last Orbital Gradient      ...    1.0140e-04  Tolerance :   1.0000e-04
  Last Orbital Rotation      ...    1.1609e-04  Tolerance :   1.0000e-04


----------------
ORBITAL ENERGIES
----------------

  NO   OCC          E(Eh)            E(eV) 
   0   2.0000     -18.999991      -517.0160 
   1   2.0000     -18.945166      -515.5242 
   2   2.0000     -10.164884      -276.6006 
   3   2.0000     -10.084404      -274.4106 
   4   2.0000     -10.038325      -273.1567 
   5   2.0000     -10.027231      -272.8548 
   6   2.0000     -10.020569      -272.6735 
   7   2.0000     -10.013338      -272.4768 
   8   2.0000      -1.067416       -29.0459 
   9   2.0000      -0.983808       -26.7708 
  10   2.0000      -0.765710       -20.8360 
  11   2.0000      -0.731029       -19.8923 
  12   2.0000      -0.672429       -18.2977 
  13   2.0000      -0.613976       -16.7071 
  14   2.0000      -0.559914       -15.2360 
  15   2.0000      -0.513604       -13.9759 
  16   2.0000      -0.473261       -12.8781 
  17   2.0000      -0.455645       -12.3987 
  18   2.0000      -0.443223       -12.0607 
  19   2.0000      -0.419316       -11.4102 
  20   2.0000      -0.401710       -10.9311 
  21   2.0000      -0.382715       -10.4142 
  22   2.0000      -0.373780       -10.1711 
  23   2.0000      -0.357089        -9.7169 
  24   2.0000      -0.348682        -9.4881 
  25   2.0000      -0.337223        -9.1763 
  26   2.0000      -0.309818        -8.4306 
  27   2.0000      -0.306835        -8.3494 
  28   2.0000      -0.303431        -8.2568 
  29   2.0000      -0.300351        -8.1730 
  30   2.0000      -0.277980        -7.5642 
  31   2.0000      -0.252089        -6.8597 
  32   0.0000      -0.025359        -0.6901 
  33   0.0000       0.076554         2.0831 
  34   0.0000       0.087100         2.3701 
  35   0.0000       0.118215         3.2168 
  36   0.0000       0.128734         3.5030 
  37   0.0000       0.133362         3.6290 
  38   0.0000       0.138614         3.7719 
  39   0.0000       0.144192         3.9237 
  40   0.0000       0.154815         4.2127 
  41   0.0000       0.158618         4.3162 
  42   0.0000       0.177569         4.8319 
*Only the first 10 virtual orbitals were printed.
Total SCF time: 0 days 0 hours 0 min 10 sec 
Finished LeanSCF after  10.4 sec

Maximum memory used throughout the entire LEANSCF-calculation: 30.7 MB


-------------------------------------------------------------------------------
                          DFT DISPERSION CORRECTION                            
                                                                               
                                DFTD4 V3.4.0                                   
-------------------------------------------------------------------------------
-------------------------   ----------------
Dispersion correction           -0.005049056
-------------------------   ----------------

------------------   -----------------
gCP correction             0.011531465
------------------   -----------------

-------------------------   --------------------
FINAL SINGLE POINT ENERGY      -386.243232704194
-------------------------   --------------------

------------------------------------------------------------------------------
                         ORCA SCF GRADIENT CALCULATION
------------------------------------------------------------------------------

Nuc. rep. gradient        (SHARK) ... done (  0.0 sec)
HCore & Overlap gradient  (SHARK) ... done (  0.3 sec)
Split-RIJ-J gradient      (SHARK) ... done (  1.5 sec)
XC gradient                       ... done (  5.6 sec)
CPCM gradient                     ... done (  0.9 sec)
SMD gradient                      ... done (  0.0 sec)
Dispersion correction             ... done (  0.0 sec)

-------------------
DISPERSION GRADIENT
-------------------

   1   C   :   -0.000074495   -0.000036177    0.000015909
   2   C   :   -0.000064683    0.000012972   -0.000018297
   3   C   :   -0.000053313    0.000048501    0.000003742
   4   C   :    0.000008668    0.000004359   -0.000002062
   5   O   :    0.000013108   -0.000045132   -0.000047229
   6   O   :    0.000051831    0.000012270    0.000033001
   7   C   :    0.000070488   -0.000016931    0.000021221
   8   C   :    0.000079808    0.000006961   -0.000015297
   9   H   :   -0.000029195   -0.000017552    0.000002254
  10   H   :   -0.000031328   -0.000023546    0.000003857
  11   H   :   -0.000032453   -0.000012907    0.000015250
  12   H   :   -0.000025825    0.000010505   -0.000005114
  13   H   :   -0.000021914   -0.000000153   -0.000014955
  14   H   :   -0.000016414    0.000022757    0.000014869
  15   H   :   -0.000016517    0.000033564   -0.000007218
  16   H   :    0.000024331   -0.000002377    0.000017310
  17   H   :    0.000025281   -0.000011169    0.000006520
  18   H   :    0.000032806    0.000011972   -0.000004147
  19   H   :    0.000027868    0.000001129   -0.000005822
  20   H   :    0.000031950    0.000000956   -0.000013792

Difference to translation invariance:
           :    0.0000000000    0.0000000000    0.0000000000

Difference to rotation invariance:
           :   -0.0000000000    0.0000000000   -0.0000000000

Norm of the Dispersion gradient    ...    0.0002256727
RMS gradient                       ...    0.0000291342
MAX gradient                       ...    0.0000798084
gCP correction                   ... done

------------------
CARTESIAN GRADIENT
------------------

   1   C   :    0.000043513   -0.000199653    0.000139419
   2   C   :    0.000019283    0.000402662   -0.000035176
   3   C   :   -0.000305311   -0.000048472    0.000013020
   4   C   :    0.000357244    0.000283762    0.000448547
   5   O   :   -0.000177924   -0.000699373   -0.000643307
   6   O   :    0.000641658    0.000016148   -0.000181567
   7   C   :   -0.001011773    0.000161556    0.000825522
   8   C   :    0.000754794   -0.000245678   -0.000248243
   9   H   :   -0.000256237   -0.000184368   -0.000184153
  10   H   :    0.000049496    0.000011866    0.000084807
  11   H   :   -0.000109030    0.000053833    0.000222425
  12   H   :   -0.000000583   -0.000013205   -0.000078508
  13   H   :    0.000039582   -0.000051200   -0.000173460
  14   H   :    0.000070708   -0.000082845    0.000276953
  15   H   :    0.000087737    0.000240586    0.000009516
  16   H   :   -0.000003042   -0.000025924    0.000199408
  17   H   :   -0.000013581   -0.000185491   -0.000215211
  18   H   :    0.000031574    0.000712599    0.000050026
  19   H   :    0.000016290    0.000053341    0.000118186
  20   H   :   -0.000234397   -0.000200143   -0.000628204

Difference to translation invariance:
           :   -0.0000000000   -0.0000000000   -0.0000000000

Difference to rotation invariance:
           :    0.0000033688    0.0001477076    0.0000028525

Norm of the Cartesian gradient     ...    0.0024646250
RMS gradient                       ...    0.0003181817
MAX gradient                       ...    0.0010117729

-------
TIMINGS
-------

Total SCF gradient time     ....        9.217 sec

Densities                   ....       0.001 sec  (  0.0%)
One electron gradient       ....       0.312 sec  (  3.4%)
RI-J Coulomb gradient       ....       1.528 sec  ( 16.6%)
XC gradient                 ....       5.645 sec  ( 61.2%)
CPCM gradient               ....       0.888 sec  (  9.6%)
   A-Matrix (El+Nuc)        ....       0.075 sec  (  0.8%)
   Potential                ....       0.813 sec  (  8.8%)
SMD gradient                ....       0.013 sec  (  0.1%)

Maximum memory used throughout the entire SCFGRAD-calculation: 35.4 MB

------------------------------------------------------------------------------
                              ORCA PROPERTY CALCULATIONS
------------------------------------------------------------------------------

GBWName                                 ... xtb_opt.gbw
Number of atoms                         ...     20
Number of basis functions               ...    222
Max core memory                         ...   1024 MB

Electric properties:
Dipole moment                           ... YES
Quadrupole moment                       ...  NO
Static polarizability (Dipole/Dipole)   ...  NO
Static polarizability (Dipole/Quad.)    ...  NO
Static polarizability (Quad./Quad.)     ...  NO
Static polarizability (Velocity)        ...  NO

Atomic electric properties:
Dipole moment                           ...  NO
Quadrupole moment                       ...  NO
Static polarizability                   ...  NO

Choice of electric origin               ... Center of mass
Position of electric origin             ...    -0.033708     0.005386    -0.315941

General magnetic properties:
Magnetizability                         ...  NO

EPR properties:
g-Tensor (aka g-matrix)                 ...  NO
Zero-Field splitting spin-orbit         ...  NO
Zero-field splitting spin-spin          ...  NO
Hyperfine couplings                     ...  NO (   0 nuclei)
Quadrupole couplings                    ...  NO (   0 nuclei)
Contact density                         ...  NO (   0 nuclei)

NMR properties:
Chemical shifts                         ...  NO (   0 nuclei)
Spin-rotation constants                 ...  NO (   0 nuclei)
Spin-spin couplings                     ...  NO (   0 nuclei,    0 pairs)

Choice of magnetic origin               ... GIAO
Position of magnetic origin             ...     0.000000     0.000000     0.000000

Properties with geometric perturbations:
SCF Hessian                             ...  NO
IR spectrum                             ...  NO
VCD spectrum                            ...  NO
X-ray spectroscopy properties:
SCF XES/XAS/RIXS spectra                ...  NO


-------------
DIPOLE MOMENT
-------------

Method             : SCF
Type of density    : Electron Density
Multiplicity       :   1
Irrep              :   0
Energy             :  -386.2497151129074382 Eh
Relativity type    : 
Basis              : AO
                                X                 Y                 Z
Electronic contribution:      2.470450842       0.255477793       0.232916306
Nuclear contribution   :     -2.165416302       0.508453099       0.432605583
                        -----------------------------------------
Total Dipole Moment    :      0.305034540       0.763930892       0.665521889
                        -----------------------------------------
Magnitude (a.u.)       :      1.058090669
Magnitude (Debye)      :      2.689452745



--------------------
Rotational spectrum 
--------------------
 
Rotational constants in cm-1:             0.174985             0.031748             0.031038 
Rotational constants in MHz :          5245.907170           951.771677           930.501756 

Dipole components along the rotational axes: 
x,y,z [a.u.] :     0.365363    -0.975675     0.184725 
x,y,z [Debye]:     0.928678    -2.479970     0.469534 

 

Dipole moment calculation done in   0.0 sec 

Maximum memory used throughout the entire PROP-calculation: 13.9 MB

--------------------------------
SUGGESTED CITATIONS FOR THIS RUN
--------------------------------

Below you find a list of papers that are relevant to this ORCA run
We neither can nor want to force you to cite these papers, but we appreciate if you do
You receive ORCA, which is the product of decades of hard work by many enthusiastic individuals, for free
The only thing we kindly ask in return is that you cite our papers,
We deeply appreciate it, if you show your appreciation for ORCA by not just citing the generic ORCA reference.

Please note that relegating all ORCA citations to the supporting information does *not* help us.
SI sections are not indexed - citations you put there will not count into any citation statistics
But we need these citations in order to attract the funding resources that allow us to do what we are doing

Therefore, if you are a happy ORCA user, please consider citing a few of the papers listed below in the main body of your paper

In addition to the list printed below, the program has created the file xtb_opt.bibtex that contains the list in bibtex format
You can import this file easily into all common literature databanks and citation aid programs


List of essential papers. We consider these as the minimum necessary citations

  1. Neese,F.
     Software update: the ORCA program system, version 5.0
     WIRES Comput. Molec. Sci., 2022 12(1)e1606
     doi.org/10.1002/wcms.1606
  2. Grimme,S.; Hansen,A.; Ehlert,S.; Mewes,J.
     r2SCAN-3c: A 'Swiss army knife' composite electronic-structure method
     J. Chem. Phys., 2021 154 064103
     doi.org/10.1063/5.0040021

List of papers to cite with high priority. The work reported in these papers was absolutely
necessary for this run to complete.
Our perspective: the developers of density functionals and basis sets usually get cited in chemistry papers
Good! But without the algorithms to do something with them, the functionals or basis sets would not do anything.
Hence, in our opinion, the algorithm design and method developments papers are equally worthy of getting cited

  1. Neese,F.
     An improvement of the resolution of the identity approximation for the formation of the Coulomb matrix
     J. Comp. Chem., 2003 24(14)1740-1747
     doi.org/10.1002/jcc.10318
  2. Garcia-Rates,M.; Neese,F.
     Effect of the Solute Cavity on the Solvation Energy and its Derivatives within the Framework of the Gaussian Charge Scheme
     J. Comput. Chem., 2020 41 922-939
     doi.org/10.1002/jcc.26139
  3. Neese,F.
     The SHARK Integral Generation and Digestion System
     J. Comp. Chem., 2022  1-16
     doi.org/10.1002/jcc.26942
  4. Lehtola,S.; Steigemann,C.; Oliveira,M.; Marques,M.
     Recent developments in Libxc - A comprehensive library of functionals for density functional theory
     Software X, 2018 7 
     doi.org/10.1016/j.softx.2017.11.002
  5. Caldeweyher,E.; Bannwarth,C.; Grimme,S.
     Extension of the D3 dispersion coefficient model
     J. Chem. Phys., 2017 147 034112-XXXX
     doi.org/10.1063/1.4993215
  6. Caldeweyher,E.; Ehlert,S.; Hansen,A.; Neugebauer,H.; Spicher,S.; Bannwarth,C.; Grimme,S.
     A generally applicable atomic-charge dependent London dispersion correction
     J. Chem. Phys., 2019 150 154122-XXXX
     doi.org/10.1063/1.5090222
  7. Caldeweyher,E.; Mewes,J.; Ehlert,S.; Grimme,S.
     Extension and evaluation of the D4 London-dispersion model for periodic systems
     Phys. Chem. Chem. Phys., 2020 22(16)8499-8512
     doi.org/10.1039/D0CP00502A

List of suggested additional citations. These are papers that are important in the 'surrounding' of 
of this run, or papers that preceded the highly important papers. If you like your results we are grateful for a citation.

  1. Neese,F.
     The ORCA program system
     WIRES Comput. Molec. Sci., 2012 2(1)73-78
     doi.org/10.1002/wcms.81
  2. Neese,F.
     Software update: the ORCA program system, version 4.0
     WIRES Comput. Molec. Sci., 2018 8(1)1-6
     doi.org/10.1002/wcms.1327
  3. Neese,F.; Wennmohs,F.; Becker,U.; Riplinger,C.
     The ORCA quantum chemistry program package
     J. Chem. Phys., 2020 152 Art. No. L224108
     doi.org/10.1063/5.0004608

List of optional additional citations

  1. Neese,F.
     Approximate second-order SCF convergence for spin unrestricted wavefunctions
     Chem. Phys. Lett., 2000 325(1-3)93-98
     doi.org/10.1016/s0009-2614(00)00662-x

Timings for individual modules:

Sum of individual times          ...       22.019 sec (=   0.367 min)
Startup calculation              ...        1.579 sec (=   0.026 min)   7.2 %
SCF iterations                   ...       10.976 sec (=   0.183 min)  49.8 %
Property calculations            ...        0.130 sec (=   0.002 min)   0.6 %
SCF Gradient evaluation          ...        9.334 sec (=   0.156 min)  42.4 %
                             ****ORCA TERMINATED NORMALLY****
TOTAL RUN TIME: 0 days 0 hours 0 minutes 23 seconds 238 msec
  ------------------------------------------------------------------------
          * successful ORCA run, taking over control again...

         :::::::::::::::::::::::::::::::::::::::::::::::::::::
         ::                  ORCA SUMMARY                   ::
         :::::::::::::::::::::::::::::::::::::::::::::::::::::
         :: total energy            -386.243232704194 Eh    ::
         :: gradient norm              0.002464624963 Eh/a0 ::
         :: HOMO-LUMO gap              0.000000000000 eV    ::
         :::::::::::::::::::::::::::::::::::::::::::::::::::::

      ----------------------------------------------------------- 
     |                       L-ANC optimizer                     |
      ----------------------------------------------------------- 
          low memory version by Sebastian Ehlert

          ...................................................
          :                      SETUP                      :
          :.................................................:
          :   energy convergence        0.5000000E-05 Eh    :
          :   grad. convergence         0.1000000E-02 Eh/a0 :
          :   optimization log               true           :
          :   writing optlog all                1     steps :
          :   Hessian reset                     8     steps :
          :   maximium step len.        1.0000000     a0    :
          :   LBFGS images                      8           :
          ...................................................
 * calculating model hessian...
Using Lindh-Hessian (1995)
 Shifting diagonal of input Hessian by   1.000000000000000E-002
 Lowest  eigenvalues of input Hessian
    0.000000    0.000000    0.000000    0.000000    0.000000    0.000000
    0.011356    0.011795    0.014171    0.015416    0.017936    0.019931
    0.025016    0.026886    0.039264    0.040837    0.050512    0.054415
 Highest eigenvalues
    1.202406    1.229717    1.264053    1.303395    1.722200    2.268424
 

........................................................................
.............................. CYCLE    1 ..............................
........................................................................
                         * ORCA takes the control...
  ------------------------------------------------------------------------

                                 *****************
                                 * O   R   C   A *
                                 *****************

                                            #,                                       
                                            ###                                      
                                            ####                                     
                                            #####                                    
                                            ######                                   
                                           ########,                                 
                                     ,,################,,,,,                         
                               ,,#################################,,                 
                          ,,##########################################,,             
                       ,#########################################, ''#####,          
                    ,#############################################,,   '####,        
                  ,##################################################,,,,####,       
                ,###########''''           ''''###############################       
              ,#####''   ,,,,##########,,,,          '''####'''          '####       
            ,##' ,,,,###########################,,,                        '##       
           ' ,,###''''                  '''############,,,                           
         ,,##''                                '''############,,,,        ,,,,,,###''
      ,#''                                            '''#######################'''  
     '                                                          ''''####''''         
             ,#######,   #######,   ,#######,      ##                                
            ,#'     '#,  ##    ##  ,#'     '#,    #''#        ,####,   ,####,        
            ##       ##  ##   ,#'  ##            #'  '#       #'       #'  '#        
            ##       ##  #######   ##           ,######,      #####,   #    #        
            '#,     ,#'  ##    ##  '#,     ,#' ,#      #,     #,   #   #,  ,#        
             '#######'   ##     ##  '#######'  #'      '#     '####' # '####'        



                #########################################################
                #                        -***-                          #
                #          Department of theory and spectroscopy        #
                #                                                       #
                #                      Frank Neese                      #
                #                                                       #
                #     Directorship, Architecture, Infrastructure        #
                #                    SHARK, DRIVERS                     #
                #        Core code/Algorithms in most modules           #
                #                                                       #
                #        Max Planck Institute fuer Kohlenforschung      #
                #                Kaiser Wilhelm Platz 1                 #
                #                 D-45470 Muelheim/Ruhr                 #
                #                      Germany                          #
                #                                                       #
                #                  All rights reserved                  #
                #                        -***-                          #
                #########################################################


                         Program Version 6.0.0  -   RELEASE  -


 With contributions from (in alphabetic order):
   Daniel Aravena         : Magnetic Suceptibility
   Michael Atanasov       : Ab Initio Ligand Field Theory (pilot matlab implementation)
   Alexander A. Auer      : GIAO ZORA, VPT2 properties, NMR spectrum
   Ute Becker             : All parallelization in ORCA, NUMFREQ, NUMCALC
   Giovanni Bistoni       : ED, misc. LED, open-shell LED, HFLD
   Martin Brehm           : Molecular dynamics
   Dmytro Bykov           : pre 5.0 version of the SCF Hessian
   Marcos Casanova-Páez   : Triplet and SCS-CIS(D). UHF-(DLPNO)-IP/EA/STEOM-CCSD. UHF-CVS-IP/STEOM-CCSD
   Vijay G. Chilkuri      : MRCI spin determinant printing, contributions to CSF-ICE
   Pauline Colinet        : FMM embedding
   Dipayan Datta          : RHF DLPNO-CCSD density
   Achintya Kumar Dutta   : EOM-CC, STEOM-CC
   Nicolas Foglia         : Exact transition moments, OPA infrastructure, MCD improvements
   Dmitry Ganyushin       : Spin-Orbit,Spin-Spin,Magnetic field MRCI
   Miquel Garcia          : C-PCM and meta-GGA Hessian, CCSD/C-PCM, Gaussian charge scheme
   Tiago L. C. Gouveia    : GS-ROHF, GS-ROCIS
   Yang Guo               : DLPNO-NEVPT2, F12-NEVPT2, CIM, IAO-localization
   Andreas Hansen         : Spin unrestricted coupled pair/coupled cluster methods
   Ingolf Harden          : AUTO-CI MPn and infrastructure 
   Benjamin Helmich-Paris : MC-RPA, TRAH-(SCF,CASSCF), AVAS, COSX integrals, SCF dyn. polar.
   Lee Huntington         : MR-EOM, pCC
   Robert Izsak           : Overlap fitted RIJCOSX, COSX-SCS-MP3, EOM
   Riya Kayal             : Wick's Theorem for AUTO-CI, AUTO-CI UHF-CCSDT
   Emily Kempfer          : AUTO-CI, RHF CISDT and CCSDT
   Christian Kollmar      : KDIIS, OOCD, Brueckner-CCSD(T), CCSD density, CASPT2, CASPT2-K, improved NEVPT2
   Axel Koslowski         : Symmetry handling
   Simone Kossmann        : Meta GGA functionals, TD-DFT gradient, OOMP2, (MP2 Hessian; deprecated post 5.0)
   Lucas Lang             : DCDCAS
   Marvin Lechner         : AUTO-CI (C++ implementation), FIC-MRCC
   Spencer Leger          : CASSCF response
   Dagmar Lenk            : GEPOL surface, SMD, ORCA-2-JSON
   Dimitrios Liakos       : Extrapolation schemes; Compound Job, initial MDCI parallelization
   Dimitrios Manganas     : Further ROCIS development; embedding schemes. LFT, Crystal Embedding
   Dimitrios Pantazis     : SARC Basis sets
   Anastasios Papadopoulos: AUTO-CI, single reference methods and gradients
   Taras Petrenko         : pre 6.0 DFT Hessian and TD-DFT gradient, (ASA, deprecated), ECA, 1-Electron XAS/XES, NRVS
   Peter Pinski           : DLPNO-MP2, DLPNO-MP2 Gradient
   Christoph Reimann      : Effective Core Potentials
   Marius Retegan         : Local ZFS, SOC
   Christoph Riplinger    : Optimizer, TS searches, QM/MM, DLPNO-CCSD(T), (RO)-DLPNO pert. Triples
   Michael Roemelt        : Original ROCIS implementation
   Masaaki Saitow         : Open-shell DLPNO-CCSD energy and density
   Barbara Sandhoefer     : DKH picture change effects
   Kantharuban Sivalingam : CASSCF convergence/infrastructure, NEVPT2 and variants, FIC-MRCI
   Bernardo de Souza      : ESD, SOC TD-DFT
   Georgi Stoychev        : AutoAux, RI-MP2 NMR, DLPNO-MP2 response, X2C
   Van Anh Tran           : RI-MP2 g-tensors
   Willem Van den Heuvel  : Paramagnetic NMR
   Zikuan Wang            : NOTCH, Electric field optimization 
   Frank Wennmohs         : Technical directorship and infrastructure
   Hang Xu                : AUTO-CI-Response properties 


 We gratefully acknowledge several colleagues who have allowed us to
 interface, adapt or use parts of their codes:
   Stefan Grimme, W. Hujo, H. Kruse, P. Pracht,  : VdW corrections, initial TS optimization,
                  C. Bannwarth, S. Ehlert,         DFT functionals, gCP, sTDA/sTD-DF
                  L. Wittmann, M. Mueller
   Ed Valeev, F. Pavosevic, A. Kumar             : LibInt (2-el integral package), F12 methods
   Garnet Chan, S. Sharma, J. Yang, R. Olivares  : DMRG
   Ulf Ekstrom                                   : XCFun DFT Library
   Mihaly Kallay                                 : mrcc  (arbitrary order and MRCC methods)
   Frank Weinhold                                : gennbo (NPA and NBO analysis)
   Simon Mueller                                 : openCOSMO-RS
   Christopher J. Cramer and Donald G. Truhlar   : smd solvation model
   Lars Goerigk                                  : TD-DFT with DH, B97 family of functionals
   V. Asgeirsson, H. Jonsson                     : NEB implementation
   FAccTs GmbH                                   : IRC, NEB, NEB-TS, DLPNO-Multilevel, CI-OPT
                                                   MM, QMMM, 2- and 3-layer-ONIOM, Crystal-QMMM,
                                                   LR-CPCM, SF, NACMEs, symmetry and pop. for TD-DFT,
                                                   nearIR, NL-DFT gradient (VV10), updates on ESD,
                                                   ML-optimized integration grids, MBIS, APM,
                                                   GOAT, DOCKER, SOLVATOR, interface openCOSMO-RS
   S Lehtola, MJT Oliveira, MAL Marques          : LibXC Library
   Liviu Ungur et al                             : ANISO software


 Your calculation uses the libint2 library for the computation of 2-el integrals
 For citations please refer to: http://libint.valeyev.net

 Your ORCA version has been built with support for libXC version: 6.2.2
 For citations please refer to: https://libxc.gitlab.io

 This ORCA versions uses:
   CBLAS   interface :  Fast vector & matrix operations
   LAPACKE interface :  Fast linear algebra routines
   SCALAPACK package :  Parallel linear algebra routines
   Shared memory     :  Shared parallel matrices
   BLAS/LAPACK       :  OpenBLAS 0.3.27  USE64BITINT DYNAMIC_ARCH NO_AFFINITY SkylakeX SINGLE_THREADED
        Core in use  :  SkylakeX
   Copyright (c) 2011-2014, The OpenBLAS Project




***************************************
The coordinates will be read from file: xtb_opt.xyz
***************************************


Your calculation utilizes the geometrical counterpoise correction gCP
Please cite in your paper:
H.Kruse, S. Grimme J.Chem.Phys., 136, (2012), 154101 
   

Your calculation utilizes the atom-pairwise dispersion correction
based on EEQ partial charges (D4)


Your calculation utilizes the SMD solvation module
Please cite in your paper:
A.V. Marenich, C.J. Cramer, D.G. Truhlar J. Phys. Chem. B, 113, (2009), 6378 

================================================================================

----- Orbital basis set information -----
Your calculation utilizes the basis: def2-mTZVPP
   Stefan Grimme, Andreas Hansen, Sebastian Ehlert, and Jan-Michael Mewes 
   J. Chem. Phys. 154, 064103 (2021). DOI: 10.1063/5.0040021

----- AuxJ basis set information -----
Your calculation utilizes the auxiliary basis: def2/J
   F. Weigend, Phys. Chem. Chem. Phys. 8, 1057 (2006).

================================================================================
                                        WARNINGS
                       Please study these warnings very carefully!
================================================================================

WARNING: Old DensityContainer found on disk!
         Will remove this file - 
         If you want to keep old densities, please start your calculation with a different basename. 

Using LibXC functional ID 497 : Re-regularized SCAN exchange by Furness et al
[ 1]  J. W. Furness, A. D. Kaplan, J. Ning, J. P. Perdew, and J. Sun.,  J. Phys. Chem. Lett. 11, 8208-8215 (2020)
[ 2]  J. W. Furness, A. D. Kaplan, J. Ning, J. P. Perdew, and J. Sun.,  J. Phys. Chem. Lett. 11, 9248-9248 (2020)
Using LibXC functional ID 498 : Re-regularized SCAN correlation by Furness et al
[ 1]  J. W. Furness, A. D. Kaplan, J. Ning, J. P. Perdew, and J. Sun.,  J. Phys. Chem. Lett. 11, 8208-8215 (2020)
[ 2]  J. W. Furness, A. D. Kaplan, J. Ning, J. P. Perdew, and J. Sun.,  J. Phys. Chem. Lett. 11, 9248-9248 (2020)
Using LibXC functional ID 497 : Re-regularized SCAN exchange by Furness et al
[ 1]  J. W. Furness, A. D. Kaplan, J. Ning, J. P. Perdew, and J. Sun.,  J. Phys. Chem. Lett. 11, 8208-8215 (2020)
[ 2]  J. W. Furness, A. D. Kaplan, J. Ning, J. P. Perdew, and J. Sun.,  J. Phys. Chem. Lett. 11, 9248-9248 (2020)
Using LibXC functional ID 498 : Re-regularized SCAN correlation by Furness et al
[ 1]  J. W. Furness, A. D. Kaplan, J. Ning, J. P. Perdew, and J. Sun.,  J. Phys. Chem. Lett. 11, 8208-8215 (2020)
[ 2]  J. W. Furness, A. D. Kaplan, J. Ning, J. P. Perdew, and J. Sun.,  J. Phys. Chem. Lett. 11, 9248-9248 (2020)

================================================================================
                                       INPUT FILE
================================================================================
NAME = xtb_opt.inp
|  1> ! r2scan-3c def2/J RI DEFGRID2 scfconv7 ENGRAD tightSCF miniprint
|  2> %cpcm
|  3>     smd true
|  4>     smdsolvent "water"
|  5> end
|  6> * xyzfile 0 1 xtb_opt.xyz
|  7> 
|  8>                          ****END OF INPUT****
================================================================================

                     *******************************
                     * Energy+Gradient Calculation *
                     *******************************

---------------------------------
CARTESIAN COORDINATES (ANGSTROEM)
---------------------------------
  C     -2.964295   -0.920767    0.218271
  C     -2.514299    0.281505   -0.607914
  C     -1.240904    0.921401   -0.063817
  C     -0.014757    0.067311   -0.243524
  O      0.104643   -0.829739   -1.061198
  O      0.969448    0.440013    0.600171
  C      2.259086   -0.237321    0.465128
  C      3.085725    0.385344   -0.637400
  H     -3.868145   -1.372067   -0.202898
  H     -2.189517   -1.694343    0.251433
  H     -3.185888   -0.622831    1.248985
  H     -3.302672    1.041613   -0.610932
  H     -2.355353   -0.013381   -1.650931
  H     -1.342761    1.173818    0.997005
  H     -1.023904    1.864320   -0.584650
  H      2.729470   -0.101997    1.440895
  H      2.082714   -1.302535    0.295811
  H      3.220107    1.457058   -0.463075
  H      4.073593   -0.085931   -0.650822
  H      2.622211    0.239053   -1.616944

----------------------------
CARTESIAN COORDINATES (A.U.)
----------------------------
  NO LB      ZA    FRAG     MASS         X           Y           Z
   0 C     6.0000    0    12.011   -5.601706   -1.739998    0.412473
   1 C     6.0000    0    12.011   -4.751337    0.531968   -1.148791
   2 C     6.0000    0    12.011   -2.344968    1.741196   -0.120597
   3 C     6.0000    0    12.011   -0.027887    0.127200   -0.460194
   4 O     8.0000    0    15.999    0.197746   -1.567979   -2.005374
   5 O     8.0000    0    15.999    1.831992    0.831504    1.134158
   6 C     6.0000    0    12.011    4.269055   -0.448473    0.878964
   7 C     6.0000    0    12.011    5.831176    0.728195   -1.204512
   8 H     1.0000    0     1.008   -7.309734   -2.592830   -0.383421
   9 H     1.0000    0     1.008   -4.137587   -3.201844    0.475140
  10 H     1.0000    0     1.008   -6.020456   -1.176981    2.360240
  11 H     1.0000    0     1.008   -6.241145    1.968364   -1.154495
  12 H     1.0000    0     1.008   -4.450972   -0.025287   -3.119807
  13 H     1.0000    0     1.008   -2.537451    2.218195    1.884067
  14 H     1.0000    0     1.008   -1.934899    3.523055   -1.104829
  15 H     1.0000    0     1.008    5.157950   -0.192747    2.722896
  16 H     1.0000    0     1.008    3.935758   -2.461435    0.559001
  17 H     1.0000    0     1.008    6.085119    2.753441   -0.875085
  18 H     1.0000    0     1.008    7.697975   -0.162386   -1.229876
  19 H     1.0000    0     1.008    4.955260    0.451744   -3.055582

------------------------------------------------------------------------------
                   ___                                                        
                  /   \      - P O W E R E D   B Y -                         
                 /     \                                                     
                 |  |  |   _    _      __       _____    __    __             
                 |  |  |  | |  | |    /  \     |  _  \  |  |  /  |          
                  \  \/   | |  | |   /    \    | | | |  |  | /  /          
                 / \  \   | |__| |  /  /\  \   | |_| |  |  |/  /          
                |  |  |   |  __  | /  /__\  \  |    /   |      \           
                |  |  |   | |  | | |   __   |  |    \   |  |\   \          
                \     /   | |  | | |  |  |  |  | |\  \  |  | \   \       
                 \___/    |_|  |_| |__|  |__|  |_| \__\ |__|  \__/        
                                                                              
                      - O R C A' S   B I G   F R I E N D -                    
                                      &                                       
                       - I N T E G R A L  F E E D E R -                       
                                                                              
 v1 FN, 2020, v2 2021, v3 2022-2024                                           
------------------------------------------------------------------------------


----------------------
SHARK INTEGRAL PACKAGE
----------------------

Number of atoms                             ...     20
Number of basis functions                   ...    222
Number of shells                            ...    110
Maximum angular momentum                    ...      2
Integral batch strategy                     ... SHARK/LIBINT Hybrid
RI-J (if used) integral strategy            ... SPLIT-RIJ (Revised 2003 algorithm where possible)
Printlevel                                  ...      1
Contraction scheme used                     ... SEGMENTED contraction
Prescreening option                         ... SCHWARTZ
   Thresh                                   ... 3.000e-11
   Tcut                                     ... 1.000e-12
   Tpresel                                  ... 1.000e-12 
Coulomb Range Separation                    ... NOT USED
Exchange Range Separation                   ... NOT USED
Multipole approximations                    ... NOT USED
Finite Nucleus Model                        ... NOT USED
CABS basis                                  ... NOT available
Auxiliary Coulomb fitting basis             ... AVAILABLE
   # of basis functions in Aux-J            ...    524
   # of shells in Aux-J                     ...    180
   Maximum angular momentum in Aux-J        ...      4
Auxiliary J/K fitting basis                 ... NOT available
Auxiliary Correlation fitting basis         ... NOT available
Auxiliary 'external' fitting basis          ... NOT available

Checking pre-screening integrals            ... done (  0.0 sec) Dimension = 110
Check shell pair data                       ... done (  0.0 sec)
Shell pair information
Shell pair cut-off parameter TPreSel        ...   1.0e-12
Total number of shell pairs                 ...      6105
Shell pairs after pre-screening             ...      5342
Total number of primitive shell pairs       ...     21533
Primitive shell pairs kept                  ...     13439
          la=0 lb=0:   1791 shell pairs
          la=1 lb=0:   2014 shell pairs
          la=1 lb=1:    585 shell pairs
          la=2 lb=0:    575 shell pairs
          la=2 lb=1:    326 shell pairs
          la=2 lb=2:     51 shell pairs

Calculating one electron integrals          ... done (  0.0 sec)
Calculating RI/J V-Matrix + Cholesky decomp.... done (  0.2 sec)
Calculating Nuclear repulsion               ... done (  0.0 sec) ENN=    392.055643456389 Eh

Diagonalization of the overlap matrix:
Smallest eigenvalue                        ... 1.468e-04
Time for diagonalization                   ...    0.011 sec
Threshold for overlap eigenvalues          ... 1.000e-07
Number of eigenvalues below threshold      ... 0
Time for construction of square roots      ...    0.016 sec
Total time needed                          ...    0.088 sec

-------------------
DFT GRID GENERATION
-------------------

General Integration Accuracy     IntAcc      ... 4.388
Radial Grid Type                 RadialGrid  ... OptM3 with GC (2021)
Angular Grid (max. ang.)         AngularGrid ... 4 (Lebedev-302)
Angular grid pruning method      GridPruning ... 4 (adaptive)
Weight generation scheme         WeightScheme... mBecke (2022)
Basis function cutoff            BFCut       ... 1.0000e-11
Integration weight cutoff        WCut        ... 1.0000e-14
Partially contracted basis set               ... off
Rotationally invariant grid construction     ... off
Angular grids for H and He will be reduced by one unit
Diffuse basis detected: some atoms will have their outermost
                        angular grid increased by 1.

Total number of grid points                  ...    87443
Total number of batches                      ...     1373
Average number of points per batch           ...       63
Average number of grid points per atom       ...     4372
Initializing property integral containers    ... done (  0.0 sec)

SHARK setup successfully completed in   1.6 seconds

Maximum memory used throughout the entire STARTUP-calculation: 39.4 MB
Occupation numbers will be reassigned to an Aufbau configuration
             **** ENERGY FILE WAS UPDATED (xtb_opt.en.tmp) ****
Finished Guess after   1.3 sec
Maximum memory used throughout the entire GUESS-calculation: 15.2 MB
--------------------
CPCM SOLVATION MODEL
--------------------
CPCM parameters:
  Epsilon                                         ...      78.3550
  Refrac                                          ...       1.3328
  Rsolv                                           ...       1.3000
  Surface type                                    ... GAUSSIAN VDW
  Discretization scheme                           ... Constant charge density
    Threshold for H atoms                         ...       5.0000 (charges/Ang^2)
    Threshold for non-H atoms                     ...       5.0000 (charges/Ang^2)
  Epsilon function type                           ...         CPCM
Solvent:                                          ... WATER
SMD-CDS solvent descriptors:
  Soln                                            ...       1.3328
  Soln25                                          ...       1.3323
  Sola                                            ...       0.0000
  Solb                                            ...       0.0000
  Solg                                            ...       0.0000
  Solc                                            ...       0.0000
  Solh                                            ...       0.0000
Radii:
  Scheme                                          ... Element-dependent radii
  Radius for C  used is    3.4960 Bohr (=   1.8500 Ang.)
  Radius for O  used is    2.8724 Bohr (=   1.5200 Ang.)
  Radius for H  used is    2.2677 Bohr (=   1.2000 Ang.)
Calculating surface                               ...        done! (  0.0s)
Cavity surface points                             ...         1508
Cavity Volume                                     ...     884.0670
Cavity Surface-area                               ...     590.8720
Calculating surface distance matrix               ...        done! (  0.0s)
Performing Cholesky decomposition & store         ...        done! (  0.1s)
Overall time for CPCM initialization              ...                 0.2s

----------------------------------------D-I-I-S--------------------------------------------
Iteration    Energy (Eh)           Delta-E    RMSDP     MaxDP     DIISErr   Damp  Time(sec)
-------------------------------------------------------------------------------------------
               ***  Starting incremental Fock matrix formation  ***
                              *** Initializing SOSCF ***
---------------------------------------S-O-S-C-F--------------------------------------
Iteration    Energy (Eh)           Delta-E    RMSDP     MaxDP     MaxGrad    Time(sec)
--------------------------------------------------------------------------------------
    1    -386.2574314007595717     0.00e+00  3.13e-05  7.15e-04  6.43e-05     3.7
               *** Restarting incremental Fock matrix formation ***
    2    -386.2574393540658662    -7.95e-06  1.30e-05  2.40e-04  6.58e-05     3.1
    3    -386.2574397228059411    -3.69e-07  7.05e-06  1.67e-04  9.21e-05     2.7
    4    -386.2574398379688887    -1.15e-07  5.13e-06  9.72e-05  8.07e-05     2.9
    5    -386.2574399270411618    -8.91e-08  2.36e-06  5.15e-05  3.51e-05     2.7
                 **** Energy Check signals convergence ****

               *****************************************************
               *                     SUCCESS                       *
               *           SCF CONVERGED AFTER   5 CYCLES          *
               *****************************************************


SMD CDS free energy correction energy :                 4.83435     Kcal/mol
Total Energy after SMD CDS correction =              -386.249735904 Eh
             **** ENERGY FILE WAS UPDATED (xtb_opt.en.tmp) ****

----------------
TOTAL SCF ENERGY
----------------

Total Energy       :       -386.24973590430983 Eh          -10510.38965 eV

Components:
Nuclear Repulsion  :        392.05564345638930 Eh           10668.37643 eV
Electronic Energy  :       -778.29748123908018 Eh          -21178.55116 eV
One Electron Energy:      -1301.69430589183298 Eh          -35420.90283 eV
Two Electron Energy:        523.39682465275280 Eh           14242.35167 eV
CPCM Dielectric    :         -0.01560214435026 Eh              -0.42456 eV
SMD CDS (Gcds)     :          0.00770402273134 Eh               0.20964 eV

Virial components:
Potential Energy   :       -770.69356143104187 Eh          -20971.63798 eV
Kinetic Energy     :        384.44382552673198 Eh           10461.24833 eV
Virial Ratio       :          2.00469746230182

DFT components:
N(Alpha)           :       31.999984425289 electrons
N(Beta)            :       31.999984425289 electrons
N(Total)           :       63.999968850578 electrons
E(X)               :      -52.036215247227 Eh       
E(C)               :       -2.035882133015 Eh       
E(XC)              :      -54.072097380241 Eh       

CPCM Solvation Model Properties:
Surface-charge          :         -0.04739823965845
Corrected charge        :         -0.00000000000000
Outlying charge corr.   :          0.00016884958759 Eh               0.00459 eV
Free-energy (cav+disp)  :          0.00770402273134 Eh               0.20964 eV

---------------
SCF CONVERGENCE
---------------

  Last Energy change         ...    8.9072e-08  Tolerance :   1.0000e-07
  Last MAX-Density change    ...    5.1471e-05  Tolerance :   1.0000e-07
  Last RMS-Density change    ...    2.3642e-06  Tolerance :   5.0000e-09
  Last DIIS Error            ...    8.6870e-04  Tolerance :   1.0000e-07
  Last Orbital Gradient      ...    3.5071e-05  Tolerance :   1.0000e-04
  Last Orbital Rotation      ...    5.7601e-05  Tolerance :   1.0000e-04


----------------
ORBITAL ENERGIES
----------------

  NO   OCC          E(Eh)            E(eV) 
   0   2.0000     -18.999508      -517.0029 
   1   2.0000     -18.945652      -515.5374 
   2   2.0000     -10.164582      -276.5923 
   3   2.0000     -10.084202      -274.4051 
   4   2.0000     -10.038154      -273.1520 
   5   2.0000     -10.027121      -272.8518 
   6   2.0000     -10.020196      -272.6634 
   7   2.0000     -10.013121      -272.4709 
   8   2.0000      -1.067379       -29.0449 
   9   2.0000      -0.983867       -26.7724 
  10   2.0000      -0.765762       -20.8374 
  11   2.0000      -0.731141       -19.8954 
  12   2.0000      -0.672504       -18.2998 
  13   2.0000      -0.613894       -16.7049 
  14   2.0000      -0.559921       -15.2362 
  15   2.0000      -0.513497       -13.9730 
  16   2.0000      -0.473358       -12.8807 
  17   2.0000      -0.455663       -12.3992 
  18   2.0000      -0.443229       -12.0609 
  19   2.0000      -0.419422       -11.4130 
  20   2.0000      -0.401762       -10.9325 
  21   2.0000      -0.382834       -10.4174 
  22   2.0000      -0.373782       -10.1711 
  23   2.0000      -0.357107        -9.7174 
  24   2.0000      -0.348812        -9.4917 
  25   2.0000      -0.337133        -9.1739 
  26   2.0000      -0.309780        -8.4296 
  27   2.0000      -0.306865        -8.3502 
  28   2.0000      -0.303347        -8.2545 
  29   2.0000      -0.300350        -8.1729 
  30   2.0000      -0.277998        -7.5647 
  31   2.0000      -0.252183        -6.8622 
  32   0.0000      -0.025228        -0.6865 
  33   0.0000       0.076677         2.0865 
  34   0.0000       0.086999         2.3674 
  35   0.0000       0.118302         3.2192 
  36   0.0000       0.128824         3.5055 
  37   0.0000       0.133553         3.6342 
  38   0.0000       0.138762         3.7759 
  39   0.0000       0.144197         3.9238 
  40   0.0000       0.154856         4.2139 
  41   0.0000       0.158755         4.3199 
  42   0.0000       0.177537         4.8310 
*Only the first 10 virtual orbitals were printed.
Total SCF time: 0 days 0 hours 0 min 15 sec 
Finished LeanSCF after  15.9 sec

Maximum memory used throughout the entire LEANSCF-calculation: 30.8 MB


-------------------------------------------------------------------------------
                          DFT DISPERSION CORRECTION                            
                                                                               
                                DFTD4 V3.4.0                                   
-------------------------------------------------------------------------------
-------------------------   ----------------
Dispersion correction           -0.005050219
-------------------------   ----------------

------------------   -----------------
gCP correction             0.011540962
------------------   -----------------

[...]
  Last RMS-Density change    ...    1.0850e-06  Tolerance :   5.0000e-09
  Last DIIS Error            ...    3.0176e-05  Tolerance :   1.0000e-07
  Last Orbital Gradient      ...    9.4802e-06  Tolerance :   1.0000e-04
  Last Orbital Rotation      ...    2.3520e-05  Tolerance :   1.0000e-04


----------------
ORBITAL ENERGIES
----------------

  NO   OCC          E(Eh)            E(eV) 
   0   2.0000     -18.999657      -517.0070 
   1   2.0000     -18.945259      -515.5267 
   2   2.0000     -10.164563      -276.5918 
   3   2.0000     -10.084333      -274.4087 
   4   2.0000     -10.038153      -273.1520 
   5   2.0000     -10.027303      -272.8568 
   6   2.0000     -10.020336      -272.6672 
   7   2.0000     -10.013219      -272.4735 
   8   2.0000      -1.067160       -29.0389 
   9   2.0000      -0.983516       -26.7628 
  10   2.0000      -0.765796       -20.8384 
  11   2.0000      -0.731112       -19.8946 
  12   2.0000      -0.672586       -18.3020 
  13   2.0000      -0.613946       -16.7063 
  14   2.0000      -0.560040       -15.2395 
  15   2.0000      -0.513180       -13.9643 
  16   2.0000      -0.473208       -12.8766 
  17   2.0000      -0.456034       -12.4093 
  18   2.0000      -0.442709       -12.0467 
  19   2.0000      -0.419459       -11.4141 
  20   2.0000      -0.402164       -10.9434 
  21   2.0000      -0.383243       -10.4286 
  22   2.0000      -0.373287       -10.1576 
  23   2.0000      -0.357080        -9.7167 
  24   2.0000      -0.348943        -9.4952 
  25   2.0000      -0.337065        -9.1720 
  26   2.0000      -0.309721        -8.4279 
  27   2.0000      -0.307063        -8.3556 
  28   2.0000      -0.303266        -8.2523 
  29   2.0000      -0.300493        -8.1768 
  30   2.0000      -0.278254        -7.5717 
  31   2.0000      -0.251925        -6.8552 
  32   0.0000      -0.025495        -0.6937 
  33   0.0000       0.076998         2.0952 
  34   0.0000       0.086386         2.3507 
  35   0.0000       0.118427         3.2226 
  36   0.0000       0.128682         3.5016 
  37   0.0000       0.134288         3.6541 
  38   0.0000       0.138936         3.7806 
  39   0.0000       0.143440         3.9032 
  40   0.0000       0.154784         4.2119 
  41   0.0000       0.159317         4.3352 
  42   0.0000       0.176535         4.8038 
*Only the first 10 virtual orbitals were printed.
Total SCF time: 0 days 0 hours 0 min 9 sec 
Finished LeanSCF after   9.8 sec

Maximum memory used throughout the entire LEANSCF-calculation: 30.7 MB


-------------------------------------------------------------------------------
                          DFT DISPERSION CORRECTION                            
                                                                               
                                DFTD4 V3.4.0                                   
-------------------------------------------------------------------------------
-------------------------   ----------------
Dispersion correction           -0.005060414
-------------------------   ----------------

------------------   -----------------
gCP correction             0.011541842
------------------   -----------------

-------------------------   --------------------
FINAL SINGLE POINT ENERGY      -386.243279712211
-------------------------   --------------------

------------------------------------------------------------------------------
                         ORCA SCF GRADIENT CALCULATION
------------------------------------------------------------------------------

Nuc. rep. gradient        (SHARK) ... done (  0.0 sec)
HCore & Overlap gradient  (SHARK) ... done (  0.3 sec)
Split-RIJ-J gradient      (SHARK) ... done (  1.5 sec)
XC gradient                       ... done (  5.4 sec)
CPCM gradient                     ... done (  0.9 sec)
SMD gradient                      ... done (  0.0 sec)
Dispersion correction             ... done (  0.0 sec)

-------------------
DISPERSION GRADIENT
-------------------

   1   C   :   -0.000074768   -0.000036567    0.000016055
   2   C   :   -0.000065084    0.000012974   -0.000018347
   3   C   :   -0.000053769    0.000048986    0.000002949
   4   C   :    0.000008800    0.000004455   -0.000002185
   5   O   :    0.000013640   -0.000044318   -0.000047846
   6   O   :    0.000052482    0.000011849    0.000033634
   7   C   :    0.000070467   -0.000016997    0.000021606
   8   C   :    0.000080021    0.000006896   -0.000015197
   9   H   :   -0.000029200   -0.000017610    0.000002525
  10   H   :   -0.000031398   -0.000023797    0.000003648
  11   H   :   -0.000032711   -0.000013096    0.000015540
  12   H   :   -0.000025919    0.000010413   -0.000005003
  13   H   :   -0.000022066   -0.000000141   -0.000014970
  14   H   :   -0.000016563    0.000023325    0.000014704
  15   H   :   -0.000016808    0.000033519   -0.000007888
  16   H   :    0.000024273   -0.000002504    0.000017458
  17   H   :    0.000025407   -0.000011297    0.000006729
  18   H   :    0.000032915    0.000011979   -0.000003838
  19   H   :    0.000028189    0.000001019   -0.000005970
  20   H   :    0.000032088    0.000000912   -0.000013605

Difference to translation invariance:
           :    0.0000000000    0.0000000000    0.0000000000

Difference to rotation invariance:
           :   -0.0000000000    0.0000000000    0.0000000000

Norm of the Dispersion gradient    ...    0.0002268040
RMS gradient                       ...    0.0000292803
MAX gradient                       ...    0.0000800211
gCP correction                   ... done

------------------
CARTESIAN GRADIENT
------------------

   1   C   :    0.000028152   -0.000042594   -0.000013004
   2   C   :   -0.000033434    0.000075799   -0.000016339
   3   C   :    0.000055167   -0.000049198   -0.000013637
   4   C   :   -0.000049879    0.000121191    0.000208587
   5   O   :   -0.000010801   -0.000216768   -0.000224518
   6   O   :   -0.000152461    0.000168558    0.000187985
   7   C   :    0.000198702   -0.000148199    0.000045432
   8   C   :    0.000070094   -0.000109014    0.000010360
   9   H   :   -0.000089588   -0.000033044   -0.000054649
  10   H   :    0.000007596   -0.000021945   -0.000010596
  11   H   :   -0.000018037    0.000007535    0.000067459
  12   H   :    0.000000178   -0.000001459   -0.000022802
  13   H   :    0.000036355   -0.000004574   -0.000062767
  14   H   :    0.000009274   -0.000000861    0.000060402
  15   H   :    0.000033892    0.000082668   -0.000015074
  16   H   :    0.000014527    0.000056918    0.000020968
  17   H   :    0.000009853   -0.000033272    0.000019693
  18   H   :    0.000034938    0.000162028   -0.000007038
  19   H   :   -0.000030713   -0.000001219   -0.000061027
  20   H   :   -0.000113814   -0.000012551   -0.000119434

Difference to translation invariance:
           :   -0.0000000000    0.0000000000    0.0000000000

Difference to rotation invariance:
           :    0.0000599999    0.0001020061   -0.0000374487

Norm of the Cartesian gradient     ...    0.0006645675
RMS gradient                       ...    0.0000857953
MAX gradient                       ...    0.0002245177

-------
TIMINGS
-------

Total SCF gradient time     ....        8.884 sec

Densities                   ....       0.001 sec  (  0.0%)
One electron gradient       ....       0.285 sec  (  3.2%)
RI-J Coulomb gradient       ....       1.535 sec  ( 17.3%)
XC gradient                 ....       5.363 sec  ( 60.4%)
CPCM gradient               ....       0.891 sec  ( 10.0%)
   A-Matrix (El+Nuc)        ....       0.075 sec  (  0.8%)
   Potential                ....       0.816 sec  (  9.2%)
SMD gradient                ....       0.011 sec  (  0.1%)

Maximum memory used throughout the entire SCFGRAD-calculation: 35.4 MB

------------------------------------------------------------------------------
                              ORCA PROPERTY CALCULATIONS
------------------------------------------------------------------------------

GBWName                                 ... xtb_opt.gbw
Number of atoms                         ...     20
Number of basis functions               ...    222
Max core memory                         ...   1024 MB

Electric properties:
Dipole moment                           ... YES
Quadrupole moment                       ...  NO
Static polarizability (Dipole/Dipole)   ...  NO
Static polarizability (Dipole/Quad.)    ...  NO
Static polarizability (Quad./Quad.)     ...  NO
Static polarizability (Velocity)        ...  NO

Atomic electric properties:
Dipole moment                           ...  NO
Quadrupole moment                       ...  NO
Static polarizability                   ...  NO

Choice of electric origin               ... Center of mass
Position of electric origin             ...    -0.034021     0.004881    -0.313092

General magnetic properties:
Magnetizability                         ...  NO

EPR properties:
g-Tensor (aka g-matrix)                 ...  NO
Zero-Field splitting spin-orbit         ...  NO
Zero-field splitting spin-spin          ...  NO
Hyperfine couplings                     ...  NO (   0 nuclei)
Quadrupole couplings                    ...  NO (   0 nuclei)
Contact density                         ...  NO (   0 nuclei)

NMR properties:
Chemical shifts                         ...  NO (   0 nuclei)
Spin-rotation constants                 ...  NO (   0 nuclei)
Spin-spin couplings                     ...  NO (   0 nuclei,    0 pairs)

Choice of magnetic origin               ... GIAO
Position of magnetic origin             ...     0.000000     0.000000     0.000000

Properties with geometric perturbations:
SCF Hessian                             ...  NO
IR spectrum                             ...  NO
VCD spectrum                            ...  NO
X-ray spectroscopy properties:
SCF XES/XAS/RIXS spectra                ...  NO


-------------
DIPOLE MOMENT
-------------

Method             : SCF
Type of density    : Electron Density
Multiplicity       :   1
Irrep              :   0
Energy             :  -386.2497611399373341 Eh
Relativity type    : 
Basis              : AO
                                X                 Y                 Z
Electronic contribution:      2.463125884       0.246832710       0.252709074
Nuclear contribution   :     -2.162565737       0.513496151       0.404350337
                        -----------------------------------------
Total Dipole Moment    :      0.300560147       0.760328861       0.657059412
                        -----------------------------------------
Magnitude (a.u.)       :      1.048886767
Magnitude (Debye)      :      2.666058286



--------------------
Rotational spectrum 
--------------------
 
Rotational constants in cm-1:             0.173605             0.031949             0.031306 
Rotational constants in MHz :          5204.554599           957.809133           938.522305 

Dipole components along the rotational axes: 
x,y,z [a.u.] :     0.361325    -0.970135     0.168658 
x,y,z [Debye]:     0.918416    -2.465887     0.428696 

 

Dipole moment calculation done in   0.0 sec 

Maximum memory used throughout the entire PROP-calculation: 13.9 MB

--------------------------------
SUGGESTED CITATIONS FOR THIS RUN
--------------------------------

Below you find a list of papers that are relevant to this ORCA run
We neither can nor want to force you to cite these papers, but we appreciate if you do
You receive ORCA, which is the product of decades of hard work by many enthusiastic individuals, for free
The only thing we kindly ask in return is that you cite our papers,
We deeply appreciate it, if you show your appreciation for ORCA by not just citing the generic ORCA reference.

Please note that relegating all ORCA citations to the supporting information does *not* help us.
SI sections are not indexed - citations you put there will not count into any citation statistics
But we need these citations in order to attract the funding resources that allow us to do what we are doing

Therefore, if you are a happy ORCA user, please consider citing a few of the papers listed below in the main body of your paper

In addition to the list printed below, the program has created the file xtb_opt.bibtex that contains the list in bibtex format
You can import this file easily into all common literature databanks and citation aid programs


List of essential papers. We consider these as the minimum necessary citations

  1. Neese,F.
     Software update: the ORCA program system, version 5.0
     WIRES Comput. Molec. Sci., 2022 12(1)e1606
     doi.org/10.1002/wcms.1606
  2. Grimme,S.; Hansen,A.; Ehlert,S.; Mewes,J.
     r2SCAN-3c: A 'Swiss army knife' composite electronic-structure method
     J. Chem. Phys., 2021 154 064103
     doi.org/10.1063/5.0040021

List of papers to cite with high priority. The work reported in these papers was absolutely
necessary for this run to complete.
Our perspective: the developers of density functionals and basis sets usually get cited in chemistry papers
Good! But without the algorithms to do something with them, the functionals or basis sets would not do anything.
Hence, in our opinion, the algorithm design and method developments papers are equally worthy of getting cited

  1. Neese,F.
     An improvement of the resolution of the identity approximation for the formation of the Coulomb matrix
     J. Comp. Chem., 2003 24(14)1740-1747
     doi.org/10.1002/jcc.10318
  2. Garcia-Rates,M.; Neese,F.
     Effect of the Solute Cavity on the Solvation Energy and its Derivatives within the Framework of the Gaussian Charge Scheme
     J. Comput. Chem., 2020 41 922-939
     doi.org/10.1002/jcc.26139
  3. Neese,F.
     The SHARK Integral Generation and Digestion System
     J. Comp. Chem., 2022  1-16
     doi.org/10.1002/jcc.26942
  4. Lehtola,S.; Steigemann,C.; Oliveira,M.; Marques,M.
     Recent developments in Libxc - A comprehensive library of functionals for density functional theory
     Software X, 2018 7 
     doi.org/10.1016/j.softx.2017.11.002
  5. Caldeweyher,E.; Bannwarth,C.; Grimme,S.
     Extension of the D3 dispersion coefficient model
     J. Chem. Phys., 2017 147 034112-XXXX
     doi.org/10.1063/1.4993215
  6. Caldeweyher,E.; Ehlert,S.; Hansen,A.; Neugebauer,H.; Spicher,S.; Bannwarth,C.; Grimme,S.
     A generally applicable atomic-charge dependent London dispersion correction
     J. Chem. Phys., 2019 150 154122-XXXX
     doi.org/10.1063/1.5090222
  7. Caldeweyher,E.; Mewes,J.; Ehlert,S.; Grimme,S.
     Extension and evaluation of the D4 London-dispersion model for periodic systems
     Phys. Chem. Chem. Phys., 2020 22(16)8499-8512
     doi.org/10.1039/D0CP00502A

List of suggested additional citations. These are papers that are important in the 'surrounding' of 
of this run, or papers that preceded the highly important papers. If you like your results we are grateful for a citation.

  1. Neese,F.
     The ORCA program system
     WIRES Comput. Molec. Sci., 2012 2(1)73-78
     doi.org/10.1002/wcms.81
  2. Neese,F.
     Software update: the ORCA program system, version 4.0
     WIRES Comput. Molec. Sci., 2018 8(1)1-6
     doi.org/10.1002/wcms.1327
  3. Neese,F.; Wennmohs,F.; Becker,U.; Riplinger,C.
     The ORCA quantum chemistry program package
     J. Chem. Phys., 2020 152 Art. No. L224108
     doi.org/10.1063/5.0004608

List of optional additional citations

  1. Neese,F.
     Approximate second-order SCF convergence for spin unrestricted wavefunctions
     Chem. Phys. Lett., 2000 325(1-3)93-98
     doi.org/10.1016/s0009-2614(00)00662-x

Timings for individual modules:

Sum of individual times          ...       21.943 sec (=   0.366 min)
Startup calculation              ...        1.680 sec (=   0.028 min)   7.7 %
SCF iterations                   ...       11.154 sec (=   0.186 min)  50.8 %
Property calculations            ...        0.113 sec (=   0.002 min)   0.5 %
SCF Gradient evaluation          ...        8.997 sec (=   0.150 min)  41.0 %
                             ****ORCA TERMINATED NORMALLY****
TOTAL RUN TIME: 0 days 0 hours 0 minutes 23 seconds 582 msec
  ------------------------------------------------------------------------
          * successful ORCA run, taking over control again...

         :::::::::::::::::::::::::::::::::::::::::::::::::::::
         ::                  ORCA SUMMARY                   ::
         :::::::::::::::::::::::::::::::::::::::::::::::::::::
         :: total energy            -386.243279712211 Eh    ::
         :: gradient norm              0.000664567519 Eh/a0 ::
         :: HOMO-LUMO gap              0.000000000000 eV    ::
         :::::::::::::::::::::::::::::::::::::::::::::::::::::

           -------------------------------------------------
          |                Property Printout                |
           -------------------------------------------------
           -------------------------------------------------
          |                Geometry Summary                 |
           -------------------------------------------------

      molecular mass/u    :      116.1585142
   center of mass at/Å    :       -0.0179952       0.0025802      -0.1656823
  moments of inertia/u·Å² :        0.9710191E+02   0.5276266E+03   0.5384708E+03
rotational constants/cm⁻¹ :        0.1736076E+00   0.3194993E-01   0.3130649E-01

 * 17 selected distances

     #   Z          #   Z                                           value/Å
     1   6 C        2   6 C                                       1.5263269 (max)
     2   6 C        3   6 C                                       1.5259576
     4   6 C        5   8 O                                       1.2199663
     4   6 C        6   8 O                                       1.3490454
     7   6 C        8   6 C                                       1.5115773
     1   6 C        9   1 H                                       1.0945803
     1   6 C       10   1 H                                       1.0953547
     1   6 C       11   1 H                                       1.0956338
     2   6 C       12   1 H                                       1.0951506
     2   6 C       13   1 H                                       1.0955472
     3   6 C       14   1 H                                       1.0949271
     3   6 C       15   1 H                                       1.0990442
     7   6 C       16   1 H                                       1.0915894 (min)
     7   6 C       17   1 H                                       1.0928437
     8   6 C       18   1 H                                       1.0940766
     8   6 C       19   1 H                                       1.0946004
     8   6 C       20   1 H                                       1.0934633

 * 3 distinct bonds (by element types)

   Z      Z             #   av. dist./Å        max./Å        min./Å
   1 H    6 C          12     1.0947343     1.0990442     1.0915894
   6 C    6 C           3     1.5212873     1.5263269     1.5115773
   6 C    8 O           2     1.2845058     1.3490454     1.2199663


optimized geometry written to: xtbopt.coord


           -------------------------------------------------
          | TOTAL ENERGY             -386.243279712211 Eh   |
          | GRADIENT NORM               0.000664567519 Eh/α |
           -------------------------------------------------

------------------------------------------------------------------------
 * finished run on 2025/04/11 at 17:22:53.113     
------------------------------------------------------------------------
 total:
 * wall-time:     0 d,  0 h,  3 min, 15.693 sec
 *  cpu-time:     0 d,  0 h,  0 min,  2.035 sec
 * ratio c/w:     0.010 speedup
 SCF:
 * wall-time:     0 d,  0 h,  0 min, 23.328 sec
 *  cpu-time:     0 d,  0 h,  0 min,  0.177 sec
 * ratio c/w:     0.008 speedup
 ANC optimizer:
 * wall-time:     0 d,  0 h,  2 min, 52.306 sec
 *  cpu-time:     0 d,  0 h,  0 min,  1.824 sec
 * ratio c/w:     0.011 speedup

