20
 energy: -386.243232704194 gnorm: 0.002464624963 xtb: 6.7.1 (edcfbbe)
C           -2.96574302585893       -0.92074513154674        0.21855203906982
C           -2.51464446545129        0.28185932689601       -0.60757065240963
C           -1.24109267217673        0.92104278750087       -0.06268197387498
C           -0.01463857990242        0.06717867390841       -0.24447217818921
O            0.10328406382642       -0.83084903169032       -1.06202847760376
O            0.97034728211139        0.44100318588596        0.59791687791615
C            2.25914521819064       -0.23680562958675        0.46496768385865
C            3.08749187179273        0.38544404802742       -0.63798665205280
H           -3.86863395630094       -1.37325373922291       -0.20446963061374
H           -2.19018968909236       -1.69354451497128        0.25369716528766
H           -3.18944604959462       -0.62252227111036        1.24903454696284
H           -3.30289477141838        1.04204378119121       -0.61167228048943
H           -2.35481751667451       -0.01319549422151       -1.65065669602599
H           -1.34185089931400        1.17145707956984        0.99900253474110
H           -1.02394957739297        1.86506607180256       -0.58206558418947
H            2.72817776826588       -0.10168902660314        1.44165915065492
H            2.08271010428187       -1.30212919944766        0.29460173513268
H            3.22004102961041        1.45853502680688       -0.46518953937023
H            4.07591711704075       -0.08464539062367       -0.64836671103444
H            2.62528758906783        0.23627431142885       -1.61868012792537
20
 energy: -386.243245160833 gnorm: 0.001060142840 xtb: 6.7.1 (edcfbbe)
C           -2.96429531944780       -0.92076744062028        0.21827105453058
C           -2.51429930799096        0.28150537050296       -0.60791420893829
C           -1.24090382681667        0.92140137118759       -0.06381701592727
C           -0.01475694062944        0.06731127163743       -0.24352431962441
O            0.10464257434659       -0.82973890793463       -1.06119832417194
O            0.96944834509948        0.44001282204999        0.60017071273570
C            2.25908640330134       -0.23732145183325        0.46512761984705
C            3.08572547388551        0.38534418241880       -0.63740042166652
H           -3.86814479082213       -1.37206663033733       -0.20289780923063
H           -2.18951679408877       -1.69434269389639        0.25143307941030
H           -3.18588787289655       -0.62283149842303        1.24898529149464
H           -3.30267161213857        1.04161338878952       -0.61093247262067
H           -2.35535300496473       -0.01338137079418       -1.65093096647234
H           -1.34276123888336        1.17381838166665        0.99700521907478
H           -1.02390439846840        1.86432035328333       -0.58465012048548
H            2.72946950315444       -0.10199733453208        1.44089460396099
H            2.08271355475160       -1.30253512276467        0.29581081664367
H            3.22010653267523        1.45705842213221       -0.46307510476139
H            4.07359278564423       -0.08593081342884       -0.65082216183875
H            2.62221077351418        0.23905260291957       -1.61694428078964
20
 energy: -386.243258742121 gnorm: 0.001596544543 xtb: 6.7.1 (edcfbbe)
C           -2.95938569809478       -0.92140969617872        0.21778528150180
C           -2.51313110230852        0.28072783352169       -0.60878044493338
C           -1.23982848958452        0.92327523234921       -0.06750262778304
C           -0.01423895915860        0.06900779746994       -0.24227725022165
O            0.10790716976209       -0.82682749027701       -1.06034172685696
O            0.96710139323620        0.43684639500169        0.60678961938892
C            2.25873329715944       -0.23953619518992        0.46723403981282
C            3.07951366424174        0.38518592501563       -0.63573486056347
H           -3.86695824063298       -1.36949099929493       -0.19750997537855
H           -2.18653340635655       -1.69714978294143        0.24387210888197
H           -3.17319492591264       -0.62500230969753        1.25022757395839
H           -3.30229628150014        1.04011541696368       -0.60891680853337
H           -2.35690997261328       -0.01325826523101       -1.65214707786225
H           -1.34373206381979        1.18258452654348        0.99104012296275
H           -1.02303108861617        1.86248582966296       -0.59422360940061
H            2.73159162474081       -0.10351339985564        1.44140351190648
H            2.08218976477149       -1.30461421177201        0.29993805069821
H            3.22065291382239        1.45397866294239       -0.45572398529606
H            4.06525487069860       -0.09066833080382       -0.65856997294733
H            2.61079628167839        0.24778826631814       -1.61297098803573
20
 energy: -386.243268518105 gnorm: 0.001579878647 xtb: 6.7.1 (edcfbbe)
C           -2.95582122987181       -0.92202552300360        0.21793613896561
C           -2.51263893228210        0.28081868308634       -0.60949881181202
C           -1.23899455450625        0.92492537702842       -0.07034746834952
C           -0.01477369140366        0.06824236373992       -0.24098503618270
O            0.10963839542053       -0.82449876916830       -1.06243611208757
O            0.96491433172440        0.43367394215914        0.61145639064254
C            2.25792293154138       -0.24103740126400        0.46954459621208
C            3.07594385109973        0.38534620576527       -0.63454300790458
H           -3.86639278912272       -1.36846525439363       -0.19305773411231
H           -2.18389378771575       -1.69885229545966        0.23871374853140
H           -3.16345985745975       -0.62696995149399        1.25218685410871
H           -3.30254582456612        1.03941375164323       -0.60821595975878
H           -2.35797887108562       -0.01284765373185       -1.65327649898067
H           -1.34302518000796        1.18908000390968        0.98707120895995
H           -1.02119129054307        1.86159889079813       -0.60157719410504
H            2.73141102412961       -0.10441149943783        1.44344304168052
H            2.08183715426866       -1.30627879817952        0.30220366135119
H            3.22164201496451        1.45327172058009       -0.45063025938690
H            4.05989585660646       -0.09381443395506       -0.66397854167331
H            2.60201106867542        0.25335610311359       -1.61041831366383
20
 energy: -386.243275330948 gnorm: 0.001589793413 xtb: 6.7.1 (edcfbbe)
C           -2.94790137636297       -0.92384070876325        0.21939119792263
C           -2.51238638809118        0.28104533836050       -0.61011390883384
C           -1.23754578648507        0.92884342590868       -0.07724404836034
C           -0.01377974949306        0.07054344618708       -0.24409181614832
O            0.11244153589833       -0.81982169695037       -1.06853926597546
O            0.96024119482924        0.42757928937982        0.61902339900008
C            2.25459995472923       -0.24485572276404        0.47505175977855
C            3.06935044554083        0.38564873447759       -0.63052848079368
H           -3.86497445098744       -1.36716404381787       -0.18183584108585
H           -2.17717331374121       -1.70225027298951        0.22775773707466
H           -3.14155909612374       -0.63168709820425        1.25767529636390
H           -3.30442894541037        1.03737946719381       -0.60549384594694
H           -2.36140230290180       -0.01213410363280       -1.65486806441002
H           -1.33976297307939        1.20368196470223        0.97794045554114
H           -1.01894049494913        1.85986451531586       -0.61908301761272
H            2.72881326901958       -0.10849282772761        1.44884960641429
H            2.08036304922423       -1.31030682985248        0.30535956364597
H            3.22457106518271        1.45184675876673       -0.43852815820426
H            4.04918384296960       -0.10090803268227       -0.67333562549239
H            2.58479046061562        0.26555488750153       -1.60379748170843
20
 energy: -386.243279684766 gnorm: 0.000679244812 xtb: 6.7.1 (edcfbbe)
C           -2.94670069799785       -0.92387495705743        0.22051152432313
C           -2.51285746751696        0.28110127715605       -0.60984131116530
C           -1.23769426964895        0.92956347988960       -0.07880287623256
C           -0.01432556857863        0.07023622872493       -0.24510691849965
O            0.11229854048649       -0.81819331522305       -1.07153101142200
O            0.95947650483284        0.42659102293700        0.61782057881158
C            2.25311826848239       -0.24541101255098        0.47502099018522
C            3.06975848919433        0.38593022550248       -0.62923099894487
H           -3.86421937375329       -1.36736213318492       -0.17896877566390
H           -2.17580044120542       -1.70199402523273        0.22723317305657
H           -3.13852933731108       -0.63184628534811        1.25894022872769
H           -3.30532961685789        1.03695436660510       -0.60448860877977
H           -2.36304092681457       -0.01262071481518       -1.65459287182219
H           -1.33870309425011        1.20532550965626        0.97600405834071
H           -1.01956842139794        1.85986385706479       -0.62181332155883
H            2.72659529259581       -0.11042748929372        1.44927261053144
H            2.07984575787738       -1.31077739524190        0.30391207181031
H            3.22507107238991        1.45163509621255       -0.43647565417470
H            4.04907580261017       -0.10119363327490       -0.67163182849630
H            2.58602904690032        0.26702674987370       -1.60264232995381
20
 energy: -386.243279684766 gnorm: 0.000679244812 xtb: 6.7.1 (edcfbbe)
C           -2.94670069799785       -0.92387495705743        0.22051152432313
C           -2.51285746751696        0.28110127715605       -0.60984131116530
C           -1.23769426964895        0.92956347988960       -0.07880287623256
C           -0.01432556857863        0.07023622872493       -0.24510691849965
O            0.11229854048649       -0.81819331522305       -1.07153101142200
O            0.95947650483284        0.42659102293700        0.61782057881158
C            2.25311826848239       -0.24541101255098        0.47502099018522
C            3.06975848919433        0.38593022550248       -0.62923099894487
H           -3.86421937375329       -1.36736213318492       -0.17896877566390
H           -2.17580044120542       -1.70199402523273        0.22723317305657
H           -3.13852933731108       -0.63184628534811        1.25894022872769
H           -3.30532961685789        1.03695436660510       -0.60448860877977
H           -2.36304092681457       -0.01262071481518       -1.65459287182219
H           -1.33870309425011        1.20532550965626        0.97600405834071
H           -1.01956842139794        1.85986385706479       -0.62181332155883
H            2.72659529259581       -0.11042748929372        1.44927261053144
H            2.07984575787738       -1.31077739524190        0.30391207181031
H            3.22507107238991        1.45163509621255       -0.43647565417470
H            4.04907580261017       -0.10119363327490       -0.67163182849630
H            2.58602904690032        0.26702674987370       -1.60264232995381
