
                                 *****************
                                 * O   R   C   A *
                                 *****************

                                            #,                                       
                                            ###                                      
                                            ####                                     
                                            #####                                    
                                            ######                                   
                                           ########,                                 
                                     ,,################,,,,,                         
                               ,,#################################,,                 
                          ,,##########################################,,             
                       ,#########################################, ''#####,          
                    ,#############################################,,   '####,        
                  ,##################################################,,,,####,       
                ,###########''''           ''''###############################       
              ,#####''   ,,,,##########,,,,          '''####'''          '####       
            ,##' ,,,,###########################,,,                        '##       
           ' ,,###''''                  '''############,,,                           
         ,,##''                                '''############,,,,        ,,,,,,###''
      ,#''                                            '''#######################'''  
     '                                                          ''''####''''         
             ,#######,   #######,   ,#######,      ##                                
            ,#'     '#,  ##    ##  ,#'     '#,    #''#        ,####,   ,####,        
            ##       ##  ##   ,#'  ##            #'  '#       #'       #'  '#        
            ##       ##  #######   ##           ,######,      #####,   #    #        
            '#,     ,#'  ##    ##  '#,     ,#' ,#      #,     #,   #   #,  ,#        
             '#######'   ##     ##  '#######'  #'      '#     '####' # '####'        



                #########################################################
                #                        -***-                          #
                #          Department of theory and spectroscopy        #
                #                                                       #
                #                      Frank Neese                      #
                #                                                       #
                #     Directorship, Architecture, Infrastructure        #
                #                    SHARK, DRIVERS                     #
                #        Core code/Algorithms in most modules           #
                #                                                       #
                #        Max Planck Institute fuer Kohlenforschung      #
                #                Kaiser Wilhelm Platz 1                 #
                #                 D-45470 Muelheim/Ruhr                 #
                #                      Germany                          #
                #                                                       #
                #                  All rights reserved                  #
                #                        -***-                          #
                #########################################################


                         Program Version 6.0.0  -   RELEASE  -


 With contributions from (in alphabetic order):
   Daniel Aravena         : Magnetic Suceptibility
   Michael Atanasov       : Ab Initio Ligand Field Theory (pilot matlab implementation)
   Alexander A. Auer      : GIAO ZORA, VPT2 properties, NMR spectrum
   Ute Becker             : All parallelization in ORCA, NUMFREQ, NUMCALC
   Giovanni Bistoni       : ED, misc. LED, open-shell LED, HFLD
   Martin Brehm           : Molecular dynamics
   Dmytro Bykov           : pre 5.0 version of the SCF Hessian
   Marcos Casanova-Páez   : Triplet and SCS-CIS(D). UHF-(DLPNO)-IP/EA/STEOM-CCSD. UHF-CVS-IP/STEOM-CCSD
   Vijay G. Chilkuri      : MRCI spin determinant printing, contributions to CSF-ICE
   Pauline Colinet        : FMM embedding
   Dipayan Datta          : RHF DLPNO-CCSD density
   Achintya Kumar Dutta   : EOM-CC, STEOM-CC
   Nicolas Foglia         : Exact transition moments, OPA infrastructure, MCD improvements
   Dmitry Ganyushin       : Spin-Orbit,Spin-Spin,Magnetic field MRCI
   Miquel Garcia          : C-PCM and meta-GGA Hessian, CCSD/C-PCM, Gaussian charge scheme
   Tiago L. C. Gouveia    : GS-ROHF, GS-ROCIS
   Yang Guo               : DLPNO-NEVPT2, F12-NEVPT2, CIM, IAO-localization
   Andreas Hansen         : Spin unrestricted coupled pair/coupled cluster methods
   Ingolf Harden          : AUTO-CI MPn and infrastructure 
   Benjamin Helmich-Paris : MC-RPA, TRAH-(SCF,CASSCF), AVAS, COSX integrals, SCF dyn. polar.
   Lee Huntington         : MR-EOM, pCC
   Robert Izsak           : Overlap fitted RIJCOSX, COSX-SCS-MP3, EOM
   Riya Kayal             : Wick's Theorem for AUTO-CI, AUTO-CI UHF-CCSDT
   Emily Kempfer          : AUTO-CI, RHF CISDT and CCSDT
   Christian Kollmar      : KDIIS, OOCD, Brueckner-CCSD(T), CCSD density, CASPT2, CASPT2-K, improved NEVPT2
   Axel Koslowski         : Symmetry handling
   Simone Kossmann        : Meta GGA functionals, TD-DFT gradient, OOMP2, (MP2 Hessian; deprecated post 5.0)
   Lucas Lang             : DCDCAS
   Marvin Lechner         : AUTO-CI (C++ implementation), FIC-MRCC
   Spencer Leger          : CASSCF response
   Dagmar Lenk            : GEPOL surface, SMD, ORCA-2-JSON
   Dimitrios Liakos       : Extrapolation schemes; Compound Job, initial MDCI parallelization
   Dimitrios Manganas     : Further ROCIS development; embedding schemes. LFT, Crystal Embedding
   Dimitrios Pantazis     : SARC Basis sets
   Anastasios Papadopoulos: AUTO-CI, single reference methods and gradients
   Taras Petrenko         : pre 6.0 DFT Hessian and TD-DFT gradient, (ASA, deprecated), ECA, 1-Electron XAS/XES, NRVS
   Peter Pinski           : DLPNO-MP2, DLPNO-MP2 Gradient
   Christoph Reimann      : Effective Core Potentials
   Marius Retegan         : Local ZFS, SOC
   Christoph Riplinger    : Optimizer, TS searches, QM/MM, DLPNO-CCSD(T), (RO)-DLPNO pert. Triples
   Michael Roemelt        : Original ROCIS implementation
   Masaaki Saitow         : Open-shell DLPNO-CCSD energy and density
   Barbara Sandhoefer     : DKH picture change effects
   Kantharuban Sivalingam : CASSCF convergence/infrastructure, NEVPT2 and variants, FIC-MRCI
   Bernardo de Souza      : ESD, SOC TD-DFT
   Georgi Stoychev        : AutoAux, RI-MP2 NMR, DLPNO-MP2 response, X2C
   Van Anh Tran           : RI-MP2 g-tensors
   Willem Van den Heuvel  : Paramagnetic NMR
   Zikuan Wang            : NOTCH, Electric field optimization 
   Frank Wennmohs         : Technical directorship and infrastructure
   Hang Xu                : AUTO-CI-Response properties 


 We gratefully acknowledge several colleagues who have allowed us to
 interface, adapt or use parts of their codes:
   Stefan Grimme, W. Hujo, H. Kruse, P. Pracht,  : VdW corrections, initial TS optimization,
                  C. Bannwarth, S. Ehlert,         DFT functionals, gCP, sTDA/sTD-DF
                  L. Wittmann, M. Mueller
   Ed Valeev, F. Pavosevic, A. Kumar             : LibInt (2-el integral package), F12 methods
   Garnet Chan, S. Sharma, J. Yang, R. Olivares  : DMRG
   Ulf Ekstrom                                   : XCFun DFT Library
   Mihaly Kallay                                 : mrcc  (arbitrary order and MRCC methods)
   Frank Weinhold                                : gennbo (NPA and NBO analysis)
   Simon Mueller                                 : openCOSMO-RS
   Christopher J. Cramer and Donald G. Truhlar   : smd solvation model
   Lars Goerigk                                  : TD-DFT with DH, B97 family of functionals
   V. Asgeirsson, H. Jonsson                     : NEB implementation
   FAccTs GmbH                                   : IRC, NEB, NEB-TS, DLPNO-Multilevel, CI-OPT
                                                   MM, QMMM, 2- and 3-layer-ONIOM, Crystal-QMMM,
                                                   LR-CPCM, SF, NACMEs, symmetry and pop. for TD-DFT,
                                                   nearIR, NL-DFT gradient (VV10), updates on ESD,
                                                   ML-optimized integration grids, MBIS, APM,
                                                   GOAT, DOCKER, SOLVATOR, interface openCOSMO-RS
   S Lehtola, MJT Oliveira, MAL Marques          : LibXC Library
   Liviu Ungur et al                             : ANISO software


 Your calculation uses the libint2 library for the computation of 2-el integrals
 For citations please refer to: http://libint.valeyev.net

 Your ORCA version has been built with support for libXC version: 6.2.2
 For citations please refer to: https://libxc.gitlab.io

 This ORCA versions uses:
   CBLAS   interface :  Fast vector & matrix operations
   LAPACKE interface :  Fast linear algebra routines
   SCALAPACK package :  Parallel linear algebra routines
   Shared memory     :  Shared parallel matrices
   BLAS/LAPACK       :  OpenBLAS 0.3.27  USE64BITINT DYNAMIC_ARCH NO_AFFINITY SkylakeX SINGLE_THREADED
        Core in use  :  SkylakeX
   Copyright (c) 2011-2014, The OpenBLAS Project


Your calculation utilizes the geometrical counterpoise correction gCP
Please cite in your paper:
H.Kruse, S. Grimme J.Chem.Phys., 136, (2012), 154101 
   

Your calculation utilizes the atom-pairwise dispersion correction
based on EEQ partial charges (D4)


Your calculation utilizes the SMD solvation module
Please cite in your paper:
A.V. Marenich, C.J. Cramer, D.G. Truhlar J. Phys. Chem. B, 113, (2009), 6378 

================================================================================

----- Orbital basis set information -----
Your calculation utilizes the basis: def2-mTZVPP
   Stefan Grimme, Andreas Hansen, Sebastian Ehlert, and Jan-Michael Mewes 
   J. Chem. Phys. 154, 064103 (2021). DOI: 10.1063/5.0040021

----- AuxJ basis set information -----
Your calculation utilizes the auxiliary basis: def2/J
   F. Weigend, Phys. Chem. Chem. Phys. 8, 1057 (2006).

================================================================================
                                        WARNINGS
                       Please study these warnings very carefully!
================================================================================

Using LibXC functional ID 497 : Re-regularized SCAN exchange by Furness et al
[ 1]  J. W. Furness, A. D. Kaplan, J. Ning, J. P. Perdew, and J. Sun.,  J. Phys. Chem. Lett. 11, 8208-8215 (2020)
[ 2]  J. W. Furness, A. D. Kaplan, J. Ning, J. P. Perdew, and J. Sun.,  J. Phys. Chem. Lett. 11, 9248-9248 (2020)
Using LibXC functional ID 498 : Re-regularized SCAN correlation by Furness et al
[ 1]  J. W. Furness, A. D. Kaplan, J. Ning, J. P. Perdew, and J. Sun.,  J. Phys. Chem. Lett. 11, 8208-8215 (2020)
[ 2]  J. W. Furness, A. D. Kaplan, J. Ning, J. P. Perdew, and J. Sun.,  J. Phys. Chem. Lett. 11, 9248-9248 (2020)
Using LibXC functional ID 497 : Re-regularized SCAN exchange by Furness et al
[ 1]  J. W. Furness, A. D. Kaplan, J. Ning, J. P. Perdew, and J. Sun.,  J. Phys. Chem. Lett. 11, 8208-8215 (2020)
[ 2]  J. W. Furness, A. D. Kaplan, J. Ning, J. P. Perdew, and J. Sun.,  J. Phys. Chem. Lett. 11, 9248-9248 (2020)
Using LibXC functional ID 498 : Re-regularized SCAN correlation by Furness et al
[ 1]  J. W. Furness, A. D. Kaplan, J. Ning, J. P. Perdew, and J. Sun.,  J. Phys. Chem. Lett. 11, 8208-8215 (2020)
[ 2]  J. W. Furness, A. D. Kaplan, J. Ning, J. P. Perdew, and J. Sun.,  J. Phys. Chem. Lett. 11, 9248-9248 (2020)

================================================================================
                                       INPUT FILE
================================================================================
NAME = sp_solv.inp
|  1> ! r2scan-3c def2/J RI DEFGRID2 scfconv6 printgap
|  2> %output
|  3>     printlevel normal
|  4> end
|  5> %cpcm
|  6>     smd true
|  7>     smdsolvent "water"
|  8> end
|  9> * xyz 0 1
| 10> C 2.0343822535 -0.6279574051 -0.1509214131
| 11> C 1.1158814735 0.3364204465 0.5923284201
| 12> C 0.0013520299 0.9066275669 -0.288275914
| 13> C -1.0897414034 -0.0998919214 -0.6589122403
| 14> N -1.9627989433 -0.3649325006 0.4792446172
| 15> H 2.8348450309 -0.9656004241 0.5030423808
| 16> H 1.4907121199 -1.5029513942 -0.4984746159
| 17> H 2.4790471585 -0.1373503668 -1.0138970364
| 18> H 0.6816879257 -0.1655677173 1.4590881769
| 19> H 1.7140170454 1.1693758927 0.9677943113
| 20> H -0.4795959988 1.734279858 0.2348030625
| 21> H 0.4428638483 1.2954318049 -1.2078146148
| 22> H -0.6286883694 -1.0132595618 -1.0692565078
| 23> H -1.7147243243 0.3338715768 -1.445142401
| 24> H -1.4284920883 -0.7942088099 1.2272663373
| 25> H -2.6858849691 -1.0221341354 0.2098910162
| 26> *
| 27> 
| 28>                          ****END OF INPUT****
================================================================================

                       ****************************
                       * Single Point Calculation *
                       ****************************

---------------------------------
CARTESIAN COORDINATES (ANGSTROEM)
---------------------------------
  C      2.034382   -0.627957   -0.150921
  C      1.115881    0.336420    0.592328
  C      0.001352    0.906628   -0.288276
  C     -1.089741   -0.099892   -0.658912
  N     -1.962799   -0.364933    0.479245
  H      2.834845   -0.965600    0.503042
  H      1.490712   -1.502951   -0.498475
  H      2.479047   -0.137350   -1.013897
  H      0.681688   -0.165568    1.459088
  H      1.714017    1.169376    0.967794
  H     -0.479596    1.734280    0.234803
  H      0.442864    1.295432   -1.207815
  H     -0.628688   -1.013260   -1.069257
  H     -1.714724    0.333872   -1.445142
  H     -1.428492   -0.794209    1.227266
  H     -2.685885   -1.022134    0.209891

----------------------------
CARTESIAN COORDINATES (A.U.)
----------------------------
  NO LB      ZA    FRAG     MASS         X           Y           Z
   0 C     6.0000    0    12.011    3.844425   -1.186668   -0.285200
   1 C     6.0000    0    12.011    2.108710    0.635743    1.119338
   2 C     6.0000    0    12.011    0.002555    1.713278   -0.544763
   3 C     6.0000    0    12.011   -2.059313   -0.188768   -1.245164
   4 N     7.0000    0    14.007   -3.709152   -0.689622    0.905641
   5 H     1.0000    0     1.008    5.357081   -1.824720    0.950612
   6 H     1.0000    0     1.008    2.817038   -2.840167   -0.941981
   7 H     1.0000    0     1.008    4.684720   -0.259555   -1.915988
   8 H     1.0000    0     1.008    1.288203   -0.312878    2.757277
   9 H     1.0000    0     1.008    3.239023    2.209800    1.828866
  10 H     1.0000    0     1.008   -0.906305    3.277314    0.443713
  11 H     1.0000    0     1.008    0.836891    2.448011   -2.282439
  12 H     1.0000    0     1.008   -1.188049   -1.914783   -2.020602
  13 H     1.0000    0     1.008   -3.240359    0.630926   -2.730923
  14 H     1.0000    0     1.008   -2.699459   -1.500837    2.319197
  15 H     1.0000    0     1.008   -5.075587   -1.931554    0.396637

--------------------------------
INTERNAL COORDINATES (ANGSTROEM)
--------------------------------
 C      0   0   0     0.000000000000     0.00000000     0.00000000
 C      1   0   0     1.525152004906     0.00000000     0.00000000
 C      2   1   0     1.530612960236   113.18551154     0.00000000
 C      3   2   1     1.530012302856   114.42911945    71.36915537
 N      4   3   2     1.458724445834   110.93633383    74.40881902
 H      1   2   3     1.087387745937   110.27840103   177.22844229
 H      1   2   3     1.087191300511   111.31720069   297.19391867
 H      1   2   3     1.087726560390   110.34245224    57.45499002
 H      2   1   3     1.091690720651   109.61442729   122.92474018
 H      2   1   3     1.092041928307   108.66260447   239.77022582
 H      3   2   1     1.090839555998   109.13624487   191.86019695
 H      3   2   1     1.091628528183   108.83295525   309.71873068
 H      4   3   2     1.102357820565   109.69303378   308.90975627
 H      4   3   2     1.094034866621   108.70213029   191.68557214
 H      5   4   3     1.014543473079   109.69097487   296.78088286
 H      5   4   3     1.013567339580   109.72114234   179.15342315

---------------------------
INTERNAL COORDINATES (A.U.)
---------------------------
 C      0   0   0     0.000000000000     0.00000000     0.00000000
 C      1   0   0     2.882119601873     0.00000000     0.00000000
 C      2   1   0     2.892439311876   113.18551154     0.00000000
 C      3   2   1     2.891304233928   114.42911945    71.36915537
 N      4   3   2     2.756589707482   110.93633383    74.40881902
 H      1   2   3     2.054865041203   110.27840103   177.22844229
 H      1   2   3     2.054493813147   111.31720069   297.19391867
 H      1   2   3     2.055505307730   110.34245224    57.45499002
 H      2   1   3     2.062996484973   109.61442729   122.92474018
 H      2   1   3     2.063660171260   108.66260447   239.77022582
 H      3   2   1     2.061388016884   109.13624487   191.86019695
 H      3   2   1     2.062878958241   108.83295525   309.71873068
 H      4   3   2     2.083154382454   109.69303378   308.90975627
 H      4   3   2     2.067426278874   108.70213029   191.68557214
 H      5   4   3     1.917209315077   109.69097487   296.78088286
 H      5   4   3     1.915364690093   109.72114234   179.15342315

---------------------
BASIS SET INFORMATION
---------------------
There are 3 groups of distinct atoms

 Group   1 Type C   : 11s6p1d contracted to 5s3p1d pattern {62111/411/1}
 Group   2 Type N   : 11s6p2d contracted to 5s3p2d pattern {62111/411/11}
 Group   3 Type H   : 4s1p contracted to 2s1p pattern {31/1}

Atom   0C    basis set group =>   1
Atom   1C    basis set group =>   1
Atom   2C    basis set group =>   1
Atom   3C    basis set group =>   1
Atom   4N    basis set group =>   2
Atom   5H    basis set group =>   3
Atom   6H    basis set group =>   3
Atom   7H    basis set group =>   3
Atom   8H    basis set group =>   3
Atom   9H    basis set group =>   3
Atom  10H    basis set group =>   3
Atom  11H    basis set group =>   3
Atom  12H    basis set group =>   3
Atom  13H    basis set group =>   3
Atom  14H    basis set group =>   3
Atom  15H    basis set group =>   3
---------------------------------
AUXILIARY/J BASIS SET INFORMATION
---------------------------------
There are 3 groups of distinct atoms

 Group   1 Type C   : 12s5p4d2f1g contracted to 6s4p3d1f1g pattern {711111/2111/211/2/1}
 Group   2 Type N   : 12s5p4d2f1g contracted to 6s4p3d1f1g pattern {711111/2111/211/2/1}
 Group   3 Type H   : 5s2p1d contracted to 3s1p1d pattern {311/2/1}

Atom   0C    basis set group =>   1
Atom   1C    basis set group =>   1
Atom   2C    basis set group =>   1
Atom   3C    basis set group =>   1
Atom   4N    basis set group =>   2
Atom   5H    basis set group =>   3
Atom   6H    basis set group =>   3
Atom   7H    basis set group =>   3
Atom   8H    basis set group =>   3
Atom   9H    basis set group =>   3
Atom  10H    basis set group =>   3
Atom  11H    basis set group =>   3
Atom  12H    basis set group =>   3
Atom  13H    basis set group =>   3
Atom  14H    basis set group =>   3
Atom  15H    basis set group =>   3

Checking for AutoStart:
The File: sp_solv.gbw exists
Trying to determine its content:
     ... Fine, the file contains calculation information
     ... Fine, the calculation information was read
     ... Fine, the file contains a basis set
     ... Fine, the basis set was read
     ... Fine, the file contains a geometry
     ... Fine, the geometry was read
     ... Fine, the file contains a set of orbitals
     ... Fine, the orbitals can be read
     => possible old guess file was deleted
     => GBW file was renamed to GES file
     => GES file is set as startup file
     => Guess is set to MORead
     ... now leaving AutoStart

------------------------------------------------------------------------------
                             ORCA STARTUP CALCULATIONS
                           -- RI-GTO INTEGRALS CHOSEN --
------------------------------------------------------------------------------
------------------------------------------------------------------------------
                   ___                                                        
                  /   \      - P O W E R E D   B Y -                         
                 /     \                                                     
                 |  |  |   _    _      __       _____    __    __             
                 |  |  |  | |  | |    /  \     |  _  \  |  |  /  |          
                  \  \/   | |  | |   /    \    | | | |  |  | /  /          
                 / \  \   | |__| |  /  /\  \   | |_| |  |  |/  /          
                |  |  |   |  __  | /  /__\  \  |    /   |      \           
                |  |  |   | |  | | |   __   |  |    \   |  |\   \          
                \     /   | |  | | |  |  |  |  | |\  \  |  | \   \       
                 \___/    |_|  |_| |__|  |__|  |_| \__\ |__|  \__/        
                                                                              
                      - O R C A' S   B I G   F R I E N D -                    
                                      &                                       
                       - I N T E G R A L  F E E D E R -                       
                                                                              
 v1 FN, 2020, v2 2021, v3 2022-2024                                           
------------------------------------------------------------------------------


----------------------
SHARK INTEGRAL PACKAGE
----------------------

Number of atoms                             ...     16
Number of basis functions                   ...    155
Number of shells                            ...     79
Maximum angular momentum                    ...      2
Integral batch strategy                     ... SHARK/LIBINT Hybrid
RI-J (if used) integral strategy            ... SPLIT-RIJ (Revised 2003 algorithm where possible)
Printlevel                                  ...      1
Contraction scheme used                     ... SEGMENTED contraction
Prescreening option                         ... SCHWARTZ
   Thresh                                   ... 1.000e-10
   Tcut                                     ... 1.000e-11
   Tpresel                                  ... 1.000e-11 
Coulomb Range Separation                    ... NOT USED
Exchange Range Separation                   ... NOT USED
Multipole approximations                    ... NOT USED
Finite Nucleus Model                        ... NOT USED
CABS basis                                  ... NOT available
Auxiliary Coulomb fitting basis             ... AVAILABLE
   # of basis functions in Aux-J            ...    366
   # of shells in Aux-J                     ...    130
   Maximum angular momentum in Aux-J        ...      4
Auxiliary J/K fitting basis                 ... NOT available
Auxiliary Correlation fitting basis         ... NOT available
Auxiliary 'external' fitting basis          ... NOT available

Checking pre-screening integrals            ... done (  0.0 sec) Dimension = 79
Check shell pair data                       ... done (  0.0 sec)
Shell pair information
Shell pair cut-off parameter TPreSel        ...   1.0e-11
Total number of shell pairs                 ...      3160
Shell pairs after pre-screening             ...      3008
Total number of primitive shell pairs       ...     10874
Primitive shell pairs kept                  ...      7817
          la=0 lb=0:   1064 shell pairs
          la=1 lb=0:   1160 shell pairs
          la=1 lb=1:    336 shell pairs
          la=2 lb=0:    274 shell pairs
          la=2 lb=1:    153 shell pairs
          la=2 lb=2:     21 shell pairs

Calculating one electron integrals          ... done (  0.0 sec)
Calculating RI/J V-Matrix + Cholesky decomp.... done (  0.1 sec)
Calculating Nuclear repulsion               ... done (  0.0 sec) ENN=    191.276684921074 Eh

Diagonalization of the overlap matrix:
Smallest eigenvalue                        ... 2.883e-04
Time for diagonalization                   ...    0.002 sec
Threshold for overlap eigenvalues          ... 1.000e-07
Number of eigenvalues below threshold      ... 0
Time for construction of square roots      ...    0.019 sec
Total time needed                          ...    0.032 sec

-------------------
DFT GRID GENERATION
-------------------

General Integration Accuracy     IntAcc      ... 4.388
Radial Grid Type                 RadialGrid  ... OptM3 with GC (2021)
Angular Grid (max. ang.)         AngularGrid ... 4 (Lebedev-302)
Angular grid pruning method      GridPruning ... 4 (adaptive)
Weight generation scheme         WeightScheme... mBecke (2022)
Basis function cutoff            BFCut       ... 1.0000e-10
Integration weight cutoff        WCut        ... 1.0000e-14
Partially contracted basis set               ... off
Rotationally invariant grid construction     ... off
Angular grids for H and He will be reduced by one unit

Total number of grid points                  ...    65507
Total number of batches                      ...     1029
Average number of points per batch           ...       63
Average number of grid points per atom       ...     4094
Initializing property integral containers    ... done (  0.0 sec)

SHARK setup successfully completed in   0.9 seconds

Maximum memory used throughout the entire STARTUP-calculation: 27.3 MB
-------------------------------------------------------------------------------
                                 ORCA GUESS
                   Start orbitals & Density for SCF / CASSCF
-------------------------------------------------------------------------------

------------
SCF SETTINGS
------------
Hamiltonian:
 Density Functional     Method          .... DFT(GTOs)
  Functional kind                       .... Exchange
  Functional name                       .... Re-regularized SCAN exchange by Furness et al
  Functional family                     .... MGGA
  Functional refs                              
    [ 0] J. W. Furness, A. D. Kaplan, J. Ning, J. P. Perdew, and J. Sun.,  J. Phys. Chem. Lett. 11, 8208-8215 (2020), doi: 10.1021/acs.jpclett.0c02405
    [ 1] J. W. Furness, A. D. Kaplan, J. Ning, J. P. Perdew, and J. Sun.,  J. Phys. Chem. Lett. 11, 9248-9248 (2020), doi: 10.1021/acs.jpclett.0c03077
  Functional external parameters        .... 6
    Parameter  0 _c1        =  6.670000e-01 : c1 parameter        
    Parameter  1 _c2        =  8.000000e-01 : c2 parameter        
    Parameter  2 _d         =  1.240000e+00 : d parameter         
    Parameter  3 _k1        =  6.500000e-02 : k1 parameter        
    Parameter  4 _eta       =  1.000000e-03 : eta parameter       
    Parameter  5 _dp2       =  3.610000e-01 : dp2 parameter       
  Functional kind                       .... Correlation
  Functional name                       .... Re-regularized SCAN correlation by Furness et al
  Functional family                     .... MGGA
  Functional refs                              
    [ 0] J. W. Furness, A. D. Kaplan, J. Ning, J. P. Perdew, and J. Sun.,  J. Phys. Chem. Lett. 11, 8208-8215 (2020), doi: 10.1021/acs.jpclett.0c02405
    [ 1] J. W. Furness, A. D. Kaplan, J. Ning, J. P. Perdew, and J. Sun.,  J. Phys. Chem. Lett. 11, 9248-9248 (2020), doi: 10.1021/acs.jpclett.0c03077
  Functional external parameters        .... 1
    Parameter  0 _eta       =  1.000000e-03 : Regularization parameter
 Gradients option       PostSCFGGA      .... off
 RI-approximation to the Coulomb term is turned on
   Number of AuxJ basis functions       .... 366


General Settings:
 Integral files         IntName         .... sp_solv
 Hartree-Fock type      HFTyp           .... RHF
 Total Charge           Charge          ....    0
 Multiplicity           Mult            ....    1
 Number of Electrons    NEL             ....   42
 Basis Dimension        Dim             ....  155
 Nuclear Repulsion      ENuc            ....    191.2766849211 Eh

Convergence Acceleration:
 AO-DIIS                CNVDIIS         .... on
   Start iteration      DIISMaxIt       ....    12
   Startup error        DIISStart       ....  0.200000
   # of expansion vecs  DIISMaxEq       ....     5
   Bias factor          DIISBfac        ....   1.050
   Max. coefficient     DIISMaxC        ....  10.000
 MO-DIIS                CNVKDIIS        .... off
 Trust-Rad. Augm. Hess. CNVTRAH         .... auto
   Auto Start mean grad. ratio tolernc. ....  1.125000
   Auto Start start iteration           ....     1
   Auto Start num. interpolation iter.  ....    10
   Max. Number of Micro iterations      ....    24
   Max. Number of Macro iterations      .... Maxiter - #DIIS iter
   Number of Davidson start vectors     ....     2
   Converg. threshold    (grad. norm)   ....   3.330e-04
   Grad. Scal. Fac. for Micro threshold ....   0.100
   Minimum threshold for Micro iter.    ....   1.000e-02
   NR start threshold (gradient norm)   ....   1.000e-04
   Initial trust radius                 ....   0.400
   Minimum AH scaling param. (alpha)    ....   1.000
   Maximum AH scaling param. (alpha)    .... 1000.000
   Quad. conv. algorithm                .... NR
   White noise on init. David. guess    .... on
   Maximum white noise                  ....   0.010
   Pseudo random numbers                .... off
   Inactive MOs                         .... canonical
   Orbital update algorithm             .... Taylor
   Preconditioner                       .... Diag
   Full preconditioner red. dimension   ....   250
   COSX micro iterations for RIJONX calc.... off
 SOSCF                  CNVSOSCF        .... on
   Start iteration      SOSCFMaxIt      ....   150
   Startup grad/error   SOSCFStart      ....  0.003300
   Hessian update       SOSCFHessUp     .... L-BFGS
 Level Shifting         CNVShift        .... on
   Level shift para.    LevelShift      ....    0.2500
   Turn off err/grad.   ShiftErr        ....    0.0010
 Zerner damping         CNVZerner       .... off
 Static damping         CNVDamp         .... on
   Fraction old density DampFac         ....    0.7000
   Max. Damping (<1)    DampMax         ....    0.9800
   Min. Damping (>=0)   DampMin         ....    0.0000
   Turn off err/grad.   DampErr         ....    0.1000

SCF Procedure:
 Maximum # iterations   MaxIter         ....   125
 SCF integral mode      SCFMode         .... Direct
   Integral package                     .... SHARK and LIBINT hybrid scheme
 Reset frequency        DirectResetFreq ....    20
 Integral Threshold     Thresh          ....  1.000e-10 Eh
 Primitive CutOff       TCut            ....  1.000e-11 Eh

Convergence Tolerance:
 Convergence Check Mode ConvCheckMode   .... Total+1el-Energy
 Convergence forced     ConvForced      .... 0
 Energy Change          TolE            ....  1.000e-06 Eh
 1-El. energy change                    ....  1.000e-03 Eh
 Orbital Gradient       TolG            ....  3.330e-04
 Orbital Rotation angle TolX            ....  3.330e-04
 DIIS Error             TolErr          ....  1.000e-06

---------------------
INITIAL GUESS: MOREAD
---------------------
Guess MOs are being read from file: sp_solv.ges
Input Geometry matches current geometry (good)
Atom 0: N(Shells)= 9 and 6 - projection required
Input basis set needs projection
NBasis(read)= 92
NBasis(calc)= 155
Basis set overlap was calculated
Using GuessMode=FMatrix for the initial guess
C*T matrix was formed
Effective Fockian was calculated
Effective Fockian was diagonalized
Initial density was built
                      ------------------
                      INITIAL GUESS DONE (   0.0 sec)
                      ------------------
             **** ENERGY FILE WAS UPDATED (sp_solv.en.tmp) ****
Finished Guess after   0.3 sec
Maximum memory used throughout the entire GUESS-calculation: 10.6 MB

-------------------------------------------------------------------------------------------
                                      ORCA LEAN-SCF
                              memory conserving SCF solver
-------------------------------------------------------------------------------------------

--------------------
CPCM SOLVATION MODEL
--------------------
CPCM parameters:
  Epsilon                                         ...      78.3550
  Refrac                                          ...       1.3328
  Rsolv                                           ...       1.3000
  Surface type                                    ... GAUSSIAN VDW
  Discretization scheme                           ... Constant charge density
    Threshold for H atoms                         ...       5.0000 (charges/Ang^2)
    Threshold for non-H atoms                     ...       5.0000 (charges/Ang^2)
  Epsilon function type                           ...         CPCM
Solvent:                                          ... WATER
SMD-CDS solvent descriptors:
  Soln                                            ...       1.3328
  Soln25                                          ...       1.3323
  Sola                                            ...       0.0000
  Solb                                            ...       0.0000
  Solg                                            ...       0.0000
  Solc                                            ...       0.0000
  Solh                                            ...       0.0000
Radii:
  Scheme                                          ... Element-dependent radii
  Radius for C  used is    3.4960 Bohr (=   1.8500 Ang.)
  Radius for N  used is    3.5716 Bohr (=   1.8900 Ang.)
  Radius for H  used is    2.2677 Bohr (=   1.2000 Ang.)
Calculating surface                               ...        done! (  0.0s)
Cavity surface points                             ...         1213
Cavity Volume                                     ...     674.1426
Cavity Surface-area                               ...     451.7443
Calculating surface distance matrix               ...        done! (  0.0s)
Performing Cholesky decomposition & store         ...        done! (  0.1s)
Overall time for CPCM initialization              ...                 0.1s

----------------------------------------D-I-I-S--------------------------------------------
Iteration    Energy (Eh)           Delta-E    RMSDP     MaxDP     DIISErr   Damp  Time(sec)
-------------------------------------------------------------------------------------------
               ***  Starting incremental Fock matrix formation  ***
    1    -213.6077180867438017     0.00e+00  3.66e-03  9.72e-02  4.46e-01  0.700   2.2
    2    -213.6457007003912452    -3.80e-02  3.04e-03  8.10e-02  3.13e-01  0.700   2.1
    3    -213.6727757410659763    -2.71e-02  2.26e-03  5.94e-02  2.20e-01  0.700   1.9
                               ***Turning on AO-DIIS***
    4    -213.6918511563310688    -1.91e-02  1.68e-03  4.30e-02  1.54e-01  0.700   1.9
    5    -213.7052637145280016    -1.34e-02  1.21e-03  3.05e-02  1.07e-01  0.700   1.8
    6    -213.7146885384144923    -9.42e-03  8.65e-04  2.15e-02  7.51e-02  0.700   1.8
    7    -213.7213045834670027    -6.62e-03  2.05e-03  5.03e-02  5.27e-02  0.000   1.8
                              *** Initializing SOSCF ***
---------------------------------------S-O-S-C-F--------------------------------------
Iteration    Energy (Eh)           Delta-E    RMSDP     MaxDP     MaxGrad    Time(sec)
--------------------------------------------------------------------------------------
    8    -213.7368046795761813    -1.55e-02  3.58e-05  7.31e-04  6.45e-04     1.8
               *** Restarting incremental Fock matrix formation ***
    9    -213.7368049827677794    -3.03e-07  2.46e-05  5.88e-04  1.40e-04     2.0
   10    -213.7368043779318043     6.05e-07  1.44e-05  3.36e-04  1.93e-04     1.6
                 **** Energy Check signals convergence ****

               *****************************************************
               *                     SUCCESS                       *
               *           SCF CONVERGED AFTER  10 CYCLES          *
               *****************************************************


SMD CDS free energy correction energy :                 1.71281     Kcal/mol
Total Energy after SMD CDS correction =              -213.734074834 Eh
             **** ENERGY FILE WAS UPDATED (sp_solv.en.tmp) ****

----------------
TOTAL SCF ENERGY
----------------

Total Energy       :       -213.73407483386998 Eh           -5815.99986 eV

Components:
Nuclear Repulsion  :        191.27668492107441 Eh            5204.90321 eV
Electronic Energy  :       -405.00404796320800 Eh          -11020.72043 eV
One Electron Energy:       -665.75413902022524 Eh          -18116.09113 eV
Two Electron Energy:        260.75009105701724 Eh            7095.37070 eV
CPCM Dielectric    :         -0.00944133579819 Eh              -0.25691 eV
SMD CDS (Gcds)     :          0.00272954406183 Eh               0.07427 eV

Virial components:
Potential Energy   :       -426.45019797144823 Eh          -11604.29984 eV
Kinetic Energy     :        212.71612313757822 Eh            5788.29998 eV
Virial Ratio       :          2.00478549383694

DFT components:
N(Alpha)           :       20.999982933950 electrons
N(Beta)            :       20.999982933950 electrons
N(Total)           :       41.999965867900 electrons
E(X)               :      -31.379789197637 Eh       
E(C)               :       -1.298241881445 Eh       
E(XC)              :      -32.678031079081 Eh       

CPCM Solvation Model Properties:
Surface-charge          :         -0.03982319283211
Corrected charge        :          0.00000000000000
Outlying charge corr.   :          0.00013610082764 Eh               0.00370 eV
Free-energy (cav+disp)  :          0.00272954406183 Eh               0.07427 eV

---------------
SCF CONVERGENCE
---------------

  Last Energy change         ...   -6.0484e-07  Tolerance :   1.0000e-06
  Last MAX-Density change    ...    3.3573e-04  Tolerance :   1.0000e-05
  Last RMS-Density change    ...    1.4408e-05  Tolerance :   1.0000e-06
  Last DIIS Error            ...    6.4537e-04  Tolerance :   1.0000e-06
  Last Orbital Gradient      ...    1.9267e-04  Tolerance :   3.3300e-04
  Last Orbital Rotation      ...    1.2571e-04  Tolerance :   3.3300e-04


----------------
ORBITAL ENERGIES
----------------

  NO   OCC          E(Eh)            E(eV) 
   0   2.0000     -14.127298      -384.4233 
   1   2.0000     -10.040253      -273.2092 
   2   2.0000     -10.016363      -272.5591 
   3   2.0000     -10.013497      -272.4811 
   4   2.0000     -10.006779      -272.2983 
   5   2.0000      -0.839317       -22.8390 
   6   2.0000      -0.743078       -20.2202 
   7   2.0000      -0.663845       -18.0641 
   8   2.0000      -0.589210       -16.0332 
   9   2.0000      -0.520217       -14.1558 
  10   2.0000      -0.455226       -12.3873 
  11   2.0000      -0.432080       -11.7575 
  12   2.0000      -0.398096       -10.8327 
  13   2.0000      -0.386691       -10.5224 
  14   2.0000      -0.359193        -9.7741 
  15   2.0000      -0.338606        -9.2139 
  16   2.0000      -0.328398        -8.9362 
  17   2.0000      -0.292813        -7.9678 
  18   2.0000      -0.286660        -7.8004 
  19   2.0000      -0.280986        -7.6460 
  20   2.0000      -0.204158        -5.5554 
  21   0.0000       0.080308         2.1853 
  22   0.0000       0.116375         3.1667 
  23   0.0000       0.125196         3.4068 
  24   0.0000       0.128938         3.5086 
  25   0.0000       0.138204         3.7607 
  26   0.0000       0.155417         4.2291 
  27   0.0000       0.162459         4.4207 
  28   0.0000       0.185581         5.0499 
  29   0.0000       0.189021         5.1435 
  30   0.0000       0.201161         5.4739 
  31   0.0000       0.206632         5.6227 
*Only the first 10 virtual orbitals were printed.

                    ********************************
                    * MULLIKEN POPULATION ANALYSIS *
                    ********************************

-----------------------
MULLIKEN ATOMIC CHARGES
-----------------------
   0 C :   -0.528916
   1 C :   -0.235681
   2 C :   -0.254671
   3 C :   -0.240151
   4 N :   -0.653617
   5 H :    0.154911
   6 H :    0.157754
   7 H :    0.155330
   8 H :    0.139844
   9 H :    0.150618
  10 H :    0.150204
  11 H :    0.144748
  12 H :    0.139415
  13 H :    0.151102
  14 H :    0.286336
  15 H :    0.282773
Sum of atomic charges:    0.0000000

--------------------------------
MULLIKEN REDUCED ORBITAL CHARGES
--------------------------------
  0 C s       :     3.343080  s :     3.343080
      pz      :     1.060167  p :     3.158745
      px      :     1.057026
      py      :     1.041551
      dz2     :     0.003242  d :     0.027091
      dxz     :     0.007396
      dyz     :     0.005943
      dx2y2   :     0.003625
      dxy     :     0.006886

  1 C s       :     3.182054  s :     3.182054
      pz      :     0.996139  p :     3.016595
      px      :     0.987230
      py      :     1.033226
      dz2     :     0.005315  d :     0.037032
      dxz     :     0.009054
      dyz     :     0.007987
      dx2y2   :     0.004702
      dxy     :     0.009975

  2 C s       :     3.193730  s :     3.193730
      pz      :     1.056089  p :     3.024733
      px      :     0.963519
      py      :     1.005125
      dz2     :     0.005256  d :     0.036207
      dxz     :     0.008863
      dyz     :     0.006926
      dx2y2   :     0.005388
      dxy     :     0.009774

  3 C s       :     3.305678  s :     3.305678
      pz      :     0.904195  p :     2.884862
      px      :     0.958692
      py      :     1.021974
      dz2     :     0.007104  d :     0.049612
      dxz     :     0.014510
      dyz     :     0.010462
      dx2y2   :     0.006251
      dxy     :     0.011284

  4 N s       :     3.550076  s :     3.550076
      pz      :     1.203654  p :     4.064757
      px      :     1.289084
      py      :     1.572019
      dz2     :     0.007178  d :     0.038784
      dxz     :     0.007964
      dyz     :     0.009398
      dx2y2   :     0.003874
      dxy     :     0.010369

  5 H s       :     0.826731  s :     0.826731
      pz      :     0.006201  p :     0.018357
      px      :     0.007697
      py      :     0.004460

  6 H s       :     0.823767  s :     0.823767
      pz      :     0.004500  p :     0.018480
      px      :     0.005584
      py      :     0.008395

  7 H s       :     0.826405  s :     0.826405
      pz      :     0.008364  p :     0.018265
      px      :     0.004862
      py      :     0.005039

  8 H s       :     0.842078  s :     0.842078
      pz      :     0.008323  p :     0.018078
      px      :     0.004680
      py      :     0.005075

  9 H s       :     0.831483  s :     0.831483
      pz      :     0.004471  p :     0.017899
      px      :     0.005678
      py      :     0.007750

 10 H s       :     0.831860  s :     0.831860
      pz      :     0.005201  p :     0.017935
      px      :     0.004902
      py      :     0.007833

 11 H s       :     0.837347  s :     0.837347
      pz      :     0.008812  p :     0.017905
      px      :     0.004629
      py      :     0.004464

 12 H s       :     0.843104  s :     0.843104
      pz      :     0.004190  p :     0.017481
      px      :     0.004808
      py      :     0.008483

 13 H s       :     0.831376  s :     0.831376
      pz      :     0.007243  p :     0.017522
      px      :     0.005534
      py      :     0.004744

 14 H s       :     0.681484  s :     0.681484
      pz      :     0.012987  p :     0.032180
      px      :     0.009095
      py      :     0.010098

 15 H s       :     0.684948  s :     0.684948
      pz      :     0.006218  p :     0.032279
      px      :     0.013254
      py      :     0.012807


------------------------
MULLIKEN OVERLAP CHARGES
------------------------
B(  0-C ,  1-C ) :   0.3622 B(  0-C ,  2-C ) :  -0.2222 B(  0-C ,  3-C ) :   0.0729 
B(  0-C ,  5-H ) :   0.7932 B(  0-C ,  6-H ) :   0.8528 B(  0-C ,  7-H ) :   0.8473 
B(  0-C ,  8-H ) :  -0.0567 B(  0-C ,  9-H ) :  -0.0543 B(  1-C ,  2-C ) :   0.4997 
B(  1-C ,  3-C ) :  -0.2738 B(  1-C ,  5-H ) :  -0.0704 B(  1-C ,  6-H ) :  -0.0960 
B(  1-C ,  7-H ) :  -0.0860 B(  1-C ,  8-H ) :   0.8565 B(  1-C ,  9-H ) :   0.8223 
B(  1-C , 10-H ) :  -0.0938 B(  1-C , 11-H ) :  -0.0860 B(  1-C , 12-H ) :  -0.0533 
B(  2-C ,  3-C ) :   0.4515 B(  2-C ,  4-N ) :  -0.1586 B(  2-C ,  8-H ) :  -0.1129 
B(  2-C ,  9-H ) :  -0.0895 B(  2-C , 10-H ) :   0.8235 B(  2-C , 11-H ) :   0.8187 
B(  2-C , 12-H ) :  -0.1228 B(  2-C , 13-H ) :  -0.0543 B(  3-C ,  4-N ) :   0.3900 
B(  3-C , 11-H ) :  -0.0793 B(  3-C , 12-H ) :   0.9422 B(  3-C , 13-H ) :   0.8198 
B(  3-C , 14-H ) :  -0.0775 B(  3-C , 15-H ) :  -0.0562 B(  4-N , 12-H ) :  -0.1227 
B(  4-N , 13-H ) :  -0.1080 B(  4-N , 14-H ) :   0.7200 B(  4-N , 15-H ) :   0.6833 
B( 12-H , 13-H ) :  -0.0698 


                     *******************************
                     * LOEWDIN POPULATION ANALYSIS *
                     *******************************

----------------------
LOEWDIN ATOMIC CHARGES
----------------------
   0 C :   -0.435219
   1 C :   -0.319458
   2 C :   -0.295239
   3 C :   -0.078851
   4 N :   -0.771064
   5 H :    0.152521
   6 H :    0.151047
   7 H :    0.152452
   8 H :    0.153088
   9 H :    0.154718
  10 H :    0.161175
  11 H :    0.159642
  12 H :    0.153338
  13 H :    0.173265
  14 H :    0.243527
  15 H :    0.245057

-------------------------------
LOEWDIN REDUCED ORBITAL CHARGES
-------------------------------
  0 C s       :     2.974237  s :     2.974237
      pz      :     1.142348  p :     3.397881
      px      :     1.125008
      py      :     1.130525
      dz2     :     0.007066  d :     0.063100
      dxz     :     0.017835
      dyz     :     0.014224
      dx2y2   :     0.007395
      dxy     :     0.016581

  1 C s       :     2.937361  s :     2.937361
      pz      :     1.108605  p :     3.302297
      px      :     1.081797
      py      :     1.111895
      dz2     :     0.010448  d :     0.079800
      dxz     :     0.020317
      dyz     :     0.018076
      dx2y2   :     0.008500
      dxy     :     0.022458

  2 C s       :     2.939255  s :     2.939255
      pz      :     1.118298  p :     3.278248
      px      :     1.066082
      py      :     1.093867
      dz2     :     0.010853  d :     0.077736
      dxz     :     0.020051
      dyz     :     0.015647
      dx2y2   :     0.010099
      dxy     :     0.021086

  3 C s       :     2.871035  s :     2.871035
      pz      :     1.002340  p :     3.097401
      px      :     1.023811
      py      :     1.071250
      dz2     :     0.015947  d :     0.110414
      dxz     :     0.033461
      dyz     :     0.022656
      dx2y2   :     0.011746
      dxy     :     0.026604

  4 N s       :     3.245186  s :     3.245186
      pz      :     1.291884  p :     4.213213
      px      :     1.325318
      py      :     1.596011
      dz2     :     0.080999  d :     0.312665
      dxz     :     0.079390
      dyz     :     0.062650
      dx2y2   :     0.023470
      dxy     :     0.066156

  5 H s       :     0.803611  s :     0.803611
      pz      :     0.015069  p :     0.043868
      px      :     0.018588
      py      :     0.010212

  6 H s       :     0.804512  s :     0.804512
      pz      :     0.010272  p :     0.044441
      px      :     0.013477
      py      :     0.020692

  7 H s       :     0.803863  s :     0.803863
      pz      :     0.020437  p :     0.043685
      px      :     0.011243
      py      :     0.012005

  8 H s       :     0.803240  s :     0.803240
      pz      :     0.020164  p :     0.043672
      px      :     0.011242
      py      :     0.012266

  9 H s       :     0.801902  s :     0.801902
      pz      :     0.010505  p :     0.043379
      px      :     0.013789
      py      :     0.019085

 10 H s       :     0.795437  s :     0.795437
      pz      :     0.012832  p :     0.043388
      px      :     0.011747
      py      :     0.018809

 11 H s       :     0.796613  s :     0.796613
      pz      :     0.021830  p :     0.043745
      px      :     0.011305
      py      :     0.010610

 12 H s       :     0.805318  s :     0.805318
      pz      :     0.009544  p :     0.041344
      px      :     0.011192
      py      :     0.020609

 13 H s       :     0.786565  s :     0.786565
      pz      :     0.015299  p :     0.040170
      px      :     0.013886
      py      :     0.010985

 14 H s       :     0.670103  s :     0.670103
      pz      :     0.034675  p :     0.086370
      px      :     0.023941
      py      :     0.027754

 15 H s       :     0.668685  s :     0.668685
      pz      :     0.015885  p :     0.086257
      px      :     0.034567
      py      :     0.035805


---------------------------------
LOEWDIN BOND ORDERS (THRESH 0.050000)
---------------------------------
B(  0-C ,  1-C ) :   1.1425 B(  0-C ,  2-C ) :   0.0645 B(  0-C ,  5-H ) :   0.9302 
B(  0-C ,  6-H ) :   0.9277 B(  0-C ,  7-H ) :   0.9295 B(  1-C ,  2-C ) :   1.1093 
B(  1-C ,  3-C ) :   0.0576 B(  1-C ,  8-H ) :   0.8924 B(  1-C ,  9-H ) :   0.8944 
B(  2-C ,  3-C ) :   1.0450 B(  2-C ,  4-N ) :   0.1679 B(  2-C , 10-H ) :   0.8848 
B(  2-C , 11-H ) :   0.8844 B(  3-C ,  4-N ) :   1.4112 B(  3-C , 12-H ) :   0.8346 
B(  3-C , 13-H ) :   0.8309 B(  4-N , 12-H ) :   0.1029 B(  4-N , 13-H ) :   0.1007 
B(  4-N , 14-H ) :   0.9355 B(  4-N , 15-H ) :   0.9353 

------------------------------------------
LOEWDIN REDUCED ORBITAL POPULATIONS PER MO
-------------------------------------------
THRESHOLD FOR PRINTING IS 0.1%%
                      0         1         2         3         4         5   
                 -14.12730 -10.04025 -10.01636 -10.01350 -10.00678  -0.83932
                   2.00000   2.00000   2.00000   2.00000   2.00000   2.00000
                  --------  --------  --------  --------  --------  --------
 0 C  s               0.0       0.0       0.0       0.0      99.7       0.2
 0 C  px              0.0       0.0       0.0       0.0       0.0       0.1
 1 C  s               0.0       0.0      99.6       0.1       0.0       0.8
 1 C  pz              0.0       0.0       0.0       0.0       0.0       0.1
 1 C  px              0.0       0.0       0.0       0.0       0.0       0.5
 2 C  s               0.0       0.0       0.1      99.6       0.0       3.6
 2 C  px              0.0       0.0       0.0       0.0       0.0       1.1
 2 C  py              0.0       0.0       0.0       0.0       0.0       1.1
 3 C  s               0.0      99.4       0.0       0.0       0.0      15.9
 3 C  pz              0.0       0.0       0.0       0.0       0.0       4.3
 3 C  px              0.0       0.0       0.0       0.0       0.0       1.5
 3 C  py              0.0       0.0       0.0       0.0       0.0       0.1
 3 C  dxz             0.0       0.0       0.0       0.0       0.0       0.2
 4 N  s              99.8       0.0       0.0       0.0       0.0      44.1
 4 N  pz              0.0       0.1       0.0       0.0       0.0       1.0
 4 N  px              0.0       0.0       0.0       0.0       0.0       0.9
 4 N  py              0.0       0.0       0.0       0.0       0.0       0.5
 4 N  dxz             0.0       0.2       0.0       0.0       0.0       0.2
 8 H  s               0.0       0.0       0.0       0.0       0.0       0.1
10 H  s               0.0       0.0       0.0       0.0       0.0       0.4
11 H  s               0.0       0.0       0.0       0.0       0.0       0.3
12 H  s               0.0       0.0       0.0       0.0       0.0       1.5
13 H  s               0.0       0.0       0.0       0.0       0.0       1.6
14 H  s               0.0       0.0       0.0       0.0       0.0       8.1
14 H  pz              0.0       0.0       0.0       0.0       0.0       0.7
14 H  px              0.0       0.0       0.0       0.0       0.0       0.3
14 H  py              0.0       0.0       0.0       0.0       0.0       0.1
15 H  s               0.0       0.0       0.0       0.0       0.0       8.1
15 H  px              0.0       0.0       0.0       0.0       0.0       0.7
15 H  py              0.0       0.0       0.0       0.0       0.0       0.4

                      6         7         8         9        10        11   
                  -0.74308  -0.66385  -0.58921  -0.52022  -0.45523  -0.43208
                   2.00000   2.00000   2.00000   2.00000   2.00000   2.00000
                  --------  --------  --------  --------  --------  --------
 0 C  s              14.8      18.9      10.9       2.8       0.0       0.3
 0 C  pz              0.5       0.1       1.1       3.8       0.0       1.6
 0 C  px              1.2       0.1       1.2       1.5       0.4       5.5
 0 C  py              1.2       0.0       2.0       1.4       2.1       0.4
 1 C  s              25.9       2.3       7.9       8.6       0.2       0.1
 1 C  pz              1.5       0.1       1.4       7.7       0.4       5.4
 1 C  px              0.0       6.3       2.0       0.4       3.4       0.6
 1 C  py              0.1       3.1       3.9       0.2       4.1       0.6
 1 C  dxz             0.0       0.2       0.1       0.0       0.0       0.0
 1 C  dxy             0.1       0.0       0.0       0.1       0.0       0.0
 2 C  s              16.6      13.2       1.8       9.2       0.1       0.0
 2 C  pz              0.5       0.9       3.9       1.8       2.2       5.8
 2 C  px              1.9       2.7       4.4       0.0       2.3       8.0
 2 C  py              0.5       0.1       1.5       5.6       4.7       6.3
 2 C  dxz             0.1       0.0       0.0       0.2       0.0       0.0
 2 C  dxy             0.0       0.1       0.1       0.0       0.0       0.0
 3 C  s               1.2       8.9      11.4       4.7       0.1       0.1
 3 C  pz              0.1       0.8       3.0       1.2       7.3       5.3
 3 C  px              3.9       2.2       0.1       1.5       6.8       9.9
 3 C  py              1.4       2.2       0.1       3.3       0.2       9.6
 3 C  dxy             0.0       0.0       0.0       0.1       0.0       0.0
 4 N  s               4.3       4.0       1.8       0.8       0.1       0.2
 4 N  pz              0.1       1.8       5.2       5.3      10.2       3.7
 4 N  px              0.3       1.2       0.8       0.6      26.0       1.4
 4 N  py              0.4       1.5       1.1       0.4       1.1      10.3
 4 N  dz2             0.0       0.1       0.5       0.4       0.1       0.0
 4 N  dxz             0.1       0.8       0.9       0.4       0.0       0.1
 4 N  dyz             0.0       0.1       0.0       0.0       0.1       0.2
 4 N  dx2y2           0.0       0.1       0.0       0.1       0.2       0.1
 4 N  dxy             0.1       0.1       0.0       0.1       0.3       0.3
 5 H  s               2.1       4.3       3.7       1.1       0.0       3.1
 5 H  pz              0.1       0.1       0.1       0.1       0.0       0.0
 5 H  px              0.1       0.2       0.1       0.0       0.0       0.1
 6 H  s               2.1       3.7       4.2       1.6       0.7       0.1
 6 H  px              0.0       0.1       0.1       0.1       0.0       0.0
 6 H  py              0.1       0.2       0.2       0.1       0.0       0.0
 7 H  s               2.1       3.8       3.6       2.6       0.2       0.0
 7 H  pz              0.1       0.2       0.2       0.1       0.0       0.0
 8 H  s               3.6       0.5       2.7       6.3       1.0       0.3
 8 H  pz              0.2       0.0       0.1       0.2       0.0       0.0
 8 H  px              0.0       0.0       0.0       0.1       0.0       0.0
 8 H  py              0.1       0.0       0.1       0.1       0.0       0.0
 9 H  s               3.7       0.5       3.1       4.3       2.0       0.7
 9 H  px              0.1       0.0       0.1       0.1       0.0       0.0
 9 H  py              0.2       0.0       0.1       0.2       0.0       0.0
10 H  s               2.2       3.0       0.9       5.1       0.1       5.8
10 H  pz              0.0       0.1       0.0       0.1       0.0       0.0
10 H  py              0.1       0.2       0.0       0.1       0.0       0.2
11 H  s               2.5       2.8       0.3       6.4       2.3       1.6
11 H  pz              0.2       0.2       0.0       0.3       0.1       0.0
11 H  py              0.0       0.0       0.0       0.0       0.0       0.1
12 H  s               0.2       1.6       4.1       3.1       0.1       7.9
12 H  py              0.0       0.1       0.2       0.1       0.0       0.2
13 H  s               0.1       2.2       4.8       2.6       3.3       0.4
13 H  pz              0.0       0.1       0.2       0.1       0.1       0.1
13 H  px              0.0       0.1       0.1       0.0       0.0       0.0
14 H  s               0.9       1.5       1.8       1.4       6.4       1.2
14 H  pz              0.1       0.1       0.1       0.0       0.2       0.0
14 H  px              0.1       0.1       0.1       0.1       0.0       0.1
14 H  py              0.0       0.0       0.0       0.0       0.2       0.0
15 H  s               1.2       1.8       0.9       0.4       9.8       1.5
15 H  px              0.1       0.1       0.1       0.0       0.1       0.0
15 H  py              0.1       0.1       0.0       0.0       0.4       0.0

                     12        13        14        15        16        17   
                  -0.39810  -0.38669  -0.35919  -0.33861  -0.32840  -0.29281
                   2.00000   2.00000   2.00000   2.00000   2.00000   2.00000
                  --------  --------  --------  --------  --------  --------
 0 C  s               0.0       0.0       0.2       0.0       0.0       0.7
 0 C  pz              1.4      12.8       1.1      24.6       0.6       5.0
 0 C  px              6.1       4.1       9.3       2.1      11.4       9.8
 0 C  py             16.9       0.7       5.5       0.0      11.1       2.8
 0 C  dxz             0.0       0.1       0.1       0.1       0.1       0.0
 0 C  dyz             0.0       0.0       0.1       0.0       0.2       0.2
 0 C  dxy             0.0       0.0       0.1       0.3       0.0       0.0
 1 C  s               0.0       0.1       0.5       0.1       0.0       0.2
 1 C  pz              1.9       9.1       3.2       1.8       0.0      10.4
 1 C  px             10.8       3.2       2.2       1.4       2.0       9.1
 1 C  py             11.3       0.4      10.5       1.3       1.0       0.4
 1 C  dz2             0.0       0.0       0.0       0.0       0.0       0.3
 1 C  dyz             0.1       0.0       0.0       0.0       0.0       0.4
 1 C  dx2y2           0.0       0.0       0.0       0.0       0.3       0.0
 1 C  dxy             0.0       0.0       0.0       0.1       0.0       0.2
 2 C  s               0.4       0.1       0.1       0.8       0.4       0.0
 2 C  pz              1.1       6.0      10.2       2.7       2.3      10.0
 2 C  px              1.2       3.4       0.0       1.0       5.5       7.3
 2 C  py              0.1       1.5       3.2       0.4      12.4       1.2
 2 C  dz2             0.0       0.0       0.0       0.0       0.0       0.3
 2 C  dxz             0.0       0.0       0.0       0.1       0.1       0.0
 2 C  dyz             0.0       0.0       0.1       0.0       0.0       0.4
 2 C  dxy             0.1       0.1       0.0       0.0       0.0       0.2
 3 C  s               0.4       0.3       0.1       0.2       0.1       0.1
 3 C  pz              0.2      11.1       0.1       9.8       0.3       0.5
 3 C  px              0.0       2.0       1.5       1.8       7.6       0.9
 3 C  py              0.6       1.6      18.1       3.5       3.0       0.1
 3 C  dz2             0.1       0.0       0.0       0.0       0.1       0.0
 3 C  dxz             0.0       0.2       0.0       0.3       0.1       0.1
 3 C  dx2y2           0.0       0.1       0.1       0.0       0.0       0.1
 3 C  dxy             0.0       0.0       0.0       0.1       0.1       0.0
 4 N  s               0.0       0.2       0.8       0.1       0.1       0.2
 4 N  pz              1.8      16.2       0.6       8.9       0.1       1.4
 4 N  px             11.9       0.3       0.1       0.3       8.0       0.5
 4 N  py              0.6       2.7       5.5       0.1       0.5       0.7
 4 N  dz2             0.3       0.2       0.0       0.5       0.7       0.0
 4 N  dxz             0.0       0.2       0.1       0.3       0.1       0.1
 4 N  dyz             0.1       0.2       0.7       0.5       0.0       0.0
 4 N  dx2y2           0.0       0.0       0.0       0.1       0.2       0.1
 4 N  dxy             0.5       0.0       0.0       0.0       1.0       0.1
 5 H  s               0.0       6.1       2.9       8.7       0.6       0.8
 5 H  pz              0.0       0.0       0.1       0.0       0.0       0.1
 5 H  px              0.0       0.1       0.0       0.2       0.0       0.0
 5 H  py              0.1       0.0       0.0       0.1       0.1       0.0
 6 H  s               6.6       0.9       0.6       3.3       9.8       0.0
 6 H  pz              0.1       0.0       0.0       0.1       0.1       0.0
 6 H  px              0.0       0.0       0.1       0.0       0.0       0.1
 6 H  py              0.1       0.1       0.0       0.1       0.1       0.0
 7 H  s               5.0       2.2       0.5       6.0       6.7       3.1
 7 H  pz              0.2       0.0       0.0       0.0       0.2       0.0
 7 H  px              0.0       0.1       0.0       0.1       0.0       0.0
 8 H  s               5.1       1.6       0.0       1.2       0.5       9.9
 8 H  pz              0.2       0.0       0.0       0.0       0.0       0.0
 8 H  py              0.0       0.0       0.1       0.1       0.0       0.1
 9 H  s               5.8       0.8       1.6       0.6       1.5       0.1
 9 H  pz              0.1       0.0       0.0       0.0       0.0       0.1
 9 H  px              0.0       0.0       0.1       0.1       0.0       0.1
10 H  s               0.8       0.1       4.8       0.5       0.2       9.4
10 H  px              0.0       0.0       0.1       0.0       0.1       0.0
10 H  py              0.0       0.0       0.1       0.0       0.1       0.1
11 H  s               0.3       1.4       1.5       2.5       5.4       9.9
11 H  pz              0.0       0.0       0.0       0.1       0.1       0.0
11 H  px              0.0       0.1       0.0       0.0       0.0       0.0
12 H  s               0.2       0.4       9.9       0.1       0.1       1.4
12 H  pz              0.0       0.0       0.1       0.1       0.0       0.0
13 H  s               0.0       2.9       1.7       9.4       0.5       0.0
13 H  px              0.0       0.2       0.0       0.1       0.0       0.0
14 H  s               2.2       5.1       0.0       2.3       0.5       0.1
14 H  px              0.0       0.2       0.0       0.1       0.0       0.0
14 H  py              0.1       0.0       0.1       0.0       0.0       0.0
15 H  s               4.5       0.1       0.3       0.1       3.0       0.2
15 H  pz              0.0       0.2       0.0       0.1       0.0       0.0
15 H  py              0.1       0.0       0.0       0.0       0.1       0.0

                     18        19        20        21        22        23   
                  -0.28666  -0.28099  -0.20416   0.08031   0.11638   0.12520
                   2.00000   2.00000   2.00000   0.00000   0.00000   0.00000
                  --------  --------  --------  --------  --------  --------
 0 C  s               0.1       0.1       0.0       7.7       4.9       6.0
 0 C  pz              0.6       3.7       0.1       0.7       3.2       2.9
 0 C  px              0.4       2.9       0.1       0.2       2.0       1.2
 0 C  py             11.7       0.4       0.1       0.6       1.3       0.1
 0 C  dz2             0.1       0.0       0.0       0.0       0.1       0.0
 0 C  dxz             0.4       0.0       0.0       0.1       0.5       0.0
 0 C  dyz             0.0       0.1       0.0       0.1       0.1       0.3
 0 C  dx2y2           0.0       0.1       0.0       0.0       0.2       0.0
 0 C  dxy             0.0       0.2       0.0       0.1       0.0       0.1
 1 C  s               0.1       0.3       0.0       6.7       1.7       7.3
 1 C  pz              2.5       9.7       0.1       2.1       2.6       2.5
 1 C  px              0.5      11.5       0.0       0.1       1.0       1.7
 1 C  py             17.6       0.9       0.2       0.3       2.0       0.3
 1 C  dxz             0.6       0.0       0.0       0.0       0.0       0.0
 1 C  dyz             0.1       0.2       0.0       0.0       0.4       0.1
 1 C  dx2y2           0.0       0.1       0.0       0.0       0.0       0.2
 1 C  dxy             0.0       0.5       0.0       0.5       0.0       0.2
 2 C  s               0.3       0.1       0.4       1.9       6.6       0.7
 2 C  pz              0.7       7.6       0.0       0.0       2.8       0.5
 2 C  px              1.2      12.2       0.8       0.0       0.1       6.7
 2 C  py             15.3       0.1       0.8       0.9       3.6       2.1
 2 C  dz2             0.0       0.0       0.0       0.1       0.2       0.4
 2 C  dxz             0.4       0.1       0.1       0.3       0.3       0.0
 2 C  dyz             0.0       0.1       0.0       0.1       0.1       0.6
 2 C  dx2y2           0.2       0.0       0.0       0.0       0.1       0.1
 2 C  dxy             0.1       0.3       0.0       0.0       0.3       0.0
 3 C  s               0.2       0.2       0.4       9.1       5.2       6.2
 3 C  pz              0.0       5.4       0.6       6.4      15.9      10.4
 3 C  px              1.0       9.7       0.8       3.8       5.2       9.5
 3 C  py              5.7       0.5       3.4       3.8       0.8       2.0
 3 C  dz2             0.0       0.2       0.0       0.1       0.6       0.0
 3 C  dxz             0.1       0.2       0.3       0.7       0.3       0.1
 3 C  dyz             0.0       0.0       0.7       0.1       0.1       0.2
 3 C  dx2y2           0.1       0.0       0.0       0.0       0.2       0.2
 3 C  dxy             0.0       0.2       0.5       0.3       0.0       0.0
 4 N  s               0.3       0.0       5.3      10.9       3.5       1.2
 4 N  pz              1.5       1.0       5.8       0.6       0.5       0.8
 4 N  px              1.8       0.9      11.0       0.4       1.8       3.1
 4 N  py              2.1       0.0      52.3       1.4       1.4       0.6
 4 N  dz2             0.0       1.1       0.0       0.6       1.1       0.5
 4 N  dxz             0.0       0.3       0.2       2.7       1.0       1.1
 4 N  dyz             0.2       0.1       0.7       0.1       0.7       2.8
 4 N  dx2y2           0.0       0.0       0.1       0.0       0.3       0.3
 4 N  dxy             0.1       0.3       0.4       0.3       0.7       2.1
 5 H  s               2.5       4.3       0.0       0.4       4.3       0.7
 5 H  pz              0.0       0.0       0.0       0.2       0.7       0.5
 5 H  px              0.0       0.0       0.0       0.1       0.2       0.2
 6 H  s               2.9       3.5       0.1       2.1       0.2       0.2
 6 H  pz              0.0       0.0       0.0       0.0       0.1       0.0
 6 H  px              0.1       0.0       0.0       0.6       0.3       0.2
 6 H  py              0.0       0.0       0.0       0.3       0.0       0.0
 7 H  s               4.2       0.1       0.0       0.6       0.7       1.7
 7 H  pz              0.0       0.0       0.0       0.0       0.4       0.2
 7 H  py              0.0       0.0       0.0       0.3       0.1       0.3
 8 H  s               7.1       0.1       0.1       2.3       0.9       1.9
 8 H  pz              0.1       0.1       0.0       0.4       0.0       0.5
 8 H  px              0.1       0.2       0.0       0.5       0.0       0.1
 8 H  py              0.0       0.0       0.0       0.6       0.1       0.8
 9 H  s               5.7       9.3       0.2       1.9       0.6       1.5
 9 H  pz              0.1       0.0       0.0       0.0       0.4       0.0
 9 H  px              0.1       0.0       0.0       0.4       0.1       0.3
 9 H  py              0.0       0.1       0.0       0.4       0.2       0.9
10 H  s               6.2       0.0       0.4       0.3       4.3       0.7
10 H  pz              0.1       0.1       0.0       0.0       1.0       0.0
10 H  px              0.0       0.1       0.0       0.2       0.2       0.1
10 H  py              0.0       0.0       0.0       0.0       0.3       0.5
11 H  s               2.1       0.3       0.2       0.9       2.1       1.9
11 H  pz              0.0       0.0       0.0       0.1       1.6       0.3
11 H  px              0.0       0.2       0.0       0.2       0.2       0.1
11 H  py              0.1       0.0       0.0       0.0       0.1       0.0
12 H  s               1.2       0.1       8.1       2.1       0.8       0.9
12 H  pz              0.0       0.1       0.0       0.1       0.5       0.3
12 H  px              0.1       0.1       0.0       0.1       0.5       0.1
12 H  py              0.0       0.0       0.0       1.0       0.0       0.8
13 H  s               0.5       7.8       1.6       2.0       0.9       1.0
13 H  pz              0.0       0.0       0.0       0.0       0.8       0.5
13 H  px              0.0       0.0       0.0       0.7       0.0       0.5
13 H  py              0.0       0.1       0.0       0.2       0.1       0.0
14 H  s               0.0       1.0       0.9       7.0       2.1       0.4
14 H  pz              0.0       0.0       0.3       1.3       0.9       0.0
14 H  px              0.0       0.0       0.1       1.0       0.0       0.0
14 H  py              0.0       0.0       0.6       0.2       0.1       0.1
15 H  s               0.0       0.8       0.8       5.4       0.3       4.6
15 H  pz              0.0       0.0       0.0       0.2       0.0       0.2
15 H  px              0.0       0.0       0.4       1.3       0.3       0.6
15 H  py              0.0       0.0       0.5       0.5       0.0       0.7

                     24        25        26        27        28        29   
                   0.12894   0.13820   0.15542   0.16246   0.18558   0.18902
                   0.00000   0.00000   0.00000   0.00000   0.00000   0.00000
                  --------  --------  --------  --------  --------  --------
 0 C  s              16.3       2.2       2.4       1.0       0.9       0.1
 0 C  pz              3.1       0.3       2.3       6.5       9.1       0.8
 0 C  px              7.7       0.2       4.1       9.6       0.8       5.6
 0 C  py              9.2       2.4       2.4       5.9       7.0       7.2
 0 C  dz2             0.1       0.0       0.4       0.0       0.0       0.2
 0 C  dxz             0.3       0.4       0.6       0.1       0.1       0.1
 0 C  dyz             0.4       0.0       0.1       0.1       0.0       0.1
 0 C  dx2y2           0.0       0.1       0.0       0.2       0.1       0.4
 0 C  dxy             0.0       0.0       0.4       1.8       0.7       0.0
 1 C  s               8.3       1.3       1.1       1.5       1.7       0.4
 1 C  pz              8.7       8.7       2.5       3.1       1.9       0.4
 1 C  px              2.5       5.2       5.6       1.4       5.1       7.9
 1 C  py              5.1       1.4       2.6       3.8       2.6      11.0
 1 C  dz2             0.0       0.4       0.3       0.3       0.0       0.1
 1 C  dxz             0.1       0.1       0.7       0.8       0.9       0.0
 1 C  dyz             0.4       0.2       0.1       0.1       0.1       1.2
 1 C  dx2y2           0.0       0.3       0.0       0.0       0.1       0.0
 1 C  dxy             0.3       0.4       0.2       0.5       0.1       0.2
 2 C  s               0.7      11.1       2.5       1.2       6.2       0.2
 2 C  pz              2.9       2.2       6.2       5.1       0.5       1.0
 2 C  px              0.9       0.4       8.4       3.0       3.3       3.9
 2 C  py              1.3      21.0       0.3       3.3       2.1       0.4
 2 C  dz2             0.1       0.0       0.0       0.2       0.0       0.3
 2 C  dxz             0.3       0.2       0.7       0.1       0.0       0.0
 2 C  dyz             0.2       0.5       0.1       0.2       0.1       0.6
 2 C  dx2y2           0.1       0.2       0.1       0.3       0.3       0.0
 2 C  dxy             0.2       0.1       0.9       1.2       0.5       0.4
 3 C  s               1.8       0.5       1.6       0.1       6.4       0.3
 3 C  pz              0.3       3.0       0.7       0.5       1.2       6.7
 3 C  px              0.9       3.0       3.0       5.5       1.0      10.6
 3 C  py              1.5       7.4       2.6       8.4       2.6       5.3
 3 C  dz2             0.0       0.0       0.2       0.1       0.1       0.4
 3 C  dxz             0.0       0.3       1.3       0.1       0.4       0.0
 3 C  dyz             0.0       0.4       0.1       0.1       0.1       0.3
 3 C  dx2y2           0.2       0.0       0.0       0.2       0.0       0.1
 3 C  dxy             0.1       0.6       0.0       0.2       0.0       0.1
 4 N  s               1.1       0.0       0.2       0.6       1.4       0.5
 4 N  pz              0.6       0.4       5.2       0.0       1.0       0.7
 4 N  px              0.2       0.1       0.3       1.7       0.9       0.1
 4 N  py              0.2       0.2       0.1       0.2       0.6       0.3
 4 N  dz2             0.5       1.3       0.1       0.5       0.0       1.2
 4 N  dxz             0.6       1.4       1.8       0.1       0.0       0.8
 4 N  dyz             0.7       0.1       0.8       0.7       0.2       0.2
 4 N  dx2y2           0.3       0.9       1.5       0.1       0.1       1.7
 4 N  dxy             0.8       1.0       3.1       0.2       6.6       0.3
 5 H  s               0.4       1.4       1.6       1.9       0.1       0.6
 5 H  pz              0.0       0.6       0.2       0.0       0.0       0.0
 5 H  px              0.7       0.1       0.2       0.6       0.0       0.5
 5 H  py              0.1       0.0       0.0       0.6       0.5       0.1
 6 H  s               3.8       0.5       0.2       4.3       1.3       0.9
 6 H  pz              0.3       0.4       0.3       0.1       0.0       0.1
 6 H  px              0.2       0.1       0.0       0.9       0.3       0.1
 6 H  py              1.8       0.2       0.0       0.3       0.0       0.1
 7 H  s               0.7       0.1       7.4       0.3       1.1       1.5
 7 H  pz              0.4       0.0       1.5       0.3       0.5       0.1
 7 H  px              0.8       0.1       0.4       0.0       0.0       0.0
 7 H  py              0.0       0.0       0.5       0.8       0.0       0.0
 8 H  s               0.3       0.8       1.6       0.2       1.5       4.4
 8 H  pz              0.8       1.2       0.2       0.0       0.1       1.4
 8 H  px              0.3       0.1       0.6       0.2       0.1       0.1
 8 H  py              0.1       0.0       0.0       0.0       0.0       0.9
 9 H  s               0.1       2.0       0.2       1.5       3.5       3.8
 9 H  pz              0.4       0.1       0.1       0.2       0.8       0.4
 9 H  px              0.0       0.1       0.4       0.3       0.9       0.5
 9 H  py              0.5       0.5       0.0       0.0       0.1       0.6
10 H  s               0.5       0.6       1.6       7.1       0.6       0.2
10 H  pz              0.7       0.0       0.0       0.1       0.4       0.0
10 H  px              0.0       0.1       0.6       0.7       0.0       0.2
10 H  py              0.0       0.9       0.8       0.9       0.2       0.0
11 H  s               0.8       0.9       2.7       1.1       1.7       1.1
11 H  pz              0.1       0.7       0.0       0.2       0.4       0.2
11 H  px              0.1       0.0       0.7       0.1       0.5       0.1
11 H  py              0.1       1.3       0.1       0.6       0.1       0.0
12 H  s               2.8       0.5       2.8       3.0       0.3       1.0
12 H  pz              0.1       0.7       0.1       0.2       0.2       0.0
12 H  px              0.3       0.0       0.6       0.5       0.0       0.1
12 H  py              0.8       0.1       0.3       0.7       0.4       0.5
13 H  s               0.1       3.7       1.1       0.1       6.3       5.0
13 H  pz              0.0       0.3       0.1       0.0       0.8       1.7
13 H  px              0.0       0.0       0.2       0.2       1.4       0.3
13 H  py              0.2       0.8       0.4       0.1       0.4       0.4
14 H  s               0.7       0.7       2.4       0.0       0.8       0.1
14 H  pz              0.3       0.1       0.2       0.0       0.3       0.1
14 H  px              0.1       0.0       0.4       0.0       0.1       0.2
14 H  py              0.0       0.0       0.3       0.0       0.0       0.0
15 H  s               1.0       0.1       1.0       0.7       5.8       0.2
15 H  px              0.2       0.0       0.3       0.1       0.8       0.0
15 H  py              0.1       0.0       0.2       0.1       0.8       0.1

                     30        31        32        33        34        35   
                   0.20116   0.20663   0.21117   0.21402   0.23283   0.23551
                   0.00000   0.00000   0.00000   0.00000   0.00000   0.00000
                  --------  --------  --------  --------  --------  --------
 0 C  s               0.3       0.0       0.0       0.3       3.8       1.0
 0 C  pz              1.0      24.2       4.0       1.3      12.6       3.1
 0 C  px              9.9       1.9      10.9      13.2       0.7       2.2
 0 C  py              0.1       3.3       0.8       6.2       1.9      29.3
 0 C  dz2             0.7       0.1       0.0       1.0       0.0       0.0
 0 C  dxz             0.5       0.5       0.0       1.0       0.0       0.4
 0 C  dyz             0.4       0.3       0.9       1.8       0.6       0.0
 0 C  dx2y2           0.1       0.0       0.2       0.2       0.2       0.4
 0 C  dxy             0.1       0.2       0.4       0.1       1.4       0.0
 1 C  s               1.9       0.2       0.2       0.2       1.2       1.5
 1 C  pz              5.0       1.5       2.0       0.6      10.2       6.2
 1 C  px              0.3       2.7       4.1       1.5       1.7       1.5
 1 C  py              4.4       0.8       2.5       1.1       4.6       2.8
 1 C  dz2             0.1       0.5       0.1       0.1       0.0       0.0
 1 C  dxz             0.2       0.4       0.3       0.7       0.2       0.1
 1 C  dyz             0.1       0.0       0.6       0.1       0.0       0.3
 1 C  dx2y2           0.0       0.1       0.3       0.8       0.0       0.2
 1 C  dxy             0.6       0.1       0.3       0.1       0.0       0.2
 2 C  s               0.6       0.4       0.1       0.7       1.2       0.2
 2 C  pz              4.4       1.5       7.9       2.6       5.3       0.0
 2 C  px              0.2       0.0      10.6       0.4       4.4       4.6
 2 C  py              0.8       3.8       4.2       1.2       4.1       5.1
 2 C  dz2             0.0       0.3       0.3       0.2       0.4       0.6
 2 C  dxz             0.0       0.6       0.1       0.3       0.0       0.1
 2 C  dyz             0.0       0.0       0.4       0.2       0.3       0.6
 2 C  dx2y2           0.2       0.1       0.1       0.0       0.0       0.0
[...]
 1 C  dxz             1.5       3.7       0.0       2.8       0.0       0.0
 1 C  dyz             0.1       4.5       0.2       3.2       0.0       0.0
 1 C  dx2y2           0.0       0.1       0.5       0.1       0.0       0.0
 1 C  dxy             0.9       0.2       7.2       0.2       0.0       0.0
 2 C  s               0.3       0.5       0.1       0.0       0.1       0.0
 2 C  pz              4.7       0.1       0.2       4.1       0.0       0.0
 2 C  px              1.1       0.3       3.2       0.6       0.0       0.0
 2 C  py              3.2       0.2       0.2       0.1       0.2       0.0
 2 C  dz2             0.6       0.0       0.4       2.3       0.0       0.0
 2 C  dxz             0.2       1.6       0.1       0.3       0.2       0.0
 2 C  dyz             4.2       0.2       0.5       5.4       0.0       0.0
 2 C  dx2y2           1.1       0.0       0.1       0.4       0.0       0.0
 2 C  dxy             6.8       0.0       3.5       2.4       0.0       0.0
 3 C  s               0.1       0.0       1.8       0.1       1.3       0.0
 3 C  pz              0.2       0.3       4.0       0.3       5.1       0.0
 3 C  px              4.9       1.0       0.0       1.8       2.2       0.1
 3 C  py              0.4       1.6       1.7       3.5       0.4       0.0
 3 C  dz2             1.0       0.4       0.0       2.0       1.4       0.1
 3 C  dxz             0.5       2.4       0.4       2.7       7.5       0.1
 3 C  dyz             1.7       3.0       0.1       4.5       0.7       0.1
 3 C  dx2y2           0.6       1.2       1.2       1.2       0.6       0.0
 3 C  dxy             0.7       0.0       6.1       0.7       0.7       0.1
 4 N  s               0.5       0.1       9.0       0.0       1.4       0.0
 4 N  pz              0.3       0.0       0.5       0.0       8.9       6.8
 4 N  px              0.0       0.1       1.2       0.0       5.0       8.8
 4 N  py              0.0       0.0       0.5       0.1       5.3       0.2
 4 N  dz2             0.6       0.1       0.5       0.0       4.3       6.0
 4 N  dxz             0.0       0.0       0.8       0.0      30.8       2.6
 4 N  dyz             0.1       0.1       1.8       0.1       0.0      12.5
 4 N  dx2y2           0.0       0.1       2.0       0.6       0.8       0.1
 4 N  dxy             0.2       0.0       3.2       0.0       0.9      23.6
 5 H  s               2.0       0.0       0.4       0.0       0.0       0.0
 5 H  pz              2.0       0.1       0.1       0.0       0.0       0.0
 5 H  px              2.0       0.0       0.8       0.0       0.0       0.0
 5 H  py              0.5       0.0       0.2       0.1       0.0       0.0
 6 H  s               0.1       2.6       0.6       0.0       0.0       0.0
 6 H  pz              0.0       0.9       0.1       0.0       0.0       0.0
 6 H  px              0.0       1.3       0.7       0.0       0.0       0.0
 6 H  py              0.6       4.6       1.2       0.2       0.0       0.0
 7 H  s               0.6       3.1       0.4       0.0       0.0       0.0
 7 H  pz              0.3       5.6       0.5       0.0       0.0       0.0
 7 H  px              1.1       1.2       0.1       0.0       0.0       0.0
 7 H  py              0.3       1.0       0.5       0.0       0.0       0.0
 8 H  s               0.5       4.2       0.2       2.2       0.0       0.0
 8 H  pz              1.3       6.0       0.2       4.9       0.1       0.0
 8 H  px              0.1       2.5       0.1       0.6       0.0       0.0
 8 H  py              0.1       2.4       0.6       0.3       0.0       0.0
 9 H  s               0.9       1.1       2.4       2.1       0.0       0.0
 9 H  pz              0.6       1.1       0.4       0.5       0.0       0.0
 9 H  px              0.4       0.2       2.6       1.8       0.0       0.0
 9 H  py              1.3       1.1       4.0       2.1       0.0       0.0
10 H  s               6.1       0.1       0.0       2.6       0.0       0.0
10 H  pz              2.4       0.1       0.0       0.5       0.0       0.0
10 H  px              3.1       0.0       0.1       1.3       0.0       0.0
10 H  py              9.4       0.5       0.0       3.8       0.0       0.0
11 H  s               2.3       0.1       0.0       3.2       0.1       0.0
11 H  pz              2.7       0.4       0.1       4.3       0.1       0.0
11 H  px              0.3       0.0       0.1       1.7       0.1       0.0
11 H  py              2.6       0.3       0.0       1.1       0.0       0.0
12 H  s               0.9       1.5       1.8       3.5       0.2       0.0
12 H  pz              0.7       0.7       0.2       2.5       0.1       0.0
12 H  px              0.0       0.8       1.7       0.8       0.0       0.0
12 H  py              1.4       2.4       3.8       5.4       0.3       0.0
13 H  s               2.0       2.1       0.6       2.7       0.4       0.1
13 H  pz              3.8       3.1       0.2       2.8       0.1       0.1
13 H  px              0.5       1.6       1.2       2.3       0.7       0.1
13 H  py              0.8       0.4       0.9       0.4       0.2       0.0
14 H  s               0.0       0.1       1.1       0.0       2.6       8.2
14 H  pz              0.0       0.1       1.8       0.0       2.4       7.2
14 H  px              0.1       0.0       1.0       0.2       2.9       2.8
14 H  py              0.0       0.0       0.8       0.2       0.4       2.3
15 H  s               0.0       0.0       0.7       0.0       3.8       7.4
15 H  pz              0.0       0.1       0.1       0.0       1.5       0.3
15 H  px              0.0       0.1       2.0       0.1       3.8       5.4
15 H  py              0.1       0.0       1.6       0.3       2.1       4.8

                    150       151       152       153       154   
                  21.93466  21.97709  22.04557  22.05492  31.86141
                   0.00000   0.00000   0.00000   0.00000   0.00000
                  --------  --------  --------  --------  --------
 0 C  s              80.8      11.7       0.0       7.1       0.0
 1 C  s               0.6      13.0      79.6       6.5       0.0
 2 C  s               8.1       0.0       5.4      86.1       0.0
 3 C  s              10.1      74.9      14.6       0.0       0.1
 4 N  s               0.0       0.0       0.0       0.0      99.7


                      *****************************
                      * MAYER POPULATION ANALYSIS *
                      *****************************

  NA   - Mulliken gross atomic population
  ZA   - Total nuclear charge
  QA   - Mulliken gross atomic charge
  VA   - Mayer's total valence
  BVA  - Mayer's bonded valence
  FA   - Mayer's free valence

  ATOM       NA         ZA         QA         VA         BVA        FA
  0 C      6.5289     6.0000    -0.5289     3.8218     3.8218     0.0000
  1 C      6.2357     6.0000    -0.2357     3.6052     3.6052     0.0000
  2 C      6.2547     6.0000    -0.2547     3.6140     3.6140     0.0000
  3 C      6.2402     6.0000    -0.2402     3.8039     3.8039     0.0000
  4 N      7.6536     7.0000    -0.6536     2.7058     2.7058    -0.0000
  5 H      0.8451     1.0000     0.1549     0.9592     0.9592    -0.0000
  6 H      0.8422     1.0000     0.1578     0.9598     0.9598    -0.0000
  7 H      0.8447     1.0000     0.1553     0.9609     0.9609    -0.0000
  8 H      0.8602     1.0000     0.1398     0.9648     0.9648    -0.0000
  9 H      0.8494     1.0000     0.1506     0.9587     0.9587     0.0000
 10 H      0.8498     1.0000     0.1502     0.9648     0.9648     0.0000
 11 H      0.8553     1.0000     0.1447     0.9656     0.9656     0.0000
 12 H      0.8606     1.0000     0.1394     0.9549     0.9549     0.0000
 13 H      0.8489     1.0000     0.1511     0.9504     0.9504    -0.0000
 14 H      0.7137     1.0000     0.2863     0.9132     0.9132     0.0000
 15 H      0.7172     1.0000     0.2828     0.9134     0.9134    -0.0000

  Mayer bond orders larger than 0.100000
B(  0-C ,  1-C ) :   0.8964 B(  0-C ,  5-H ) :   0.9673 B(  0-C ,  6-H ) :   0.9799 
B(  0-C ,  7-H ) :   0.9799 B(  1-C ,  2-C ) :   0.9077 B(  1-C ,  8-H ) :   0.9780 
B(  1-C ,  9-H ) :   0.9649 B(  2-C ,  3-C ) :   0.9278 B(  2-C , 10-H ) :   0.9670 
B(  2-C , 11-H ) :   0.9697 B(  3-C ,  4-N ) :   0.9376 B(  3-C , 12-H ) :   0.9891 
B(  3-C , 13-H ) :   0.9710 B(  4-N , 14-H ) :   0.9064 B(  4-N , 15-H ) :   0.9025 


-------
TIMINGS
-------

Total SCF time: 0 days 0 hours 0 min 19 sec 

Total time                  ....      19.411 sec
Sum of individual times     ....      18.896 sec  ( 97.3%)

SCF preparation             ....       0.358 sec  (  1.8%)
Fock matrix formation       ....      17.154 sec  ( 88.4%)
  Startup                   ....       0.061 sec  (  0.4% of F)
  Split-RI-J                ....       2.105 sec  ( 12.3% of F)
  XC integration            ....      11.730 sec  ( 68.4% of F)
    XC Preparation          ....       0.000 sec  (  0.0% of XC)
    Basis function eval.    ....       2.241 sec  ( 19.1% of XC)
    Density eval.           ....       3.114 sec  ( 26.5% of XC)
    XC-Functional eval.     ....       1.874 sec  ( 16.0% of XC)
    XC-Potential eval.      ....       3.562 sec  ( 30.4% of XC)
  CPCM terms                ....       2.665 sec  ( 15.5% of F)
Diagonalization             ....       0.000 sec  (  0.0%)
Density matrix formation    ....       0.262 sec  (  1.3%)
Total Energy calculation    ....       0.051 sec  (  0.3%)
Population analysis         ....       0.089 sec  (  0.5%)
Orbital Transformation      ....       0.242 sec  (  1.2%)
Orbital Orthonormalization  ....       0.000 sec  (  0.0%)
DIIS solution               ....       0.663 sec  (  3.4%)
  MO trafo                  ....       0.000 sec  (  0.0 % of DIIS)
  Orb grad                  ....       0.000 sec  (  0.0 % of DIIS)
  Energy W gradient         ....       0.000 sec  (  0.0 % of DIIS)
  DIIS error                ....       0.006 sec  (  0.9 % of DIIS)
  DIIS work                 ....       0.417 sec  ( 62.8 % of DIIS)
  Form Q                    ....       0.000 sec  (  0.0 % of DIIS)
  Form QpQm                 ....       0.000 sec  (  0.0 % of DIIS)
  Exp/Cayley                ....       0.000 sec  (  0.0 % of DIIS)
  Orb update                ....       0.000 sec  (  0.0 % of DIIS)
  Wake-sleep                ....       0.025 sec  (  3.8 % of DIIS)
SOSCF solution              ....       0.076 sec  (  0.4%)
  MO trafo                  ....       0.047 sec  ( 61.7 % of SOSCF)
  Orb grad                  ....       0.001 sec  (  1.5 % of SOSCF)
  Rot update                ....       0.012 sec  ( 16.1 % of SOSCF)
  Step                      ....       0.016 sec  ( 20.6 % of SOSCF)
Finished LeanSCF after  19.5 sec

Maximum memory used throughout the entire LEANSCF-calculation: 20.1 MB


-------------------------------------------------------------------------------
                          DFT DISPERSION CORRECTION                            
                                                                               
                                DFTD4 V3.4.0                                   
-------------------------------------------------------------------------------
The R2SCAN3C composite method is recognized
Using three-body term ABC
Active option DFTDOPT                   ...         5   

-------------------------   ----------------
Dispersion correction           -0.003531244
-------------------------   ----------------

------------------   -----------------
gCP correction             0.010635147
------------------   -----------------

-------------------------   --------------------
FINAL SINGLE POINT ENERGY      -213.726970931028
-------------------------   --------------------


------------------------------------------------------------------------------
                              ORCA PROPERTY CALCULATIONS
------------------------------------------------------------------------------

GBWName                                 ... sp_solv.gbw
Number of atoms                         ...     16
Number of basis functions               ...    155
Max core memory                         ...   1024 MB

Electric properties:
Dipole moment                           ... YES
Quadrupole moment                       ...  NO
Static polarizability (Dipole/Dipole)   ...  NO
Static polarizability (Dipole/Quad.)    ...  NO
Static polarizability (Quad./Quad.)     ...  NO
Static polarizability (Velocity)        ...  NO

Atomic electric properties:
Dipole moment                           ...  NO
Quadrupole moment                       ...  NO
Static polarizability                   ...  NO

Choice of electric origin               ... Center of mass
Position of electric origin             ...    -0.000008    -0.000006     0.000002

General magnetic properties:
Magnetizability                         ...  NO

EPR properties:
g-Tensor (aka g-matrix)                 ...  NO
Zero-Field splitting spin-orbit         ...  NO
Zero-field splitting spin-spin          ...  NO
Hyperfine couplings                     ...  NO (   0 nuclei)
Quadrupole couplings                    ...  NO (   0 nuclei)
Contact density                         ...  NO (   0 nuclei)

NMR properties:
Chemical shifts                         ...  NO (   0 nuclei)
Spin-rotation constants                 ...  NO (   0 nuclei)
Spin-spin couplings                     ...  NO (   0 nuclei,    0 pairs)

Choice of magnetic origin               ... GIAO
Position of magnetic origin             ...     0.000000     0.000000     0.000000

Properties with geometric perturbations:
SCF Hessian                             ...  NO
IR spectrum                             ...  NO
VCD spectrum                            ...  NO
X-ray spectroscopy properties:
SCF XES/XAS/RIXS spectra                ...  NO


-------------
DIPOLE MOMENT
-------------

Method             : SCF
Type of density    : Electron Density
Multiplicity       :   1
Irrep              :   0
Energy             :  -213.7340748338699825 Eh
Relativity type    : 
Basis              : AO
                                X                 Y                 Z
Electronic contribution:     -2.258581605       0.430537227       0.422921936
Nuclear contribution   :      2.527742384      -1.004057708      -0.590956447
                        -----------------------------------------
Total Dipole Moment    :      0.269160778      -0.573520481      -0.168034512
                        -----------------------------------------
Magnitude (a.u.)       :      0.655445546
Magnitude (Debye)      :      1.666010178



--------------------
Rotational spectrum 
--------------------
 
Rotational constants in cm-1:             0.306264             0.088556             0.085723 
Rotational constants in MHz :          9181.570128          2654.833685          2569.900277 

Dipole components along the rotational axes: 
x,y,z [a.u.] :     0.265053    -0.502404    -0.327027 
x,y,z [Debye]:     0.673710    -1.277009    -0.831236 

 

Dipole moment calculation done in   0.0 sec 

Maximum memory used throughout the entire PROP-calculation: 9.0 MB

--------------------------------
SUGGESTED CITATIONS FOR THIS RUN
--------------------------------

Below you find a list of papers that are relevant to this ORCA run
We neither can nor want to force you to cite these papers, but we appreciate if you do
You receive ORCA, which is the product of decades of hard work by many enthusiastic individuals, for free
The only thing we kindly ask in return is that you cite our papers,
We deeply appreciate it, if you show your appreciation for ORCA by not just citing the generic ORCA reference.

Please note that relegating all ORCA citations to the supporting information does *not* help us.
SI sections are not indexed - citations you put there will not count into any citation statistics
But we need these citations in order to attract the funding resources that allow us to do what we are doing

Therefore, if you are a happy ORCA user, please consider citing a few of the papers listed below in the main body of your paper

In addition to the list printed below, the program has created the file sp_solv.bibtex that contains the list in bibtex format
You can import this file easily into all common literature databanks and citation aid programs


List of essential papers. We consider these as the minimum necessary citations

  1. Neese,F.
     Software update: the ORCA program system, version 5.0
     WIRES Comput. Molec. Sci., 2022 12(1)e1606
     doi.org/10.1002/wcms.1606
  2. Grimme,S.; Hansen,A.; Ehlert,S.; Mewes,J.
     r2SCAN-3c: A 'Swiss army knife' composite electronic-structure method
     J. Chem. Phys., 2021 154 064103
     doi.org/10.1063/5.0040021

List of papers to cite with high priority. The work reported in these papers was absolutely
necessary for this run to complete.
Our perspective: the developers of density functionals and basis sets usually get cited in chemistry papers
Good! But without the algorithms to do something with them, the functionals or basis sets would not do anything.
Hence, in our opinion, the algorithm design and method developments papers are equally worthy of getting cited

  1. Neese,F.
     An improvement of the resolution of the identity approximation for the formation of the Coulomb matrix
     J. Comp. Chem., 2003 24(14)1740-1747
     doi.org/10.1002/jcc.10318
  2. Garcia-Rates,M.; Neese,F.
     Effect of the Solute Cavity on the Solvation Energy and its Derivatives within the Framework of the Gaussian Charge Scheme
     J. Comput. Chem., 2020 41 922-939
     doi.org/10.1002/jcc.26139
  3. Neese,F.
     The SHARK Integral Generation and Digestion System
     J. Comp. Chem., 2022  1-16
     doi.org/10.1002/jcc.26942
  4. Lehtola,S.; Steigemann,C.; Oliveira,M.; Marques,M.
     Recent developments in Libxc - A comprehensive library of functionals for density functional theory
     Software X, 2018 7 
     doi.org/10.1016/j.softx.2017.11.002
  5. Caldeweyher,E.; Bannwarth,C.; Grimme,S.
     Extension of the D3 dispersion coefficient model
     J. Chem. Phys., 2017 147 034112-XXXX
     doi.org/10.1063/1.4993215
  6. Caldeweyher,E.; Ehlert,S.; Hansen,A.; Neugebauer,H.; Spicher,S.; Bannwarth,C.; Grimme,S.
     A generally applicable atomic-charge dependent London dispersion correction
     J. Chem. Phys., 2019 150 154122-XXXX
     doi.org/10.1063/1.5090222
  7. Caldeweyher,E.; Mewes,J.; Ehlert,S.; Grimme,S.
     Extension and evaluation of the D4 London-dispersion model for periodic systems
     Phys. Chem. Chem. Phys., 2020 22(16)8499-8512
     doi.org/10.1039/D0CP00502A

List of suggested additional citations. These are papers that are important in the 'surrounding' of 
of this run, or papers that preceded the highly important papers. If you like your results we are grateful for a citation.

  1. Neese,F.
     The ORCA program system
     WIRES Comput. Molec. Sci., 2012 2(1)73-78
     doi.org/10.1002/wcms.81
  2. Neese,F.
     Software update: the ORCA program system, version 4.0
     WIRES Comput. Molec. Sci., 2018 8(1)1-6
     doi.org/10.1002/wcms.1327
  3. Neese,F.; Wennmohs,F.; Becker,U.; Riplinger,C.
     The ORCA quantum chemistry program package
     J. Chem. Phys., 2020 152 Art. No. L224108
     doi.org/10.1063/5.0004608

List of optional additional citations

  1. Neese,F.
     Approximate second-order SCF convergence for spin unrestricted wavefunctions
     Chem. Phys. Lett., 2000 325(1-3)93-98
     doi.org/10.1016/s0009-2614(00)00662-x

Timings for individual modules:

Sum of individual times          ...       20.984 sec (=   0.350 min)
Startup calculation              ...        0.978 sec (=   0.016 min)   4.7 %
SCF iterations                   ...       19.905 sec (=   0.332 min)  94.9 %
Property calculations            ...        0.101 sec (=   0.002 min)   0.5 %
                             ****ORCA TERMINATED NORMALLY****
TOTAL RUN TIME: 0 days 0 hours 0 minutes 21 seconds 786 msec
