14
 energy: -16.967717439330 gnorm: 0.018578326518 xtb: 6.7.1 (edcfbbe)
C           -2.68438281066272       -0.98217582175463        0.15603695463493
C           -2.91599240857866        0.52492063085866        0.22027663777037
C           -1.76667614508745        1.39222208386163       -0.29761117118482
C           -0.48732157415722        1.35546361913380        0.51509316381809
I            0.92879495439443       -0.24430335402809       -0.06047468875490
H           -2.42238037472635       -1.30105057246621       -0.85900438716539
H           -1.87827764412141       -1.29774709058895        0.82464613411240
H           -3.59099950655078       -1.52002444185982        0.45315635326571
H           -3.13561319624523        0.81649204002509        1.25550393479523
H           -3.80855733451145        0.77456622313350       -0.36601754650356
H           -1.56000333305695        1.17430179061319       -1.35161164801583
H           -2.09601246098525        2.44104530518480       -0.26530018581034
H           -0.65529255435769        1.17883132942161        1.57800869614508
H            0.12089099452624        2.24684261569894        0.37543248179350
14
 energy: -16.968444969096 gnorm: 0.006759922051 xtb: 6.7.1 (edcfbbe)
C           -2.67079234240085       -0.97346645468312        0.15406242830793
C           -2.90833163819510        0.52862743392041        0.22654188509616
C           -1.75869240850173        1.39026251333086       -0.29723926896511
C           -0.48274806194250        1.33960008167365        0.51782332430538
I            0.88117752724305       -0.25954856135488       -0.07582907433858
H           -2.41001171398457       -1.28009992237421       -0.85884371298914
H           -1.87140766050626       -1.28592542559354        0.82328603780602
H           -3.57507819627474       -1.50559642776590        0.44669385824880
H           -3.12296003273633        0.81143597744666        1.26193471849053
H           -3.79563476684501        0.77058584848677       -0.36553840830841
H           -1.55339990939744        1.14880133742240       -1.34355261955194
H           -2.09546465225677        2.43393094310277       -0.27275109725331
H           -0.68401658976479        1.19082571494810        1.57627627552398
H            0.09553705144255        2.24995129867357        0.38527038252817
14
 energy: -16.968406297801 gnorm: 0.007039433105 xtb: 6.7.1 (edcfbbe)
C           -2.66544663488407       -0.96654251287362        0.15315311715484
C           -2.91314186200257        0.53345314188388        0.23231408282540
C           -1.76975208367003        1.39749427128336       -0.30122561493718
C           -0.48651834569015        1.32319942770814        0.50528566991810
I            0.89940037124585       -0.24667778216597       -0.04768141646770
H           -2.40300021480610       -1.26219037149656       -0.85939519805202
H           -1.86747595784419       -1.27533540048121        0.82127531936838
H           -3.56525067208942       -1.50195847087586        0.44262778863517
H           -3.11672384994679        0.81007388960152        1.26955928396408
H           -3.80251716972867        0.77080616893157       -0.35483848391232
H           -1.57315419876937        1.14255856474197       -1.34439981709336
H           -2.10442976446725        2.43916918630685       -0.27664598408153
H           -0.68514043557220        1.16861696338249        1.56136148367362
H            0.10132742410447        2.22671728128697        0.37674449790501
14
 energy: -16.968562717786 gnorm: 0.001476755697 xtb: 6.7.1 (edcfbbe)
C           -2.66535717888775       -0.96800305671533        0.15345189738920
C           -2.91282412332059        0.53305169740777        0.23133676576405
C           -1.76690670982537        1.39524047398403       -0.30180040389936
C           -0.48627269619443        1.33078095041686        0.51195412794692
I            0.89244314751240       -0.26124221273178       -0.06252038074019
H           -2.39957355536627       -1.26324521404108       -0.85908919480098
H           -1.86774562627684       -1.27649318357905        0.82329652465830
H           -3.56568773438079       -1.50547506904805        0.44056942953769
H           -3.11680343161441        0.81197445404626        1.26802103753052
H           -3.80287604209117        0.77150749321983       -0.35479209968424
H           -1.56825682205767        1.13948747689664       -1.34463188819254
H           -2.10037412791196        2.43722089126911       -0.28127536722530
H           -0.69001119091881        1.17683734262249        1.56823052825519
H            0.09842269721315        2.23774231348584        0.38538375236123
14
 energy: -16.968551326018 gnorm: 0.002687098043 xtb: 6.7.1 (edcfbbe)
C           -2.66568930555683       -0.96816886852807        0.15359799356408
C           -2.91323808866713        0.53355494911054        0.23201980825096
C           -1.76435772083690        1.39129812236626       -0.30371302782068
C           -0.48806507608343        1.33523752691370        0.51790989861419
I            0.87852694185988       -0.25325847478857       -0.07199086033697
H           -2.39350528265216       -1.26099312907059       -0.85843190515124
H           -1.87036535826865       -1.27596200208647        0.82719799703881
H           -3.56690541464377       -1.50819716385639        0.43494721425115
H           -3.11557505645615        0.81430316151506        1.26852643379535
H           -3.80429279969460        0.77285016827425       -0.35231120970454
H           -1.56289077520556        1.13070170125963       -1.34475907020167
H           -2.09441989996525        2.43410453666681       -0.28979845986125
H           -0.69235110502337        1.17480300235567        1.57311072194347
H            0.10130554707341        2.23911082710172        0.39182919451880
14
 energy: -16.968578723717 gnorm: 0.001066467391 xtb: 6.7.1 (edcfbbe)
C           -2.66526350595351       -0.96717590091563        0.15358073314409
C           -2.91358128958143        0.53442933285750        0.23333792015805
C           -1.76586783491811        1.39243988630162       -0.30440605729267
C           -0.48781089230540        1.33294568152644        0.51477394758689
I            0.88502638381439       -0.25567180023601       -0.06855963695445
H           -2.39137055416242       -1.25840925515695       -0.85827988375287
H           -1.87096308458033       -1.27512555707773        0.82808777474410
H           -3.56643667083968       -1.50797704632123        0.43288237454322
H           -3.11378728354933        0.81441557569686        1.27035441860473
H           -3.80558363014419        0.77361159680959       -0.34935309616784
H           -1.56573920043792        1.12988762088915       -1.34500006720036
H           -2.09549893518168        2.43523722849710       -0.29111217913570
H           -0.69302793898740        1.17105344523469        1.56946762095226
H            0.09808104270650        2.23972354912814        0.39236085967102
14
 energy: -16.968572334380 gnorm: 0.001751334413 xtb: 6.7.1 (edcfbbe)
C           -2.66583785973412       -0.96534957470031        0.15388191677024
C           -2.91425261816349        0.53605610043051        0.23493645767239
C           -1.76716087279340        1.39248195588162       -0.30529140152715
C           -0.48916234313265        1.32737031874086        0.51419802777020
I            0.90035755021316       -0.25082280546992       -0.07173130455618
H           -2.38669773194670       -1.25455191033761       -0.85692846219827
H           -1.87533094270835       -1.27493409666153        0.83197956270163
H           -3.56837134032150       -1.50648698596181        0.42703993090711
H           -3.11102862989493        0.81550324032693        1.27268790708651
H           -3.80744394467315        0.77603222775156       -0.34547059318044
H           -1.56759164550979        1.12448743502190       -1.34447996308848
H           -2.09551168637985        2.43579433043108       -0.29631756592092
H           -0.69931136086475        1.16876356289666        1.56870818982535
H            0.09552003178903        2.23504055888360        0.39492202663849
14
 energy: -16.968583471209 gnorm: 0.000838123703 xtb: 6.7.1 (edcfbbe)
C           -2.66544053960268       -0.96532970539107        0.15400332280561
C           -2.91339513502352        0.53606186580500        0.23539835740266
C           -1.76702805462472        1.39245193616933       -0.30628060925041
C           -0.48809557169045        1.33046514010811        0.51177556189070
I            0.89492417216047       -0.25380581077168       -0.06808441982438
H           -2.38437000188912       -1.25413830467552       -0.85645196217445
H           -1.87623296083678       -1.27562157922705        0.83347430364341
H           -3.56870864867525       -1.50648954703253        0.42493762284846
H           -3.10879078697055        0.81547758932603        1.27351615818121
H           -3.80767723657165        0.77631680442601       -0.34337871067800
H           -1.56837791245389        1.12435297392815       -1.34556259328681
H           -2.09634329673874        2.43549468909216       -0.29785517878120
H           -0.69453133802663        1.16228668140588        1.56518848663335
H            0.09224391682303        2.24186162407072        0.39745438949033
14
 energy: -16.968586599339 gnorm: 0.000506576998 xtb: 6.7.1 (edcfbbe)
C           -2.66583763096474       -0.96612099019913        0.15403388264768
C           -2.91330125287379        0.53545537176323        0.23454585141947
C           -1.76592824578717        1.39172779134739       -0.30568444897985
C           -0.48852229987112        1.33163933131245        0.51450621771600
I            0.89070182565476       -0.25137657393019       -0.07185723025970
H           -2.38558290567271       -1.25608753194178       -0.85641581293529
H           -1.87603085788046       -1.27600029686718        0.83302297151574
H           -3.56909372963271       -1.50680513068998        0.42637276089419
H           -3.11071873375824        0.81551035073961        1.27213128724400
H           -3.80660633170416        0.77552193439780       -0.34582665718781
H           -1.56579398570011        1.12488762074714       -1.34515170942721
H           -2.09501979214697        2.43484196609531       -0.29692497544019
H           -0.69536738242137        1.16600586360477        1.56837033622674
H            0.09527792863830        2.24018465085409        0.39701225546671
14
 energy: -16.968587964401 gnorm: 0.000060957069 xtb: 6.7.1 (edcfbbe)
C           -2.66576158188774       -0.96563294629743        0.15417515263100
C           -2.91342946215252        0.53588662169642        0.23494723435531
C           -1.76635086846449        1.39187841386315       -0.30604942456567
C           -0.48862575045667        1.33062752936523        0.51374408221425
I            0.89366758520425       -0.25112176606456       -0.07172350976828
H           -2.38390397689026       -1.25498690961198       -0.85595997600055
H           -1.87708164609280       -1.27590673407611        0.83430293036571
H           -3.56943604275490       -1.50644026620083        0.42466233034904
H           -3.10978114344587        0.81577481045572        1.27276707215499
H           -3.80718278340316        0.77608942085090       -0.34466566398073
H           -1.56666212396757        1.12385129798363       -1.34524758615764
H           -2.09530597787096        2.43502846785942       -0.29812793043563
H           -0.69600800141866        1.16418528491613        1.56738248406261
H            0.09403837948086        2.24015113249386        0.39792753367608
14
 energy: -16.968588023482 gnorm: 0.000029181861 xtb: 6.7.1 (edcfbbe)
C           -2.66574950193718       -0.96558589000113        0.15428133698199
C           -2.91340102195908        0.53594401845693        0.23494862609637
C           -1.76633352090750        1.39187878537125       -0.30613576115865
C           -0.48866157131217        1.33061129347445        0.51371845415541
I            0.89364140419257       -0.25091202556769       -0.07212106983240
H           -2.38314869509056       -1.25493761388425       -0.85564570378607
H           -1.87756075583312       -1.27589742189503        0.83496306616886
H           -3.56961995406775       -1.50640205049947        0.42408149501216
H           -3.10976214622837        0.81592418259934        1.27274740499301
H           -3.80716709172690        0.77609915355022       -0.34466127650971
H           -1.56663840324991        1.12373955708678       -1.34530528165251
H           -2.09525714411332        2.43504258560947       -0.29836777588801
H           -0.69602159406906        1.16359877536320        1.56727178751321
H            0.09385660218185        2.24028100756947        0.39835942680682
