
                                 *****************
                                 * O   R   C   A *
                                 *****************

                                            #,                                       
                                            ###                                      
                                            ####                                     
                                            #####                                    
                                            ######                                   
                                           ########,                                 
                                     ,,################,,,,,                         
                               ,,#################################,,                 
                          ,,##########################################,,             
                       ,#########################################, ''#####,          
                    ,#############################################,,   '####,        
                  ,##################################################,,,,####,       
                ,###########''''           ''''###############################       
              ,#####''   ,,,,##########,,,,          '''####'''          '####       
            ,##' ,,,,###########################,,,                        '##       
           ' ,,###''''                  '''############,,,                           
         ,,##''                                '''############,,,,        ,,,,,,###''
      ,#''                                            '''#######################'''  
     '                                                          ''''####''''         
             ,#######,   #######,   ,#######,      ##                                
            ,#'     '#,  ##    ##  ,#'     '#,    #''#        ,####,   ,####,        
            ##       ##  ##   ,#'  ##            #'  '#       #'       #'  '#        
            ##       ##  #######   ##           ,######,      #####,   #    #        
            '#,     ,#'  ##    ##  '#,     ,#' ,#      #,     #,   #   #,  ,#        
             '#######'   ##     ##  '#######'  #'      '#     '####' # '####'        



                #########################################################
                #                        -***-                          #
                #          Department of theory and spectroscopy        #
                #                                                       #
                #                      Frank Neese                      #
                #                                                       #
                #     Directorship, Architecture, Infrastructure        #
                #                    SHARK, DRIVERS                     #
                #        Core code/Algorithms in most modules           #
                #                                                       #
                #        Max Planck Institute fuer Kohlenforschung      #
                #                Kaiser Wilhelm Platz 1                 #
                #                 D-45470 Muelheim/Ruhr                 #
                #                      Germany                          #
                #                                                       #
                #                  All rights reserved                  #
                #                        -***-                          #
                #########################################################


                         Program Version 6.0.1  -  RELEASE   -


 With contributions from (in alphabetic order):
[Max-Planck-Institut fuer Kohlenforschung]                               
  Daniel Aravena         : Magnetic Suceptibility                        
  Michael Atanasov       : Ab Initio Ligand Field Theory (pilot matlab implementation)
  Alexander A. Auer      : GIAO ZORA, VPT2 properties, NMR spectrum      
  Ute Becker             : All parallelization in ORCA, NUMFREQ, NUMCALC 
  Giovanni Bistoni       : ED, misc. LED, open-shell LED, HFLD           
  Martin Brehm           : Molecular dynamics                            
  Dmytro Bykov           : pre 5.0 version of the SCF Hessian            
  Marcos Casanova-Páez   : Triplet and SCS-CIS(D). UHF-(DLPNO)-IP/EA/STEOM-CCSD. UHF-CVS-IP/STEOM-CCSD   
  Vijay G. Chilkuri      : MRCI spin determinant printing, contributions to CSF-ICE 
  Pauline Colinet        : FMM embedding                                 
  Dipayan Datta          : RHF DLPNO-CCSD density                        
  Achintya Kumar Dutta   : EOM-CC, STEOM-CC                              
  Nicolas Foglia         : Exact transition moments, OPA infrastructure, MCD improvements    
  Dmitry Ganyushin       : Spin-Orbit,Spin-Spin,Magnetic field MRCI      
  Miquel Garcia-Rates    : C-PCM and meta-GGA Hessian, CCSD/C-PCM, Gaussian charge scheme 
  Tiago L. C. Gouveia    : GS-ROHF, GS-ROCIS                             
  Yang Guo               : DLPNO-NEVPT2, F12-NEVPT2, CIM, IAO-localization        
  Andreas Hansen         : Spin unrestricted coupled pair/coupled cluster methods 
  Ingolf Harden          : AUTO-CI MPn and infrastructure                
  Benjamin Helmich-Paris : MC-RPA, TRAH-(SCF,CASSCF), AVAS, COSX integrals, SCF dyn. polar. 
  Lee Huntington         : MR-EOM, pCC                                   
  Robert Izsak           : Overlap fitted RIJCOSX, COSX-SCS-MP3, EOM     
  Riya Kayal             : Wick's Theorem for AUTO-CI, AUTO-CI UHF-CCSDT 
  Emily Kempfer          : AUTO-CI, RHF CISDT and CCSDT                  
  Christian Kollmar      : KDIIS, OOCD, Brueckner-CCSD(T), CCSD density, CASPT2, CASPT2-K, improved NEVPT2 
  Axel Koslowski         : Symmetry handling                             
  Simone Kossmann        : meta-GGA functionals, TD-DFT gradient, OOMP2, (MP2 Hessian; deprecated post 5.0) 
  Lucas Lang             : DCDCAS                                        
  Marvin Lechner         : AUTO-CI (C++ implementation), FIC-MRCC        
  Spencer Leger          : CASSCF response                               
  Dagmar Lenk            : GEPOL surface, SMD, ORCA-2-JSON               
  Dimitrios Liakos       : Extrapolation schemes; Compound Job, initial MDCI parallelization 
  Dimitrios Manganas     : Further ROCIS development; embedding schemes. LFT, Crystal Embedding 
  Dimitrios Pantazis     : SARC Basis sets                               
  Anastasios Papadopoulos: AUTO-CI, single reference methods and gradients 
  Taras Petrenko         : pre 6.0 DFT Hessian and TD-DFT gradient, (ASA, deprecated), ECA, 1-Electron XAS/XES, NRVS 
  Peter Pinski           : DLPNO-MP2, DLPNO-MP2 Gradient                 
  Christoph Reimann      : Effective Core Potentials                     
  Marius Retegan         : Local ZFS, SOC                                
  Christoph Riplinger    : Optimizer, TS searches, QM/MM, DLPNO-CCSD(T), (RO)-DLPNO pert. Triples 
  Michael Roemelt        : Original ROCIS implementation                 
  Masaaki Saitow         : Open-shell DLPNO-CCSD energy and density      
  Barbara Sandhoefer     : DKH picture change effects                    
  Kantharuban Sivalingam : CASSCF convergence/infrastructure, NEVPT2 and variants, FIC-MRCI 
  Bernardo de Souza      : ESD, SOC TD-DFT                               
  Georgi L. Stoychev     : AutoAux, RI-MP2 NMR, DLPNO-MP2 response, X2C  
  Van Anh Tran           : RI-MP2 g-tensors                              
  Willem Van den Heuvel  : Paramagnetic NMR                              
  Zikuan Wang            : NOTCH, Electric field optimization            
  Frank Wennmohs         : Technical directorship and infrastructure     
  Hang Xu                : AUTO-CI-Response properties                   
                                                                         
[FACCTs GmbH]                                                            
  Markus Bursch, Miquel Garcia-Rates, Christoph Riplinger, Bernardo de Souza, Georgi L. Stoychev 
                                                                 
  APM, Basis sets (HGBS, AHGBS, def-TZVP (Ac-Lr), def2-XVPD (La-Lu)), CI-OPT, improved COSX, DLPNO-Multilevel,           
  DOCKER, DRACO, updates on ESD, GOAT, IRC, LR-CPCM, MBIS, meta-GGA TD-DFT gradient, ML-optimized integration grids, 
  MM, NACMEs, nearIR, NEB, NEB-TS, NL-DFT gradient (VV10), 2- and 3-layer-ONIOM, interface openCOSMO-RS, QMMM,   
  Crystal-QMMM, SF, symmetry and pop. for TD-DFT, r2SCAN hybrids, SOLVATOR                                   
                                                                         
[Other institutions]                                                     
  V. Asgeirsson          : NEB                                           
  Christoph Bannwarth    : sTDA-DFT, sTD-DFT, PBEh-3c, B97-3c, D3        
  Sebastian Ehlert       : rSCAN, r2SCAN, r2SCAN-3c, D4, dhf basis sets  
  Marvin Friede          : D4 for Fr, Ra, Ac-Lr                          
  Lars Goerigk           : TD-DFT with DH, B97 family of functionals     
  Stefan Grimme          : VdW corrections, initial TS optimization, DFT functionals, gCP, sTDA/sTD-DF 
  Waldemar Hujo          : DFT-NL                                        
  H. Jonsson             : NEB                                           
  Holger Kruse           : gCP                                           
  Marcel Mueller         : wB97X-3c, vDZP basis set                      
  Hagen Neugebauer       : wr2SCAN                                       
  Tobias Risthaus        : range-separated hybrid DFT                    
  Lukas Wittmann         : regularized MP2, r2SCAN double-hybrids, wr2SCAN        
                                                                         
We gratefully acknowledge several colleagues who have allowed us to      
interface, adapt or use parts of their codes:                            
  Ed Valeev, F. Pavosevic, A. Kumar             : LibInt (2-el integral package), F12 methods 
  Garnet Chan, S. Sharma, J. Yang, R. Olivares  : DMRG                   
  Ulf Ekstrom                                   : XCFun DFT Library      
  Mihaly Kallay                                 : mrcc  (arbitrary order and MRCC methods)
  Frank Weinhold                                : gennbo (NPA and NBO analysis)           
  Simon Mueller                                 : openCOSMO-RS                            
  Christopher J. Cramer and Donald G. Truhlar   : smd solvation model                     
  S Lehtola, MJT Oliveira, MAL Marques          : LibXC Library                           
  Liviu Ungur et al                             : ANISO software                          


 Your calculation uses the libint2 library for the computation of 2-el integrals
 For citations please refer to: http://libint.valeyev.net

 Your ORCA version has been built with support for libXC version: 6.2.2
 For citations please refer to: https://libxc.gitlab.io

 This ORCA versions uses:
   CBLAS   interface :  Fast vector & matrix operations
   LAPACKE interface :  Fast linear algebra routines
   SCALAPACK package :  Parallel linear algebra routines
   Shared memory     :  Shared parallel matrices
   BLAS/LAPACK       :  OpenBLAS 0.3.27  USE64BITINT DYNAMIC_ARCH NO_AFFINITY Zen SINGLE_THREADED
        Core in use  :  Zen
   Copyright (c) 2011-2014, The OpenBLAS Project


Your calculation utilizes the geometrical counterpoise correction gCP
Please cite in your paper:
H.Kruse, S. Grimme J.Chem.Phys., 136, (2012), 154101 
   

Your calculation utilizes the atom-pairwise dispersion correction
based on EEQ partial charges (D4)


================================================================================

----- Orbital basis set information -----
Your calculation utilizes the basis: def2-mTZVPP
   Stefan Grimme, Andreas Hansen, Sebastian Ehlert, and Jan-Michael Mewes 
   J. Chem. Phys. 154, 064103 (2021). DOI: 10.1063/5.0040021

----- AuxJ basis set information -----
Your calculation utilizes the auxiliary basis: def2/J
   F. Weigend, Phys. Chem. Chem. Phys. 8, 1057 (2006).

================================================================================
                                        WARNINGS
                       Please study these warnings very carefully!
================================================================================



WARNING: SCAN, rSCAN, or r2SCAN functional requested.
  ===> : libXC variant has now been activated.



================================================================================
                                       INPUT FILE
================================================================================
NAME = sp_gas.inp
|  1> ! r2scan-3c def2/J RI DEFGRID2 scfconv6 printgap
|  2> %output
|  3>     printlevel normal
|  4> end
|  5> * xyz 0 1
|  6> C -3.815104855 0.9269500751 -1.6283787404
|  7> C -3.3078645195 -0.1267828762 -0.6422876365
|  8> H -3.5660091895 -1.128174984 -0.9971778299
|  9> C -1.8086361055 -0.0504902502 -0.4535826326
| 10> C -1.1957266467 1.1146308877 -0.0058521396
| 11> C 0.1738627472 1.1748210882 0.1570452919
| 12> C 0.9905113564 0.0759848116 -0.1086607723
| 13> C 0.350118577 -1.0767447756 -0.5496539968
| 14> C -1.0165809809 -1.1570678349 -0.7251750533
| 15> F 1.0868809838 -2.185864296 -0.8564101924
| 16> C 2.4487277242 0.1540863057 0.0714980202
| 17> C 3.1498097152 -0.8658083959 0.7091974361
| 18> C 4.5189350106 -0.7715060816 0.8807586303
| 19> C 5.205549 0.3376782638 0.4160287018
| 20> C 4.5156167266 1.3566254661 -0.2203195925
| 21> C 3.1465359182 1.268559274 -0.3892262426
| 22> C -3.9315815968 0.0240213103 0.7325323983
| 23> O -4.2578917179 -0.9189885075 1.4231328076
| 24> O -4.055698241 1.2749054059 1.1264009156
| 25> H -4.8852867891 0.8111094836 -1.7777294885
| 26> H -3.6210551618 1.9281364559 -1.2580598725
| 27> H -3.3111423688 0.7989586331 -2.582096436
| 28> H -1.7960320917 1.9799872132 0.2251783432
| 29> H 0.6317301959 2.0827795331 0.5167029371
| 30> H -1.4449826707 -2.0829855704 -1.0752267674
| 31> H 2.6200198263 -1.7298178355 1.0823569724
| 32> H 5.0503726703 -1.5678700041 1.3797302108
| 33> H 6.2744909857 0.4068058717 0.5484387305
| 34> H 5.0468087338 2.2216725931 -0.5875540955
| 35> H 2.6125458364 2.0560548117 -0.8992767329
| 36> H -4.4352314225 1.3547513449 2.0232320613
| 37> *
| 38> 
| 39>                          ****END OF INPUT****
================================================================================

                       ****************************
                       * Single Point Calculation *
                       ****************************

---------------------------------
CARTESIAN COORDINATES (ANGSTROEM)
---------------------------------
  C     -3.815105    0.926950   -1.628379
  C     -3.307865   -0.126783   -0.642288
  H     -3.566009   -1.128175   -0.997178
  C     -1.808636   -0.050490   -0.453583
  C     -1.195727    1.114631   -0.005852
  C      0.173863    1.174821    0.157045
  C      0.990511    0.075985   -0.108661
  C      0.350119   -1.076745   -0.549654
  C     -1.016581   -1.157068   -0.725175
  F      1.086881   -2.185864   -0.856410
  C      2.448728    0.154086    0.071498
  C      3.149810   -0.865808    0.709197
  C      4.518935   -0.771506    0.880759
  C      5.205549    0.337678    0.416029
  C      4.515617    1.356625   -0.220320
  C      3.146536    1.268559   -0.389226
  C     -3.931582    0.024021    0.732532
  O     -4.257892   -0.918989    1.423133
  O     -4.055698    1.274905    1.126401
  H     -4.885287    0.811109   -1.777729
  H     -3.621055    1.928136   -1.258060
  H     -3.311142    0.798959   -2.582096
  H     -1.796032    1.979987    0.225178
  H      0.631730    2.082780    0.516703
  H     -1.444983   -2.082986   -1.075227
  H      2.620020   -1.729818    1.082357
  H      5.050373   -1.567870    1.379730
  H      6.274491    0.406806    0.548439
  H      5.046809    2.221673   -0.587554
  H      2.612546    2.056055   -0.899277
  H     -4.435231    1.354751    2.023232

----------------------------
CARTESIAN COORDINATES (A.U.)
----------------------------
  NO LB      ZA    FRAG     MASS         X           Y           Z
   0 C     6.0000    0    12.011   -7.209503    1.751682   -3.077190
   1 C     6.0000    0    12.011   -6.250958   -0.239585   -1.213748
   2 H     1.0000    0     1.008   -6.738781   -2.131942   -1.884393
   3 C     6.0000    0    12.011   -3.417827   -0.095413   -0.857147
   4 C     6.0000    0    12.011   -2.259596    2.106347   -0.011059
   5 C     6.0000    0    12.011    0.328553    2.220090    0.296773
   6 C     6.0000    0    12.011    1.871795    0.143590   -0.205339
   7 C     6.0000    0    12.011    0.661628   -2.034753   -1.038696
   8 C     6.0000    0    12.011   -1.921060   -2.186541   -1.370382
   9 F     9.0000    0    18.998    2.053907   -4.130685   -1.618381
  10 C     6.0000    0    12.011    4.627425    0.291181    0.135112
  11 C     6.0000    0    12.011    5.952278   -1.636141    1.340189
  12 C     6.0000    0    12.011    8.539550   -1.457935    1.664393
  13 C     6.0000    0    12.011    9.837062    0.638119    0.786180
  14 C     6.0000    0    12.011    8.533279    2.563651   -0.416344
  15 C     6.0000    0    12.011    5.946091    2.397230   -0.735531
  16 C     6.0000    0    12.011   -7.429612    0.045394    1.384286
  17 O     8.0000    0    15.999   -8.046249   -1.736637    2.689331
  18 O     8.0000    0    15.999   -7.664159    2.409222    2.128589
  19 H     1.0000    0     1.008   -9.231854    1.532775   -3.359422
  20 H     1.0000    0     1.008   -6.842803    3.643650   -2.377389
  21 H     1.0000    0     1.008   -6.257152    1.509813   -4.879455
  22 H     1.0000    0     1.008   -3.394009    3.741634    0.425525
  23 H     1.0000    0     1.008    1.193797    3.935883    0.976427
  24 H     1.0000    0     1.008   -2.730622   -3.936272   -2.031884
  25 H     1.0000    0     1.008    4.951120   -3.268882    2.045358
  26 H     1.0000    0     1.008    9.543821   -2.962845    2.607312
  27 H     1.0000    0     1.008   11.857070    0.768752    1.036399
  28 H     1.0000    0     1.008    9.537086    4.198353   -1.110316
  29 H     1.0000    0     1.008    4.936996    3.885381   -1.699387
  30 H     1.0000    0     1.008   -8.381373    2.560109    3.823355

--------------------------------
INTERNAL COORDINATES (ANGSTROEM)
--------------------------------
 C      0   0   0     0.000000000000     0.00000000     0.00000000
 C      1   0   0     1.529712899797     0.00000000     0.00000000
 H      2   1   0     1.093330633242   110.08321165     0.00000000
 C      2   1   3     1.512982478624   111.97749630   121.04386699
 C      4   2   1     1.390549483129   121.27661191    58.19063824
 C      5   4   2     1.380555519097   120.78307572   180.29155947
 C      6   5   4     1.394616730945   121.60688979   359.50505564
 C      7   6   5     1.390454399529   116.35531293     0.22797873
 C      8   7   6     1.380263422936   122.99826568     0.07054272
 F      8   7   6     1.366405619919   119.72224957   178.67067989
 C      7   6   5     1.471377588933   121.00971361   180.09638434
 C     11   7   6     1.392250590050   121.08134972   134.97630462
 C     12  11   7     1.383051063534   120.35516093   180.56285449
 C     13  12  11     1.384811391116   120.25238994   359.82473016
 C     14  13  12     1.385351614072   119.75847419     0.13590778
 C     15  14  13     1.382268921219   120.16796404     0.11177634
 C      2   1   3     1.517199730843   112.29316391   241.22040558
 O     17   2   1     1.213538106911   123.29690917   141.43719640
 O     17   2   1     1.317288264167   113.83225176   319.74248445
 H      1   2   3     1.086744708140   109.98059963    56.11691693
 H      1   2   3     1.084972587881   110.87444075   176.42554962
 H      1   2   3     1.086249252991   109.32756981   296.61356478
 H      5   4   2     1.078231552758   119.73930548     0.79823933
 H      6   5   4     1.078603152227   119.81322024   180.74150317
 H      9   8   7     1.078604590794   118.98002322   179.69839598
 H     12  11   7     1.080017443206   119.82014724   359.83196910
 H     13  12  11     1.079626843568   119.62499417   179.80616239
 H     14  13  12     1.079327573384   120.07786036   180.20859238
 H     15  14  13     1.079505748312   120.03948579   180.22180524
 H     16  15  14     1.079558304129   120.07783137   180.97759679
 H     19  17   2     0.977101281205   112.86942257   181.62846836

---------------------------
INTERNAL COORDINATES (A.U.)
---------------------------
 C      0   0   0     0.000000000000     0.00000000     0.00000000
 C      1   0   0     2.890738444142     0.00000000     0.00000000
 H      2   1   0     2.066095470654   110.08321165     0.00000000
 C      2   1   3     2.859122530021   111.97749630   121.04386699
 C      4   2   1     2.627757698779   121.27661191    58.19063824
 C      5   4   2     2.608871843767   120.78307572   180.29155947
 C      6   5   4     2.635443683272   121.60688979   359.50505564
 C      7   6   5     2.627578016815   116.35531293     0.22797873
 C      8   7   6     2.608319862017   122.99826568     0.07054272
 F      8   7   6     2.582132409497   119.72224957   178.67067989
 C      7   6   5     2.780500682674   121.00971361   180.09638434
 C     11   7   6     2.630972324985   121.08134972   134.97630462
 C     12  11   7     2.613587739307   120.35516093   180.56285449
 C     13  12  11     2.616914276343   120.25238994   359.82473016
 C     14  13  12     2.617935149782   119.75847419     0.13590778
 C     15  14  13     2.612109704535   120.16796404     0.11177634
 C      2   1   3     2.867091981752   112.29316391   241.22040558
 O     17   2   1     2.293254675139   123.29690917   141.43719640
 O     17   2   1     2.489314058704   113.83225176   319.74248445
 H      1   2   3     2.053649875873   109.98059963    56.11691693
 H      1   2   3     2.050301053907   110.87444075   176.42554962
 H      1   2   3     2.052713601329   109.32756981   296.61356478
 H      5   4   2     2.037562343665   119.73930548     0.79823933
 H      6   5   4     2.038264564894   119.81322024   180.74150317
 H      9   8   7     2.038267283390   118.98002322   179.69839598
 H     12  11   7     2.040937187518   119.82014724   359.83196910
 H     13  12  11     2.040199061174   119.62499417   179.80616239
 H     14  13  12     2.039633522485   120.07786036   180.20859238
 H     15  14  13     2.039970224303   120.03948579   180.22180524
 H     16  15  14     2.040069540404   120.07783137   180.97759679
 H     19  17   2     1.846453826580   112.86942257   181.62846836

---------------------
BASIS SET INFORMATION
---------------------
There are 4 groups of distinct atoms

 Group   1 Type C   : 11s6p1d contracted to 5s3p1d pattern {62111/411/1}
 Group   2 Type H   : 4s1p contracted to 2s1p pattern {31/1}
 Group   3 Type F   : 11s6p2d contracted to 5s3p2d pattern {62111/411/11}
 Group   4 Type O   : 11s6p2d contracted to 5s3p2d pattern {62111/411/11}

Atom   0C    basis set group =>   1
Atom   1C    basis set group =>   1
Atom   2H    basis set group =>   2
Atom   3C    basis set group =>   1
Atom   4C    basis set group =>   1
Atom   5C    basis set group =>   1
Atom   6C    basis set group =>   1
Atom   7C    basis set group =>   1
Atom   8C    basis set group =>   1
Atom   9F    basis set group =>   3
Atom  10C    basis set group =>   1
Atom  11C    basis set group =>   1
Atom  12C    basis set group =>   1
Atom  13C    basis set group =>   1
Atom  14C    basis set group =>   1
Atom  15C    basis set group =>   1
Atom  16C    basis set group =>   1
Atom  17O    basis set group =>   4
Atom  18O    basis set group =>   4
Atom  19H    basis set group =>   2
Atom  20H    basis set group =>   2
Atom  21H    basis set group =>   2
Atom  22H    basis set group =>   2
Atom  23H    basis set group =>   2
Atom  24H    basis set group =>   2
Atom  25H    basis set group =>   2
Atom  26H    basis set group =>   2
Atom  27H    basis set group =>   2
Atom  28H    basis set group =>   2
Atom  29H    basis set group =>   2
Atom  30H    basis set group =>   2
---------------------------------
AUXILIARY/J BASIS SET INFORMATION
---------------------------------
There are 4 groups of distinct atoms

 Group   1 Type C   : 12s5p4d2f1g contracted to 6s4p3d1f1g pattern {711111/2111/211/2/1}
 Group   2 Type H   : 5s2p1d contracted to 3s1p1d pattern {311/2/1}
 Group   3 Type F   : 12s5p4d2f1g contracted to 6s4p3d1f1g pattern {711111/2111/211/2/1}
 Group   4 Type O   : 12s5p4d2f1g contracted to 6s4p3d1f1g pattern {711111/2111/211/2/1}

Atom   0C    basis set group =>   1
Atom   1C    basis set group =>   1
Atom   2H    basis set group =>   2
Atom   3C    basis set group =>   1
Atom   4C    basis set group =>   1
Atom   5C    basis set group =>   1
Atom   6C    basis set group =>   1
Atom   7C    basis set group =>   1
Atom   8C    basis set group =>   1
Atom   9F    basis set group =>   3
Atom  10C    basis set group =>   1
Atom  11C    basis set group =>   1
Atom  12C    basis set group =>   1
Atom  13C    basis set group =>   1
Atom  14C    basis set group =>   1
Atom  15C    basis set group =>   1
Atom  16C    basis set group =>   1
Atom  17O    basis set group =>   4
Atom  18O    basis set group =>   4
Atom  19H    basis set group =>   2
Atom  20H    basis set group =>   2
Atom  21H    basis set group =>   2
Atom  22H    basis set group =>   2
Atom  23H    basis set group =>   2
Atom  24H    basis set group =>   2
Atom  25H    basis set group =>   2
Atom  26H    basis set group =>   2
Atom  27H    basis set group =>   2
Atom  28H    basis set group =>   2
Atom  29H    basis set group =>   2
Atom  30H    basis set group =>   2

Checking for AutoStart:
The File: sp_gas.gbw exists
Trying to determine its content:
     ... Fine, the file contains calculation information
     ... Fine, the calculation information was read
     ... Fine, the file contains a basis set
     ... Fine, the basis set was read
     ... Fine, the file contains a geometry
     ... Fine, the geometry was read
     ... Fine, the file contains a set of orbitals
     ... Fine, the orbitals can be read
     => possible old guess file was deleted
     => GBW file was renamed to GES file
     => GES file is set as startup file
     => Guess is set to MORead
     ... now leaving AutoStart

------------------------------------------------------------------------------
                             ORCA STARTUP CALCULATIONS
                           -- RI-GTO INTEGRALS CHOSEN --
------------------------------------------------------------------------------
------------------------------------------------------------------------------
                   ___                                                        
                  /   \      - P O W E R E D   B Y -                         
                 /     \                                                     
                 |  |  |   _    _      __       _____    __    __             
                 |  |  |  | |  | |    /  \     |  _  \  |  |  /  |          
                  \  \/   | |  | |   /    \    | | | |  |  | /  /          
                 / \  \   | |__| |  /  /\  \   | |_| |  |  |/  /          
                |  |  |   |  __  | /  /__\  \  |    /   |      \           
                |  |  |   | |  | | |   __   |  |    \   |  |\   \          
                \     /   | |  | | |  |  |  |  | |\  \  |  | \   \       
                 \___/    |_|  |_| |__|  |__|  |_| \__\ |__|  \__/        
                                                                              
                      - O R C A' S   B I G   F R I E N D -                    
                                      &                                       
                       - I N T E G R A L  F E E D E R -                       
                                                                              
 v1 FN, 2020, v2 2021, v3 2022-2024                                           
------------------------------------------------------------------------------


----------------------
SHARK INTEGRAL PACKAGE
----------------------

Number of atoms                             ...     31
Number of basis functions                   ...    422
Number of shells                            ...    204
Maximum angular momentum                    ...      2
Integral batch strategy                     ... SHARK/LIBINT Hybrid
RI-J (if used) integral strategy            ... SPLIT-RIJ (Revised 2003 algorithm where possible)
Printlevel                                  ...      1
Contraction scheme used                     ... SEGMENTED contraction
Prescreening option                         ... SCHWARTZ
   Thresh                                   ... 1.000e-10
   Tcut                                     ... 1.000e-11
   Tpresel                                  ... 1.000e-11 
Coulomb Range Separation                    ... NOT USED
Exchange Range Separation                   ... NOT USED
Multipole approximations                    ... NOT USED
Finite Nucleus Model                        ... NOT USED
CABS basis                                  ... NOT available
Auxiliary Coulomb fitting basis             ... AVAILABLE
   # of basis functions in Aux-J            ...   1025
   # of shells in Aux-J                     ...    335
   Maximum angular momentum in Aux-J        ...      4
Auxiliary J/K fitting basis                 ... NOT available
Auxiliary Correlation fitting basis         ... NOT available
Auxiliary 'external' fitting basis          ... NOT available

Checking pre-screening integrals            ... done (  0.0 sec) Dimension = 204
Check shell pair data                       ... done (  0.0 sec)
Shell pair information
Shell pair cut-off parameter TPreSel        ...   1.0e-11
Total number of shell pairs                 ...     20910
Shell pairs after pre-screening             ...     14812
Total number of primitive shell pairs       ...     77463
Primitive shell pairs kept                  ...     35278
          la=0 lb=0:   4540 shell pairs
          la=1 lb=0:   5666 shell pairs
          la=1 lb=1:   1793 shell pairs
          la=2 lb=0:   1629 shell pairs
          la=2 lb=1:   1027 shell pairs
          la=2 lb=2:    157 shell pairs

Calculating one electron integrals          ... done (  0.1 sec)
Calculating RI/J V-Matrix + Cholesky decomp.... done (  0.1 sec)
Calculating Nuclear repulsion               ... done (  0.0 sec) ENN=   1226.542247056170 Eh

Diagonalization of the overlap matrix:
Smallest eigenvalue                        ... 1.922e-05
Time for diagonalization                   ...    0.022 sec
Threshold for overlap eigenvalues          ... 1.000e-07
Number of eigenvalues below threshold      ... 0
Time for construction of square roots      ...    0.013 sec
Total time needed                          ...    0.036 sec

-------------------
DFT GRID GENERATION
-------------------

General Integration Accuracy     IntAcc      ... 4.388
Radial Grid Type                 RadialGrid  ... OptM3 with GC (2021)
Angular Grid (max. ang.)         AngularGrid ... 4 (Lebedev-302)
Angular grid pruning method      GridPruning ... 4 (adaptive)
Weight generation scheme         WeightScheme... mBecke (2022)
Basis function cutoff            BFCut       ... 1.0000e-10
Integration weight cutoff        WCut        ... 1.0000e-14
Partially contracted basis set               ... off
Rotationally invariant grid construction     ... off
Angular grids for H and He will be reduced by one unit
Diffuse basis detected: some atoms will have their outermost
                        angular grid increased by 1.

Total number of grid points                  ...   149911
Total number of batches                      ...     2359
Average number of points per batch           ...       63
Average number of grid points per atom       ...     4836
Initializing property integral containers    ... done (  0.0 sec)

SHARK setup successfully completed in   2.0 seconds

Maximum memory used throughout the entire STARTUP-calculation: 77.0 MB
-------------------------------------------------------------------------------
                                 ORCA GUESS
                   Start orbitals & Density for SCF / CASSCF
-------------------------------------------------------------------------------

------------
SCF SETTINGS
------------
Hamiltonian:
 Density Functional     Method          .... DFT(GTOs)
  Functional kind                       .... Exchange
  Functional name                       .... Re-regularized SCAN exchange by Furness et al
  Functional family                     .... MGGA
  Functional refs                              
    [ 0] J. W. Furness, A. D. Kaplan, J. Ning, J. P. Perdew, and J. Sun.,  J. Phys. Chem. Lett. 11, 8208-8215 (2020), doi: 10.1021/acs.jpclett.0c02405
    [ 1] J. W. Furness, A. D. Kaplan, J. Ning, J. P. Perdew, and J. Sun.,  J. Phys. Chem. Lett. 11, 9248-9248 (2020), doi: 10.1021/acs.jpclett.0c03077
  Functional external parameters        .... 6
    Parameter  0 _c1        =  6.670000e-01 : c1 parameter        
    Parameter  1 _c2        =  8.000000e-01 : c2 parameter        
    Parameter  2 _d         =  1.240000e+00 : d parameter         
    Parameter  3 _k1        =  6.500000e-02 : k1 parameter        
    Parameter  4 _eta       =  1.000000e-03 : eta parameter       
    Parameter  5 _dp2       =  3.610000e-01 : dp2 parameter       
  Functional kind                       .... Correlation
  Functional name                       .... Re-regularized SCAN correlation by Furness et al
  Functional family                     .... MGGA
  Functional refs                              
    [ 0] J. W. Furness, A. D. Kaplan, J. Ning, J. P. Perdew, and J. Sun.,  J. Phys. Chem. Lett. 11, 8208-8215 (2020), doi: 10.1021/acs.jpclett.0c02405
    [ 1] J. W. Furness, A. D. Kaplan, J. Ning, J. P. Perdew, and J. Sun.,  J. Phys. Chem. Lett. 11, 9248-9248 (2020), doi: 10.1021/acs.jpclett.0c03077
  Functional external parameters        .... 1
    Parameter  0 _eta       =  1.000000e-03 : Regularization parameter
 Gradients option       PostSCFGGA      .... off
 RI-approximation to the Coulomb term is turned on
   Number of AuxJ basis functions       .... 1025


General Settings:
 Integral files         IntName         .... sp_gas
 Hartree-Fock type      HFTyp           .... RHF
 Total Charge           Charge          ....    0
 Multiplicity           Mult            ....    1
 Number of Electrons    NEL             ....  128
 Basis Dimension        Dim             ....  422
 Nuclear Repulsion      ENuc            ....   1226.5422470562 Eh

Convergence Acceleration:
 AO-DIIS                CNVDIIS         .... on
   Start iteration      DIISMaxIt       ....    12
   Startup error        DIISStart       ....  0.200000
   # of expansion vecs  DIISMaxEq       ....     5
   Bias factor          DIISBfac        ....   1.050
   Max. coefficient     DIISMaxC        ....  10.000
 MO-DIIS                CNVKDIIS        .... off
 Trust-Rad. Augm. Hess. CNVTRAH         .... auto
   Auto Start mean grad. ratio tolernc. ....  1.125000
   Auto Start start iteration           ....     1
   Auto Start num. interpolation iter.  ....    10
   Max. Number of Micro iterations      ....    24
   Max. Number of Macro iterations      .... Maxiter - #DIIS iter
   Number of Davidson start vectors     ....     2
   Converg. threshold    (grad. norm)   ....   3.330e-04
   Grad. Scal. Fac. for Micro threshold ....   0.100
   Minimum threshold for Micro iter.    ....   1.000e-02
   NR start threshold (gradient norm)   ....   1.000e-04
   Initial trust radius                 ....   0.400
   Minimum AH scaling param. (alpha)    ....   1.000
   Maximum AH scaling param. (alpha)    .... 1000.000
   Quad. conv. algorithm                .... NR
   White noise on init. David. guess    .... on
   Maximum white noise                  ....   0.010
   Pseudo random numbers                .... off
   Inactive MOs                         .... canonical
   Orbital update algorithm             .... Taylor
   Preconditioner                       .... Diag
   Full preconditioner red. dimension   ....   250
   COSX micro iterations for RIJONX calc.... off
 SOSCF                  CNVSOSCF        .... on
   Start iteration      SOSCFMaxIt      ....   150
   Startup grad/error   SOSCFStart      ....  0.003300
   Hessian update       SOSCFHessUp     .... L-BFGS
 Level Shifting         CNVShift        .... on
   Level shift para.    LevelShift      ....    0.2500
   Turn off err/grad.   ShiftErr        ....    0.0010
 Zerner damping         CNVZerner       .... off
 Static damping         CNVDamp         .... on
   Fraction old density DampFac         ....    0.7000
   Max. Damping (<1)    DampMax         ....    0.9800
   Min. Damping (>=0)   DampMin         ....    0.0000
   Turn off err/grad.   DampErr         ....    0.1000

SCF Procedure:
 Maximum # iterations   MaxIter         ....   125
 SCF integral mode      SCFMode         .... Direct
   Integral package                     .... SHARK and LIBINT hybrid scheme
 Reset frequency        DirectResetFreq ....    20
 Integral Threshold     Thresh          ....  1.000e-10 Eh
 Primitive CutOff       TCut            ....  1.000e-11 Eh

Convergence Tolerance:
 Convergence Check Mode ConvCheckMode   .... Total+1el-Energy
 Convergence forced     ConvForced      .... 0
 Energy Change          TolE            ....  1.000e-06 Eh
 1-El. energy change                    ....  1.000e-03 Eh
 Orbital Gradient       TolG            ....  3.330e-04
 Orbital Rotation angle TolX            ....  3.330e-04
 DIIS Error             TolErr          ....  1.000e-06

---------------------
INITIAL GUESS: MOREAD
---------------------
Guess MOs are being read from file: sp_gas.ges
Input Geometry matches current geometry (good)
Atom 0: N(Shells)= 9 and 6 - projection required
Input basis set needs projection
NBasis(read)= 278
NBasis(calc)= 422
Basis set overlap was calculated
Using GuessMode=FMatrix for the initial guess
C*T matrix was formed
Effective Fockian was calculated
Effective Fockian was diagonalized
Initial density was built
                      ------------------
                      INITIAL GUESS DONE (   0.1 sec)
                      ------------------
             **** ENERGY FILE WAS UPDATED (sp_gas.en.tmp) ****
Finished Guess after   0.2 sec
Maximum memory used throughout the entire GUESS-calculation: 41.5 MB

-------------------------------------------------------------------------------------------
                                      ORCA LEAN-SCF
                              memory conserving SCF solver
-------------------------------------------------------------------------------------------

----------------------------------------D-I-I-S--------------------------------------------
Iteration    Energy (Eh)           Delta-E    RMSDP     MaxDP     DIISErr   Damp  Time(sec)
-------------------------------------------------------------------------------------------
               ***  Starting incremental Fock matrix formation  ***
    1    -829.1889764255815862     0.00e+00  1.02e-02  6.42e-01  8.28e-01  0.700   6.3
    2    -829.3032227708836217    -1.14e-01  7.50e-03  4.51e-01  5.83e-01  0.700   5.5
    3    -829.3837782160817369    -8.06e-02  5.29e-03  3.12e-01  4.09e-01  0.700   5.4
    4    -829.4403011729536956    -5.65e-02  3.71e-03  2.18e-01  2.86e-01  0.700   5.3
    5    -829.4799338203611114    -3.96e-02  2.60e-03  1.52e-01  2.00e-01  0.700   5.2
                               ***Turning on AO-DIIS***
    6    -829.5077115010467423    -2.78e-02  1.82e-03  1.07e-01  1.40e-01  0.700   5.1
    7    -829.5271741419901446    -1.95e-02  1.27e-03  7.50e-02  9.82e-02  0.700   5.0
    8    -829.5408088634881096    -1.36e-02  2.97e-03  1.75e-01  6.88e-02  0.000   4.8
                              *** Initializing SOSCF ***
---------------------------------------S-O-S-C-F--------------------------------------
Iteration    Energy (Eh)           Delta-E    RMSDP     MaxDP     MaxGrad    Time(sec)
--------------------------------------------------------------------------------------
    9    -829.5726593738440897    -3.19e-02  1.10e-05  8.30e-04  2.35e-04     5.2
               *** Restarting incremental Fock matrix formation ***
   10    -829.5726594564175684    -8.26e-08  1.12e-05  4.03e-04  5.32e-05     6.4
                  *** Gradient check signals convergence ***

               *****************************************************
               *                     SUCCESS                       *
               *           SCF CONVERGED AFTER  10 CYCLES          *
               *****************************************************

             **** ENERGY FILE WAS UPDATED (sp_gas.en.tmp) ****

----------------
TOTAL SCF ENERGY
----------------

Total Energy       :       -829.57265945641757 Eh          -22573.81969 eV

Components:
Nuclear Repulsion  :       1226.54224705617025 Eh           33375.91134 eV
Electronic Energy  :      -2056.11490651258782 Eh          -55949.73104 eV
One Electron Energy:      -3564.80215784081611 Eh          -97003.19826 eV
Two Electron Energy:       1508.68725132822829 Eh           41053.46723 eV

Virial components:
Potential Energy   :      -1656.00855388051559 Eh          -45062.28367 eV
Kinetic Energy     :        826.43589442409802 Eh           22488.46398 eV
Virial Ratio       :          2.00379553339041

DFT components:
N(Alpha)           :       64.000007809315 electrons
N(Beta)            :       64.000007809315 electrons
N(Total)           :      128.000015618630 electrons
E(X)               :     -109.503962938387 Eh       
E(C)               :       -4.201116933674 Eh       
E(XC)              :     -113.705079872061 Eh       

---------------
SCF CONVERGENCE
---------------

  Last Energy change         ...    8.2573e-08  Tolerance :   1.0000e-06
  Last MAX-Density change    ...    4.0293e-04  Tolerance :   1.0000e-05
  Last RMS-Density change    ...    1.1179e-05  Tolerance :   1.0000e-06
  Last DIIS Error            ...    2.3510e-04  Tolerance :   1.0000e-06
  Last Orbital Gradient      ...    5.3207e-05  Tolerance :   3.3300e-04
  Last Orbital Rotation      ...    1.2342e-04  Tolerance :   3.3300e-04


----------------
ORBITAL ENERGIES
----------------

  NO   OCC          E(Eh)            E(eV) 
   0   2.0000     -24.497540      -666.6120 
   1   2.0000     -19.014442      -517.4093 
   2   2.0000     -18.937963      -515.3282 
   3   2.0000     -10.167632      -276.6753 
   4   2.0000     -10.125406      -275.5263 
   5   2.0000     -10.067983      -273.9637 
   6   2.0000     -10.063220      -273.8341 
   7   2.0000     -10.058012      -273.6924 
   8   2.0000     -10.052926      -273.5540 
   9   2.0000     -10.049350      -273.4567 
  10   2.0000     -10.047776      -273.4139 
  11   2.0000     -10.042250      -273.2635 
  12   2.0000     -10.039934      -273.2005 
  13   2.0000     -10.038964      -273.1741 
  14   2.0000     -10.038213      -273.1537 
  15   2.0000     -10.037911      -273.1455 
  16   2.0000     -10.037558      -273.1358 
  17   2.0000     -10.037095      -273.1232 
  18   2.0000      -1.180783       -32.1307 
  19   2.0000      -1.088709       -29.6253 
  20   2.0000      -0.984625       -26.7930 
  21   2.0000      -0.854862       -23.2620 
  22   2.0000      -0.832055       -22.6414 
  23   2.0000      -0.791377       -21.5345 
  24   2.0000      -0.746310       -20.3081 
  25   2.0000      -0.727974       -19.8092 
  26   2.0000      -0.720561       -19.6075 
  27   2.0000      -0.695809       -18.9339 
  28   2.0000      -0.649252       -17.6670 
  29   2.0000      -0.617063       -16.7911 
  30   2.0000      -0.603050       -16.4098 
  31   2.0000      -0.579374       -15.7656 
  32   2.0000      -0.573982       -15.6189 
  33   2.0000      -0.558277       -15.1915 
  34   2.0000      -0.513527       -13.9738 
  35   2.0000      -0.490919       -13.3586 
  36   2.0000      -0.478366       -13.0170 
  37   2.0000      -0.464155       -12.6303 
  38   2.0000      -0.453475       -12.3397 
  39   2.0000      -0.450112       -12.2482 
  40   2.0000      -0.444561       -12.0971 
  41   2.0000      -0.432024       -11.7560 
  42   2.0000      -0.421203       -11.4615 
  43   2.0000      -0.419739       -11.4217 
  44   2.0000      -0.413114       -11.2414 
  45   2.0000      -0.402914       -10.9638 
  46   2.0000      -0.393215       -10.6999 
  47   2.0000      -0.386220       -10.5096 
  48   2.0000      -0.377558       -10.2739 
  49   2.0000      -0.369560       -10.0562 
  50   2.0000      -0.361363        -9.8332 
  51   2.0000      -0.354849        -9.6559 
  52   2.0000      -0.345215        -9.3938 
  53   2.0000      -0.335561        -9.1311 
  54   2.0000      -0.334264        -9.0958 
  55   2.0000      -0.327049        -8.8995 
  56   2.0000      -0.316272        -8.6062 
  57   2.0000      -0.308733        -8.4011 
  58   2.0000      -0.295975        -8.0539 
  59   2.0000      -0.265585        -7.2269 
  60   2.0000      -0.243021        -6.6129 
  61   2.0000      -0.241444        -6.5700 
  62   2.0000      -0.241084        -6.5602 
  63   2.0000      -0.216188        -5.8828 
  64   0.0000      -0.064780        -1.7628 
  65   0.0000      -0.040403        -1.0994 
  66   0.0000      -0.035191        -0.9576 
  67   0.0000      -0.027250        -0.7415 
  68   0.0000      -0.005257        -0.1431 
  69   0.0000       0.046186         1.2568 
  70   0.0000       0.054303         1.4776 
  71   0.0000       0.082273         2.2388 
  72   0.0000       0.087677         2.3858 
  73   0.0000       0.094972         2.5843 
  74   0.0000       0.104598         2.8463 
*Only the first 10 virtual orbitals were printed.

                    ********************************
                    * MULLIKEN POPULATION ANALYSIS *
                    ********************************

-----------------------
MULLIKEN ATOMIC CHARGES
-----------------------
   0 C :   -0.490684
   1 C :   -0.025417
   2 H :    0.157829
   3 C :    0.165237
   4 C :   -0.237135
   5 C :   -0.202722
   6 C :    0.063670
   7 C :    0.303366
   8 C :   -0.355036
   9 F :   -0.240380
  10 C :    0.103702
  11 C :   -0.178731
  12 C :   -0.171499
  13 C :   -0.135928
  14 C :   -0.170322
  15 C :   -0.210031
  16 C :    0.285229
  17 O :   -0.377559
  18 O :   -0.332524
  19 H :    0.154776
  20 H :    0.168453
  21 H :    0.159241
  22 H :    0.166383
  23 H :    0.154964
  24 H :    0.164020
  25 H :    0.155955
  26 H :    0.146113
  27 H :    0.146950
  28 H :    0.145623
  29 H :    0.152117
  30 H :    0.334339
Sum of atomic charges:   -0.0000000

--------------------------------
MULLIKEN REDUCED ORBITAL CHARGES
--------------------------------
  0 C s       :     3.348689  s :     3.348689
      pz      :     1.023896  p :     3.115446
      px      :     1.080042
      py      :     1.011508
      dz2     :     0.005955  d :     0.026549
      dxz     :     0.004448
      dyz     :     0.005466
      dx2y2   :     0.008297
      dxy     :     0.002384

  1 C s       :     2.987162  s :     2.987162
      pz      :     0.925106  p :     2.992990
      px      :     0.958053
      py      :     1.109832
      dz2     :     0.011040  d :     0.045265
      dxz     :     0.010469
      dyz     :     0.006790
      dx2y2   :     0.011160
      dxy     :     0.005805

  2 H s       :     0.824780  s :     0.824780
      pz      :     0.003672  p :     0.017390
      px      :     0.003473
      py      :     0.010245

  3 C s       :     3.109360  s :     3.109360
      pz      :     0.982013  p :     2.677453
      px      :     0.816784
      py      :     0.878656
      dz2     :     0.004607  d :     0.047950
      dxz     :     0.007012
      dyz     :     0.007327
      dx2y2   :     0.014247
      dxy     :     0.014757

  4 C s       :     3.162880  s :     3.162880
      pz      :     1.009456  p :     3.037165
      px      :     1.012942
      py      :     1.014766
      dz2     :     0.003796  d :     0.037090
      dxz     :     0.006216
      dyz     :     0.004094
      dx2y2   :     0.010710
      dxy     :     0.012273

  5 C s       :     3.203002  s :     3.203002
      pz      :     0.993126  p :     2.961968
      px      :     0.982551
      py      :     0.986290
      dz2     :     0.003310  d :     0.037753
      dxz     :     0.007141
      dyz     :     0.003970
      dx2y2   :     0.010875
      dxy     :     0.012456

  6 C s       :     3.173780  s :     3.173780
      pz      :     0.986104  p :     2.716130
      px      :     0.789845
      py      :     0.940181
      dz2     :     0.004663  d :     0.046420
      dxz     :     0.007622
      dyz     :     0.006631
      dx2y2   :     0.013326
      dxy     :     0.014178

  7 C s       :     3.151733  s :     3.151733
      pz      :     0.936203  p :     2.469660
      px      :     0.823018
      py      :     0.710439
      dz2     :     0.006761  d :     0.075241
      dxz     :     0.011038
      dyz     :     0.011772
      dx2y2   :     0.022731
      dxy     :     0.022940

  8 C s       :     3.207275  s :     3.207275
      pz      :     1.041825  p :     3.112231
      px      :     1.013063
      py      :     1.057343
      dz2     :     0.003488  d :     0.035531
      dxz     :     0.006399
      dyz     :     0.004073
      dx2y2   :     0.012508
      dxy     :     0.009063

  9 F s       :     3.927228  s :     3.927228
      pz      :     1.887231  p :     5.296345
      px      :     1.803848
      py      :     1.605265
      dz2     :     0.001488  d :     0.016807
      dxz     :     0.002318
      dyz     :     0.003287
      dx2y2   :     0.004971
      dxy     :     0.004744

 10 C s       :     3.235032  s :     3.235032
      pz      :     0.938983  p :     2.613256
      px      :     0.761364
      py      :     0.912908
      dz2     :     0.005807  d :     0.048010
      dxz     :     0.008353
      dyz     :     0.006965
      dx2y2   :     0.014219
      dxy     :     0.012666

 11 C s       :     3.195363  s :     3.195363
      pz      :     0.959325  p :     2.946152
      px      :     0.982403
      py      :     1.004423
      dz2     :     0.004193  d :     0.037216
      dxz     :     0.007308
      dyz     :     0.004465
      dx2y2   :     0.009873
      dxy     :     0.011378

 12 C s       :     3.201456  s :     3.201456
      pz      :     0.997089  p :     2.932346
      px      :     0.945733
      py      :     0.989523
      dz2     :     0.003538  d :     0.037698
      dxz     :     0.007195
      dyz     :     0.004883
      dx2y2   :     0.010659
      dxy     :     0.011422

 13 C s       :     3.177512  s :     3.177512
      pz      :     0.966401  p :     2.920830
      px      :     1.028343
      py      :     0.926086
      dz2     :     0.005049  d :     0.037586
      dxz     :     0.004446
      dyz     :     0.006822
      dx2y2   :     0.011563
      dxy     :     0.009707

 14 C s       :     3.199190  s :     3.199190
      pz      :     0.984102  p :     2.933389
      px      :     0.947152
      py      :     1.002135
      dz2     :     0.004290  d :     0.037743
      dxz     :     0.007380
      dyz     :     0.004451
      dx2y2   :     0.010357
      dxy     :     0.011263

 15 C s       :     3.195998  s :     3.195998
      pz      :     0.996408  p :     2.976802
      px      :     0.991114
      py      :     0.989280
      dz2     :     0.003499  d :     0.037232
      dxz     :     0.007306
      dyz     :     0.004656
      dx2y2   :     0.010145
      dxy     :     0.011626

 16 C s       :     3.149904  s :     3.149904
      pz      :     0.885771  p :     2.438654
      px      :     0.792732
      py      :     0.760152
      dz2     :     0.029836  d :     0.126213
      dxz     :     0.011461
      dyz     :     0.031478
      dx2y2   :     0.027086
      dxy     :     0.026352

 17 O s       :     3.833546  s :     3.833546
      pz      :     1.576707  p :     4.520467
      px      :     1.453042
      py      :     1.490717
      dz2     :     0.003220  d :     0.023546
      dxz     :     0.002602
      dyz     :     0.007994
      dx2y2   :     0.004754
      dxy     :     0.004977

 18 O s       :     3.715102  s :     3.715102
      pz      :     1.447960  p :     4.590969
      px      :     1.720195
      py      :     1.422813
      dz2     :     0.008263  d :     0.026453
      dxz     :     0.003313
      dyz     :     0.004015
      dx2y2   :     0.007021
      dxy     :     0.003841

 19 H s       :     0.826979  s :     0.826979
      pz      :     0.003776  p :     0.018245
      px      :     0.010804
      py      :     0.003665

 20 H s       :     0.813109  s :     0.813109
      pz      :     0.004478  p :     0.018438
      px      :     0.003850
      py      :     0.010110

 21 H s       :     0.822469  s :     0.822469
      pz      :     0.009419  p :     0.018290
      px      :     0.005195
      py      :     0.003676

 22 H s       :     0.813567  s :     0.813567
      pz      :     0.004626  p :     0.020050
      px      :     0.006327
      py      :     0.009097

 23 H s       :     0.825243  s :     0.825243
      pz      :     0.005099  p :     0.019793
      px      :     0.004918
      py      :     0.009776

 24 H s       :     0.816147  s :     0.816147
      pz      :     0.005132  p :     0.019833
      px      :     0.004452
      py      :     0.010249

 25 H s       :     0.824396  s :     0.824396
      pz      :     0.004866  p :     0.019649
      px      :     0.005428
      py      :     0.009355

 26 H s       :     0.834396  s :     0.834396
      pz      :     0.005836  p :     0.019491
      px      :     0.005362
      py      :     0.008293

 27 H s       :     0.833513  s :     0.833513
      pz      :     0.004077  p :     0.019537
      px      :     0.012060
      py      :     0.003401

 28 H s       :     0.834857  s :     0.834857
      pz      :     0.004980  p :     0.019520
      px      :     0.005374
      py      :     0.009165

 29 H s       :     0.828157  s :     0.828157
      pz      :     0.006046  p :     0.019726
      px      :     0.005507
      py      :     0.008173

 30 H s       :     0.624902  s :     0.624902
      pz      :     0.020992  p :     0.040760
      px      :     0.012294
      py      :     0.007474


------------------------
MULLIKEN OVERLAP CHARGES
------------------------
B(  0-C ,  1-C ) :   0.3999 B(  0-C ,  2-H ) :  -0.0559 B(  0-C ,  3-C ) :  -0.1623 
B(  0-C , 16-C ) :  -0.1375 B(  0-C , 18-O ) :   0.0598 B(  0-C , 19-H ) :   0.8166 
B(  0-C , 20-H ) :   0.8246 B(  0-C , 21-H ) :   0.8238 B(  1-C ,  2-H ) :   0.9142 
B(  1-C ,  5-C ) :   0.0519 B(  1-C ,  8-C ) :  -0.2027 B(  1-C , 16-C ) :   0.4091 
B(  1-C , 17-O ) :  -0.1530 B(  1-C , 18-O ) :  -0.1850 B(  1-C , 19-H ) :  -0.1228 
B(  1-C , 21-H ) :  -0.0999 B(  2-H ,  3-C ) :  -0.1109 B(  2-H , 16-C ) :  -0.0925 
B(  3-C ,  4-C ) :   0.6637 B(  3-C ,  6-C ) :  -0.0787 B(  3-C ,  7-C ) :   0.0664 
B(  3-C ,  8-C ) :   0.4303 B(  3-C , 16-C ) :   0.0537 B(  3-C , 17-O ) :  -0.0575 
B(  3-C , 22-H ) :  -0.1036 B(  3-C , 24-H ) :  -0.0608 B(  4-C ,  5-C ) :   0.1812 
B(  4-C ,  7-C ) :  -0.2245 B(  4-C ,  8-C ) :   0.1296 B(  4-C , 10-C ) :   0.0891 
B(  4-C , 22-H ) :   0.8109 B(  5-C ,  6-C ) :   0.5069 B(  5-C ,  8-C ) :  -0.3337 
B(  5-C , 10-C ) :  -0.2131 B(  5-C , 11-C ) :   0.0830 B(  5-C , 15-C ) :  -0.0508 
B(  5-C , 23-H ) :   0.8008 B(  6-C ,  7-C ) :   0.7852 B(  6-C ,  8-C ) :  -0.0755 
B(  6-C ,  9-F ) :  -0.1649 B(  6-C , 10-C ) :   0.1288 B(  6-C , 11-C ) :  -0.1546 
B(  6-C , 15-C ) :  -0.1619 B(  6-C , 23-H ) :  -0.0691 B(  7-C ,  8-C ) :   0.3923 
B(  7-C ,  9-F ) :   0.3823 B(  7-C , 10-C ) :  -0.2368 B(  7-C , 11-C ) :  -0.0836 
B(  7-C , 15-C ) :   0.0926 B(  8-C ,  9-F ) :  -0.1128 B(  8-C , 10-C ) :   0.0763 
B(  8-C , 24-H ) :   0.7445 B( 10-C , 11-C ) :   0.8978 B( 10-C , 12-C ) :  -0.0529 
B( 10-C , 13-C ) :  -0.0833 B( 10-C , 14-C ) :  -0.1079 B( 10-C , 15-C ) :   0.9103 
B( 10-C , 25-H ) :  -0.0790 B( 10-C , 29-H ) :  -0.0758 B( 11-C , 12-C ) :   0.7835 
B( 11-C , 13-C ) :  -0.1379 B( 11-C , 14-C ) :  -0.0953 B( 11-C , 15-C ) :  -0.2370 
B( 11-C , 25-H ) :   0.7964 B( 11-C , 26-H ) :  -0.0568 B( 12-C , 13-C ) :   0.9471 
B( 12-C , 14-C ) :  -0.1297 B( 12-C , 15-C ) :  -0.0924 B( 12-C , 25-H ) :  -0.0564 
B( 12-C , 26-H ) :   0.8047 B( 12-C , 27-H ) :  -0.0575 B( 13-C , 14-C ) :   0.9839 
B( 13-C , 15-C ) :  -0.1652 B( 13-C , 26-H ) :  -0.0669 B( 13-C , 27-H ) :   0.7941 
B( 13-C , 28-H ) :  -0.0579 B( 14-C , 15-C ) :   0.8092 B( 14-C , 27-H ) :  -0.0599 
B( 14-C , 28-H ) :   0.7948 B( 15-C , 28-H ) :  -0.0518 B( 15-C , 29-H ) :   0.7981 
B( 16-C , 17-O ) :   1.1413 B( 16-C , 18-O ) :   0.2956 B( 17-O , 18-O ) :  -0.2235 
B( 18-O , 30-H ) :   0.5770 


                     *******************************
                     * LOEWDIN POPULATION ANALYSIS *
                     *******************************

----------------------
LOEWDIN ATOMIC CHARGES
----------------------
   0 C :   -0.371913
   1 C :   -0.141832
   2 H :    0.188578
   3 C :   -0.058626
   4 C :   -0.152109
   5 C :   -0.127438
   6 C :   -0.062772
   7 C :    0.238874
   8 C :   -0.133313
   9 F :   -0.287607
  10 C :   -0.062942
  11 C :   -0.131828
  12 C :   -0.158468
  13 C :   -0.163214
  14 C :   -0.160568
  15 C :   -0.146633
  16 C :    0.352393
  17 O :   -0.409889
  18 O :   -0.405685
  19 H :    0.160363
  20 H :    0.168429
  21 H :    0.161432
  22 H :    0.182202
  23 H :    0.177423
  24 H :    0.186431
  25 H :    0.178257
  26 H :    0.168553
  27 H :    0.167325
  28 H :    0.167877
  29 H :    0.173644
  30 H :    0.303056

-------------------------------
LOEWDIN REDUCED ORBITAL CHARGES
-------------------------------
  0 C s       :     2.962981  s :     2.962981
      pz      :     1.099462  p :     3.346019
      px      :     1.139500
      py      :     1.107057
      dz2     :     0.013850  d :     0.062913
      dxz     :     0.010643
      dyz     :     0.013191
      dx2y2   :     0.020025
      dxy     :     0.005205

  1 C s       :     2.882549  s :     2.882549
      pz      :     1.017679  p :     3.168356
      px      :     1.039738
      py      :     1.110939
      dz2     :     0.021104  d :     0.090927
      dxz     :     0.019546
      dyz     :     0.015562
      dx2y2   :     0.023902
      dxy     :     0.010814

  2 H s       :     0.768706  s :     0.768706
      pz      :     0.008591  p :     0.042716
      px      :     0.008382
      py      :     0.025742

  3 C s       :     2.856535  s :     2.856535
      pz      :     0.972467  p :     3.102472
      px      :     1.032781
      py      :     1.097224
      dz2     :     0.008478  d :     0.099619
      dxz     :     0.012748
      dyz     :     0.014168
      dx2y2   :     0.032159
      dxy     :     0.032065

  4 C s       :     2.888191  s :     2.888191
      pz      :     1.006132  p :     3.181928
      px      :     1.090889
      py      :     1.084907
      dz2     :     0.006708  d :     0.081990
      dxz     :     0.012163
      dyz     :     0.007725
      dx2y2   :     0.025563
      dxy     :     0.029831

  5 C s       :     2.892298  s :     2.892298
      pz      :     0.989590  p :     3.152334
      px      :     1.087047
      py      :     1.075697
      dz2     :     0.005733  d :     0.082806
      dxz     :     0.013817
      dyz     :     0.007551
      dx2y2   :     0.026103
      dxy     :     0.029602

  6 C s       :     2.846013  s :     2.846013
      pz      :     1.002907  p :     3.119836
      px      :     1.051269
      py      :     1.065660
      dz2     :     0.008532  d :     0.096923
      dxz     :     0.013945
      dyz     :     0.012526
      dx2y2   :     0.029641
      dxy     :     0.032279

  7 C s       :     2.788606  s :     2.788606
      pz      :     0.945424  p :     2.806194
      px      :     0.990569
      py      :     0.870201
      dz2     :     0.014515  d :     0.166326
      dxz     :     0.021430
      dyz     :     0.024723
      dx2y2   :     0.052813
      dxy     :     0.052846

  8 C s       :     2.889723  s :     2.889723
      pz      :     1.024210  p :     3.164989
      px      :     1.052097
      py      :     1.088682
      dz2     :     0.005938  d :     0.078601
      dxz     :     0.012485
      dyz     :     0.007687
      dx2y2   :     0.029046
      dxy     :     0.023444

  9 F s       :     3.744847  s :     3.744847
      pz      :     1.887858  p :     5.387796
      px      :     1.821254
      py      :     1.678683
      dz2     :     0.019174  d :     0.154964
      dxz     :     0.017901
      dyz     :     0.031589
      dx2y2   :     0.043960
      dxy     :     0.042340

 10 C s       :     2.848066  s :     2.848066
      pz      :     0.999663  p :     3.114691
      px      :     1.031826
      py      :     1.083203
      dz2     :     0.010681  d :     0.100184
      dxz     :     0.016170
      dyz     :     0.014025
      dx2y2   :     0.031424
      dxy     :     0.027884

 11 C s       :     2.895632  s :     2.895632
      pz      :     0.998913  p :     3.154788
      px      :     1.090119
      py      :     1.065756
      dz2     :     0.007674  d :     0.081408
      dxz     :     0.014998
      dyz     :     0.008846
      dx2y2   :     0.023366
      dxy     :     0.026523

 12 C s       :     2.903254  s :     2.903254
      pz      :     1.001307  p :     3.172919
      px      :     1.096533
      py      :     1.075079
      dz2     :     0.006294  d :     0.082295
      dxz     :     0.014614
      dyz     :     0.009686
      dx2y2   :     0.024706
      dxy     :     0.026996

 13 C s       :     2.904392  s :     2.904392
      pz      :     1.002445  p :     3.176908
      px      :     1.099865
      py      :     1.074598
      dz2     :     0.009240  d :     0.081914
      dxz     :     0.008866
      dyz     :     0.014013
      dx2y2   :     0.027322
      dxy     :     0.022473

 14 C s       :     2.903030  s :     2.903030
      pz      :     1.002676  p :     3.175154
      px      :     1.096403
      py      :     1.076076
      dz2     :     0.007693  d :     0.082383
      dxz     :     0.015276
      dyz     :     0.008751
      dx2y2   :     0.024212
      dxy     :     0.026451

 15 C s       :     2.895338  s :     2.895338
      pz      :     1.012614  p :     3.169760
      px      :     1.092542
      py      :     1.064605
      dz2     :     0.006366  d :     0.081535
      dxz     :     0.014800
      dyz     :     0.009345
      dx2y2   :     0.023750
      dxy     :     0.027274

 16 C s       :     2.741387  s :     2.741387
      pz      :     0.950025  p :     2.632605
      px      :     0.751789
      py      :     0.930791
      dz2     :     0.062257  d :     0.273616
      dxz     :     0.021878
      dyz     :     0.070276
      dx2y2   :     0.066655
      dxy     :     0.052550

 17 O s       :     3.554223  s :     3.554223
      pz      :     1.620949  p :     4.651084
      px      :     1.453091
      py      :     1.577044
      dz2     :     0.044731  d :     0.204582
      dxz     :     0.024413
      dyz     :     0.054653
      dx2y2   :     0.044765
      dxy     :     0.036020

 18 O s       :     3.466166  s :     3.466166
      pz      :     1.469481  p :     4.680658
      px      :     1.685736
      py      :     1.525441
      dz2     :     0.055531  d :     0.258860
      dxz     :     0.022608
      dyz     :     0.070381
      dx2y2   :     0.061290
      dxy     :     0.049051

 19 H s       :     0.795906  s :     0.795906
      pz      :     0.008309  p :     0.043731
      px      :     0.027229
      py      :     0.008194

 20 H s       :     0.786992  s :     0.786992
      pz      :     0.010432  p :     0.044580
      px      :     0.008656
      py      :     0.025492

 21 H s       :     0.794682  s :     0.794682
      pz      :     0.023380  p :     0.043886
      px      :     0.012206
      py      :     0.008300

 22 H s       :     0.771542  s :     0.771542
      pz      :     0.010310  p :     0.046257
      px      :     0.014491
      py      :     0.021455

 23 H s       :     0.777244  s :     0.777244
      pz      :     0.011385  p :     0.045333
      px      :     0.011061
      py      :     0.022887

 24 H s       :     0.767887  s :     0.767887
      pz      :     0.011674  p :     0.045682
      px      :     0.010034
      py      :     0.023973

 25 H s       :     0.776614  s :     0.776614
      pz      :     0.010842  p :     0.045129
      px      :     0.012473
      py      :     0.021814

 26 H s       :     0.786877  s :     0.786877
      pz      :     0.013068  p :     0.044570
      px      :     0.012261
      py      :     0.019241

 27 H s       :     0.787941  s :     0.787941
      pz      :     0.008892  p :     0.044734
      px      :     0.028257
      py      :     0.007585

 28 H s       :     0.787540  s :     0.787540
      pz      :     0.011000  p :     0.044583
      px      :     0.012297
      py      :     0.021286

 29 H s       :     0.781128  s :     0.781128
      pz      :     0.013648  p :     0.045228
      px      :     0.012525
      py      :     0.019055

 30 H s       :     0.581044  s :     0.581044
      pz      :     0.063186  p :     0.115900
      px      :     0.033181
      py      :     0.019532


---------------------------------
LOEWDIN BOND ORDERS (THRESH 0.050000)
---------------------------------
B(  0-C ,  1-C ) :   1.0780 B(  0-C ,  3-C ) :   0.0689 B(  0-C , 16-C ) :   0.0678 
B(  0-C , 18-O ) :   0.0535 B(  0-C , 19-H ) :   0.9177 B(  0-C , 20-H ) :   0.9061 
B(  0-C , 21-H ) :   0.9153 B(  1-C ,  2-H ) :   0.8308 B(  1-C ,  3-C ) :   1.0109 
B(  1-C ,  4-C ) :   0.0782 B(  1-C ,  8-C ) :   0.0927 B(  1-C , 16-C ) :   0.8768 
B(  1-C , 17-O ) :   0.1825 B(  1-C , 18-O ) :   0.1618 B(  3-C ,  4-C ) :   1.4014 
B(  3-C ,  5-C ) :   0.0921 B(  3-C ,  6-C ) :   0.1092 B(  3-C ,  7-C ) :   0.1018 
B(  3-C ,  8-C ) :   1.4264 B(  3-C , 16-C ) :   0.0787 B(  3-C , 22-H ) :   0.0509 
B(  3-C , 24-H ) :   0.0508 B(  4-C ,  5-C ) :   1.5232 B(  4-C ,  6-C ) :   0.0919 
B(  4-C ,  7-C ) :   0.1093 B(  4-C ,  8-C ) :   0.0854 B(  4-C , 22-H ) :   0.8508 
B(  4-C , 23-H ) :   0.0547 B(  5-C ,  6-C ) :   1.3890 B(  5-C ,  7-C ) :   0.0948 
B(  5-C ,  8-C ) :   0.1205 B(  5-C , 10-C ) :   0.0851 B(  5-C , 22-H ) :   0.0549 
B(  5-C , 23-H ) :   0.8579 B(  6-C ,  7-C ) :   1.3038 B(  6-C ,  8-C ) :   0.0904 
B(  6-C ,  9-F ) :   0.1562 B(  6-C , 10-C ) :   1.0521 B(  6-C , 11-C ) :   0.0865 
B(  6-C , 15-C ) :   0.0886 B(  6-C , 23-H ) :   0.0508 B(  7-C ,  8-C ) :   1.3875 
B(  7-C ,  9-F ) :   1.3223 B(  7-C , 10-C ) :   0.0796 B(  7-C , 24-H ) :   0.0576 
B(  8-C ,  9-F ) :   0.1712 B(  8-C , 24-H ) :   0.8538 B( 10-C , 11-C ) :   1.4129 
B( 10-C , 12-C ) :   0.0903 B( 10-C , 13-C ) :   0.1221 B( 10-C , 14-C ) :   0.0895 
B( 10-C , 15-C ) :   1.4119 B( 10-C , 25-H ) :   0.0509 B( 10-C , 29-H ) :   0.0515 
B( 11-C , 12-C ) :   1.5177 B( 11-C , 13-C ) :   0.0889 B( 11-C , 14-C ) :   0.1278 
B( 11-C , 15-C ) :   0.0814 B( 11-C , 25-H ) :   0.8600 B( 11-C , 26-H ) :   0.0557 
B( 12-C , 13-C ) :   1.5016 B( 12-C , 14-C ) :   0.0872 B( 12-C , 15-C ) :   0.1276 
B( 12-C , 25-H ) :   0.0532 B( 12-C , 26-H ) :   0.8729 B( 12-C , 27-H ) :   0.0541 
B( 13-C , 14-C ) :   1.5026 B( 13-C , 15-C ) :   0.0885 B( 13-C , 26-H ) :   0.0538 
B( 13-C , 27-H ) :   0.8754 B( 13-C , 28-H ) :   0.0538 B( 14-C , 15-C ) :   1.5173 
B( 14-C , 27-H ) :   0.0540 B( 14-C , 28-H ) :   0.8732 B( 14-C , 29-H ) :   0.0534 
B( 15-C , 28-H ) :   0.0557 B( 15-C , 29-H ) :   0.8623 B( 16-C , 17-O ) :   2.2026 
B( 16-C , 18-O ) :   1.4878 B( 16-C , 30-H ) :   0.0556 B( 17-O , 18-O ) :   0.4707 
B( 18-O , 30-H ) :   0.9104 

------------------------------------------
LOEWDIN REDUCED ORBITAL POPULATIONS PER MO
-------------------------------------------
THRESHOLD FOR PRINTING IS 0.1%%
                      0         1         2         3         4         5   
                 -24.49754 -19.01444 -18.93796 -10.16763 -10.12541 -10.06798
                   2.00000   2.00000   2.00000   2.00000   2.00000   2.00000
                  --------  --------  --------  --------  --------  --------
 1 C  s               0.0       0.0       0.0       0.0       0.0      99.6
 7 C  s               0.0       0.0       0.0       0.0      99.2       0.0
 8 C  px              0.0       0.0       0.0       0.0       0.1       0.0
 9 F  s             100.0       0.0       0.0       0.0       0.0       0.0
 9 F  dxy             0.0       0.0       0.0       0.0       0.2       0.0
16 C  s               0.0       0.0       0.0      98.9       0.0       0.0
17 O  s               0.0       0.0      99.9       0.0       0.0       0.0
17 O  py              0.0       0.0       0.0       0.1       0.0       0.0
17 O  dyz             0.0       0.0       0.0       0.2       0.0       0.0
18 O  s               0.0      99.9       0.0       0.0       0.0       0.0
18 O  py              0.0       0.0       0.0       0.1       0.0       0.0
18 O  dx2y2           0.0       0.0       0.0       0.2       0.0       0.0

                      6         7         8         9        10        11   
                 -10.06322 -10.05801 -10.05293 -10.04935 -10.04778 -10.04225
                   2.00000   2.00000   2.00000   2.00000   2.00000   2.00000
                  --------  --------  --------  --------  --------  --------
 3 C  s              99.5       0.0       0.0       0.0       0.0       0.0
 4 C  s               0.0       0.0       0.0       0.1       0.0      99.5
 4 C  px              0.0       0.0       0.0       0.1       0.0       0.0
 5 C  s               0.0       0.1       0.0      99.4       0.0       0.1
 5 C  px              0.0       0.0       0.0       0.0       0.0       0.1
 6 C  s               0.0      99.4       0.1       0.1       0.0       0.0
 6 C  px              0.0       0.0       0.1       0.0       0.0       0.0
 7 C  px              0.0       0.0       0.0       0.0       0.1       0.0
 8 C  s               0.0       0.0       0.0       0.0      99.6       0.0
10 C  s               0.0       0.1      99.4       0.0       0.0       0.0

                     12        13        14        15        16        17   
                 -10.03993 -10.03896 -10.03821 -10.03791 -10.03756 -10.03709
                   2.00000   2.00000   2.00000   2.00000   2.00000   2.00000
                  --------  --------  --------  --------  --------  --------
 0 C  s               0.0       0.0       0.0       0.0       0.0      99.7
11 C  s               0.0       0.0      28.6      47.5      23.4       0.0
12 C  s               0.0       0.2      46.1       0.0      53.3       0.0
12 C  px              0.0       0.0       0.0       0.1       0.0       0.0
13 C  s               0.1       5.1      22.7      49.4      22.3       0.0
14 C  s               6.0      88.2       2.2       2.6       0.6       0.0
14 C  px              0.1       0.0       0.0       0.0       0.0       0.0
15 C  s              93.5       6.0       0.1       0.0       0.0       0.0
15 C  px              0.0       0.1       0.0       0.0       0.0       0.0

                     18        19        20        21        22        23   
                  -1.18078  -1.08871  -0.98463  -0.85486  -0.83206  -0.79138
                   2.00000   2.00000   2.00000   2.00000   2.00000   2.00000
                  --------  --------  --------  --------  --------  --------
 0 C  s               0.0       0.1       0.0       0.6       0.8       7.8
 0 C  pz              0.0       0.4       0.0       0.2       0.2       0.9
 0 C  px              0.0       0.0       0.0       0.1       0.1       0.3
 0 C  py              0.0       0.0       0.0       0.1       0.1       0.9
 1 C  s               0.0       1.0       0.3       2.8       2.8      16.9
 1 C  pz              0.0       1.7       0.3       0.0       0.0       0.1
 1 C  px              0.0       0.3       0.1       1.1       0.5       0.1
 1 C  py              0.0       0.1       0.2       0.0       0.0       0.5
 2 H  s               0.0       0.1       0.0       0.3       0.3       2.3
 2 H  py              0.0       0.0       0.0       0.0       0.0       0.2
 3 C  s               0.0       0.1       0.0      10.5       5.7       5.0
 3 C  px              0.0       0.3       0.0       0.8       0.0       4.8
 4 C  s               0.0       0.0       0.0       8.5       2.7       0.0
 4 C  pz              0.0       0.0       0.0       0.1       0.1       0.2
 4 C  px              0.0       0.1       0.0       0.5       0.1       3.2
 4 C  py              0.0       0.0       0.0       1.5       0.7       0.3
 5 C  s               0.0       0.0       0.0       9.2       0.4       4.1
 5 C  pz              0.0       0.0       0.0       0.2       0.0       0.0
 5 C  px              0.0       0.0       0.0       0.1       1.2       0.6
 5 C  py              0.0       0.0       0.0       1.8       0.0       0.9
 6 C  s               0.4       0.0       0.0      12.5       0.2       8.5
 6 C  pz              0.1       0.0       0.0       0.0       0.1       0.0
 6 C  px              0.0       0.0       0.0       0.4       3.5       0.3
 6 C  py              1.0       0.0       0.0       0.0       0.0       0.0
 6 C  dz2             0.0       0.0       0.0       0.1       0.0       0.1
 7 C  s               6.7       0.0       0.0       7.0       0.5       2.7
 7 C  pz              0.5       0.0       0.0       0.3       0.0       0.3
 7 C  px              2.8       0.0       0.0       0.7       1.5       0.3
 7 C  py              6.4       0.0       0.0       3.3       0.0       2.0
 7 C  dz2             0.3       0.0       0.0       0.0       0.0       0.0
 7 C  dyz             0.1       0.0       0.0       0.0       0.0       0.0
 7 C  dx2y2           0.1       0.0       0.0       0.0       0.0       0.0
 7 C  dxy             0.7       0.0       0.0       0.1       0.0       0.1
 8 C  s               0.4       0.0       0.0       8.2       3.1       0.0
 8 C  pz              0.0       0.0       0.0       0.2       0.1       0.0
 8 C  px              1.2       0.0       0.0       0.1       0.1       2.6
 8 C  py              0.1       0.0       0.0       1.9       0.7       0.1
 9 F  s              76.4       0.0       0.0       1.0       0.0       0.5
 9 F  px              0.5       0.0       0.0       0.2       0.1       0.1
 9 F  py              1.2       0.0       0.0       0.5       0.0       0.4
 9 F  dxy             0.1       0.0       0.0       0.1       0.0       0.0
10 C  s               0.0       0.0       0.0       6.5       9.9       0.6
10 C  px              0.1       0.0       0.0       0.4       2.1       3.0
10 C  py              0.1       0.0       0.0       0.0       0.0       0.0
11 C  s               0.0       0.0       0.0       2.5       9.1       0.3
11 C  pz              0.0       0.0       0.0       0.2       0.3       0.0
11 C  px              0.1       0.0       0.0       0.0       0.4       1.1
11 C  py              0.0       0.0       0.0       0.6       1.4       0.0
12 C  s               0.0       0.0       0.0       1.3       8.6       2.3
12 C  pz              0.0       0.0       0.0       0.1       0.4       0.1
12 C  px              0.0       0.0       0.0       0.2       0.5       0.0
12 C  py              0.0       0.0       0.0       0.1       1.1       0.4
13 C  s               0.0       0.0       0.0       1.0       8.4       3.3
13 C  px              0.0       0.0       0.0       0.4       2.0       0.3
14 C  s               0.0       0.0       0.0       1.3       8.8       2.2
14 C  pz              0.0       0.0       0.0       0.0       0.2       0.1
14 C  px              0.0       0.0       0.0       0.3       0.6       0.0
14 C  py              0.0       0.0       0.0       0.2       1.3       0.3
15 C  s               0.0       0.0       0.0       2.7       9.4       0.3
15 C  pz              0.0       0.0       0.0       0.2       0.4       0.0
15 C  px              0.0       0.0       0.0       0.1       0.5       1.2
15 C  py              0.0       0.0       0.0       0.6       1.2       0.0
16 C  s               0.0      16.7       4.2       0.1       0.1       1.3
16 C  pz              0.0       2.9       1.8       0.7       0.7       5.1
16 C  px              0.0       0.4       0.5       0.3       0.3       1.2
16 C  py              0.0       2.3      21.6       0.0       0.0       0.0
16 C  dyz             0.0       0.0       1.6       0.0       0.0       0.0
16 C  dx2y2           0.0       1.0       0.0       0.0       0.0       0.0
16 C  dxy             0.0       0.0       0.3       0.0       0.0       0.0
17 O  s               0.0      10.9      43.6       0.1       0.1       0.7
17 O  pz              0.0       0.6       1.5       0.0       0.0       0.1
17 O  px              0.0       0.1       0.3       0.0       0.0       0.0
17 O  py              0.0       2.3       2.1       0.0       0.0       0.1
17 O  dz2             0.0       0.2       0.1       0.0       0.0       0.1
17 O  dyz             0.0       0.3       0.1       0.0       0.0       0.1
17 O  dx2y2           0.0       0.9       0.1       0.0       0.0       0.0
18 O  s               0.0      44.6      15.7       0.1       0.1       0.4
18 O  pz              0.0       0.1       0.1       0.1       0.1       0.9
18 O  px              0.0       0.0       0.0       0.0       0.0       0.2
18 O  py              0.0       3.1       0.8       0.0       0.0       0.3
18 O  dz2             0.0       0.1       0.4       0.0       0.0       0.0
18 O  dyz             0.0       0.1       0.0       0.0       0.0       0.3
18 O  dx2y2           0.0       0.6       0.9       0.0       0.0       0.0
19 H  s               0.0       0.0       0.0       0.1       0.1       1.0
20 H  s               0.0       0.0       0.0       0.1       0.1       1.0
21 H  s               0.0       0.0       0.0       0.1       0.1       1.0
22 H  s               0.0       0.0       0.0       0.7       0.3       0.0
23 H  s               0.0       0.0       0.0       0.8       0.0       0.5
24 H  s               0.0       0.0       0.0       0.7       0.3       0.0
25 H  s               0.0       0.0       0.0       0.2       0.8       0.0
26 H  s               0.0       0.0       0.0       0.1       0.8       0.2
27 H  s               0.0       0.0       0.0       0.1       0.8       0.4
28 H  s               0.0       0.0       0.0       0.1       0.8       0.2
29 H  s               0.0       0.0       0.0       0.3       0.8       0.0
30 H  s               0.0       6.6       2.3       0.0       0.0       0.4
30 H  pz              0.0       1.2       0.6       0.0       0.0       0.1
30 H  px              0.0       0.2       0.1       0.0       0.0       0.0

                     24        25        26        27        28        29   
                  -0.74631  -0.72797  -0.72056  -0.69581  -0.64925  -0.61706
                   2.00000   2.00000   2.00000   2.00000   2.00000   2.00000
                  --------  --------  --------  --------  --------  --------
 0 C  s               6.1       0.1       0.0       6.4      20.8       1.3
 0 C  pz              0.3       0.0       0.0       0.0       1.3       0.0
[...]
17 O  dxy             0.0       0.7       0.0       0.0       0.0       0.0
18 O  s               0.0       4.1       0.0       0.0       0.0       0.0
18 O  pz              0.0      14.3       0.0       0.0       0.0       0.0
18 O  px              0.0       2.4       0.0       0.0       0.0       0.0
18 O  py              0.0       2.2       0.0       0.0       0.0       0.0
18 O  dz2             0.1      19.5       0.0       0.0       0.0       0.0
18 O  dxz             0.0       9.5       0.0       0.0       0.0       0.0
18 O  dyz             0.0       0.2       0.0       0.0       0.0       0.0
18 O  dx2y2           0.0       3.0       0.0       0.0       0.0       0.0
23 H  s               0.2       0.0       0.0       0.0       0.0       0.0
23 H  px              0.1       0.0       0.0       0.0       0.0       0.0
23 H  py              0.1       0.0       0.0       0.0       0.0       0.0
24 H  s               0.5       0.0       0.0       0.0       0.0       0.0
24 H  px              0.1       0.0       0.0       0.0       0.0       0.0
24 H  py              0.4       0.0       0.0       0.0       0.0       0.0
30 H  s               0.0      10.5       0.0       0.0       0.0       0.0
30 H  pz              0.0      10.1       0.0       0.0       0.0       0.0
30 H  px              0.0       1.9       0.0       0.0       0.0       0.0

                    408       409       410       411       412       413   
                  21.98343  22.01705  22.03951  22.14167  22.20166  22.20595
                   0.00000   0.00000   0.00000   0.00000   0.00000   0.00000
                  --------  --------  --------  --------  --------  --------
 0 C  s              10.8      60.0       1.1       0.3       0.0       3.0
 1 C  s               1.8      17.8       1.6       0.1       0.2       9.5
 3 C  s               0.0       2.1      21.8      15.5       1.5       0.7
 4 C  s               9.3       2.6       0.0       9.5       9.3       2.2
 5 C  s               4.4       4.3       7.5       1.2       3.7       0.0
 6 C  s               0.0       0.0       7.6      16.0       0.3       6.6
 7 C  s               5.8       8.3       6.3       8.8       1.4       0.6
 8 C  s               4.8       0.6      10.5       0.0       8.5       5.3
10 C  s               0.0       0.2       4.8       3.4       0.8      22.1
11 C  s              11.1       0.0       7.8       5.4      20.7       1.4
12 C  s              20.6       1.3       1.0       1.5      13.8       6.6
13 C  s               0.0       0.4      17.8      17.1       0.2      13.2
14 C  s              20.2       0.8       0.7       0.9      20.5       5.9
15 C  s              10.6       1.2       8.2       5.3      17.8       1.2
16 C  s               0.0       0.1       2.7      14.6       0.8      21.1

                    414       415       416       417       418       419   
                  22.22719  22.26537  22.31154  22.33868  22.39564  43.66855
                   0.00000   0.00000   0.00000   0.00000   0.00000   0.00000
                  --------  --------  --------  --------  --------  --------
 0 C  s               4.7       4.9       4.5       0.8       2.7       0.0
 1 C  s              28.4      13.8      17.8       3.1       5.3       0.0
 3 C  s               0.2       9.8       0.6       2.1      24.1       0.0
 4 C  s               6.9       9.8       3.8       0.0      16.5       0.0
 5 C  s               3.3      16.9      16.0       1.5       6.5       0.0
 6 C  s              10.5       3.9      14.3       0.2       3.7       0.0
 7 C  s               7.1       3.6       7.2       0.9       2.4       0.0
 8 C  s               2.6      18.8       5.2       0.0      10.5       0.0
10 C  s               9.0       1.3       5.4      11.9       0.8       0.0
11 C  s               2.1       6.7       1.5      14.0       0.7       0.0
12 C  s               7.0       0.9       1.1      14.4       1.2       0.0
13 C  s               1.8       0.0       1.8      12.9       0.9       0.0
14 C  s               0.0       2.4       1.6      13.4       1.4       0.0
15 C  s               7.7       4.3       2.2      13.5       1.4       0.0
16 C  s               8.2       2.3      16.6      11.0      21.4       0.0
17 O  s               0.0       0.0       0.0       0.0       0.1       7.8
18 O  s               0.0       0.0       0.0       0.0       0.0      92.1

                    420       421   
                  43.69672  57.18430
                   0.00000   0.00000
                  --------  --------
 9 F  s               0.0      99.9
17 O  s              92.0       0.0
18 O  s               7.8       0.0


                      *****************************
                      * MAYER POPULATION ANALYSIS *
                      *****************************

  NA   - Mulliken gross atomic population
  ZA   - Total nuclear charge
  QA   - Mulliken gross atomic charge
  VA   - Mayer's total valence
  BVA  - Mayer's bonded valence
  FA   - Mayer's free valence

  ATOM       NA         ZA         QA         VA         BVA        FA
  0 C      6.4907     6.0000    -0.4907     3.8119     3.8119    -0.0000
  1 C      6.0254     6.0000    -0.0254     3.7585     3.7585    -0.0000
  2 H      0.8422     1.0000     0.1578     0.9676     0.9676    -0.0000
  3 C      5.8348     6.0000     0.1652     3.5235     3.5235    -0.0000
  4 C      6.2371     6.0000    -0.2371     3.9985     3.9985    -0.0000
  5 C      6.2027     6.0000    -0.2027     3.8081     3.8081    -0.0000
  6 C      5.9363     6.0000     0.0637     3.5526     3.5526     0.0000
  7 C      5.6966     6.0000     0.3034     3.8627     3.8627     0.0000
  8 C      6.3550     6.0000    -0.3550     3.9046     3.9046    -0.0000
  9 F      9.2404     9.0000    -0.2404     0.9866     0.9866    -0.0000
 10 C      5.8963     6.0000     0.1037     3.5378     3.5378     0.0000
 11 C      6.1787     6.0000    -0.1787     3.8985     3.8985    -0.0000
 12 C      6.1715     6.0000    -0.1715     3.8513     3.8513    -0.0000
 13 C      6.1359     6.0000    -0.1359     3.8221     3.8221     0.0000
 14 C      6.1703     6.0000    -0.1703     3.8519     3.8519    -0.0000
 15 C      6.2100     6.0000    -0.2100     3.8541     3.8541    -0.0000
 16 C      5.7148     6.0000     0.2852     3.9969     3.9969    -0.0000
 17 O      8.3776     8.0000    -0.3776     1.9931     1.9931    -0.0000
 18 O      8.3325     8.0000    -0.3325     1.9432     1.9432     0.0000
 19 H      0.8452     1.0000     0.1548     0.9606     0.9606     0.0000
 20 H      0.8315     1.0000     0.1685     0.9589     0.9589     0.0000
 21 H      0.8408     1.0000     0.1592     0.9604     0.9604     0.0000
 22 H      0.8336     1.0000     0.1664     0.9597     0.9597    -0.0000
 23 H      0.8450     1.0000     0.1550     0.9669     0.9669    -0.0000
 24 H      0.8360     1.0000     0.1640     0.9661     0.9661    -0.0000
 25 H      0.8440     1.0000     0.1560     0.9645     0.9645    -0.0000
 26 H      0.8539     1.0000     0.1461     0.9685     0.9685     0.0000
 27 H      0.8531     1.0000     0.1469     0.9681     0.9681     0.0000
 28 H      0.8544     1.0000     0.1456     0.9689     0.9689    -0.0000
 29 H      0.8479     1.0000     0.1521     0.9663     0.9663    -0.0000
 30 H      0.6657     1.0000     0.3343     0.8953     0.8953     0.0000

  Mayer bond orders larger than 0.100000
B(  0-C ,  1-C ) :   0.9234 B(  0-C , 19-H ) :   0.9720 B(  0-C , 20-H ) :   0.9626 
B(  0-C , 21-H ) :   0.9725 B(  1-C ,  2-H ) :   0.9617 B(  1-C ,  3-C ) :   0.8252 
B(  1-C , 16-C ) :   0.9807 B(  3-C ,  4-C ) :   1.3632 B(  3-C ,  6-C ) :   0.1046 
B(  3-C ,  8-C ) :   1.3898 B(  4-C ,  5-C ) :   1.4474 B(  4-C , 22-H ) :   0.9284 
B(  5-C ,  6-C ) :   1.3490 B(  5-C , 23-H ) :   0.9396 B(  6-C ,  7-C ) :   1.4610 
B(  6-C , 10-C ) :   0.7802 B(  7-C ,  8-C ) :   1.4194 B(  7-C ,  9-F ) :   0.8959 
B(  8-C , 24-H ) :   0.9109 B( 10-C , 11-C ) :   1.4196 B( 10-C , 15-C ) :   1.3924 
B( 11-C , 12-C ) :   1.4380 B( 11-C , 25-H ) :   0.9370 B( 12-C , 13-C ) :   1.4127 
B( 12-C , 26-H ) :   0.9510 B( 13-C , 14-C ) :   1.4165 B( 13-C , 27-H ) :   0.9463 
B( 14-C , 15-C ) :   1.4354 B( 14-C , 28-H ) :   0.9490 B( 15-C , 29-H ) :   0.9418 
B( 16-C , 17-O ) :   1.9522 B( 16-C , 18-O ) :   1.0344 B( 18-O , 30-H ) :   0.8569 


-------
TIMINGS
-------

Total SCF time: 0 days 0 hours 0 min 56 sec 

Total time                  ....      56.957 sec
Sum of individual times     ....      56.920 sec  ( 99.9%)

SCF preparation             ....       0.894 sec  (  1.6%)
Fock matrix formation       ....      53.213 sec  ( 93.4%)
  Startup                   ....       0.017 sec  (  0.0% of F)
  Split-RI-J                ....      16.637 sec  ( 31.3% of F)
  XC integration            ....      36.373 sec  ( 68.4% of F)
    XC Preparation          ....       0.000 sec  (  0.0% of XC)
    Basis function eval.    ....       5.559 sec  ( 15.3% of XC)
    Density eval.           ....      15.522 sec  ( 42.7% of XC)
    XC-Functional eval.     ....       2.577 sec  (  7.1% of XC)
    XC-Potential eval.      ....      12.066 sec  ( 33.2% of XC)
Diagonalization             ....       0.000 sec  (  0.0%)
Density matrix formation    ....       0.094 sec  (  0.2%)
Total Energy calculation    ....       0.007 sec  (  0.0%)
Population analysis         ....       1.860 sec  (  3.3%)
Orbital Transformation      ....       0.111 sec  (  0.2%)
Orbital Orthonormalization  ....       0.000 sec  (  0.0%)
DIIS solution               ....       0.650 sec  (  1.1%)
  MO trafo                  ....       0.000 sec  (  0.0 % of DIIS)
  Orb grad                  ....       0.000 sec  (  0.0 % of DIIS)
  Energy W gradient         ....       0.000 sec  (  0.0 % of DIIS)
  DIIS error                ....       0.103 sec  ( 15.8 % of DIIS)
  DIIS work                 ....       0.489 sec  ( 75.2 % of DIIS)
  Form Q                    ....       0.000 sec  (  0.0 % of DIIS)
  Form QpQm                 ....       0.000 sec  (  0.0 % of DIIS)
  Exp/Cayley                ....       0.000 sec  (  0.0 % of DIIS)
  Orb update                ....       0.000 sec  (  0.0 % of DIIS)
  Wake-sleep                ....       0.004 sec  (  0.5 % of DIIS)
SOSCF solution              ....       0.091 sec  (  0.2%)
  MO trafo                  ....       0.069 sec  ( 75.5 % of SOSCF)
  Orb grad                  ....       0.000 sec  (  0.3 % of SOSCF)
  Rot update                ....       0.000 sec  (  0.1 % of SOSCF)
  Step                      ....       0.022 sec  ( 24.1 % of SOSCF)
Finished LeanSCF after  58.7 sec

Maximum memory used throughout the entire LEANSCF-calculation: 53.8 MB


-------------------------------------------------------------------------------
                          DFT DISPERSION CORRECTION                            
                                                                               
                                DFTD4 V3.4.0                                   
-------------------------------------------------------------------------------
The R2SCAN3C composite method is recognized
Using three-body term ABC
Active option DFTDOPT                   ...         5   

-------------------------   ----------------
Dispersion correction           -0.013438138
-------------------------   ----------------

------------------   -----------------
gCP correction             0.010684898
------------------   -----------------

-------------------------   --------------------
FINAL SINGLE POINT ENERGY      -829.575412696145
-------------------------   --------------------


------------------------------------------------------------------------------
                              ORCA PROPERTY CALCULATIONS
------------------------------------------------------------------------------

GBWName                                 ... sp_gas.gbw
Number of atoms                         ...     31
Number of basis functions               ...    422
Max core memory                         ...   1024 MB

Electric properties:
Dipole moment                           ... YES
Quadrupole moment                       ...  NO
Static polarizability (Dipole/Dipole)   ...  NO
Static polarizability (Dipole/Quad.)    ...  NO
Static polarizability (Quad./Quad.)     ...  NO
Static polarizability (Velocity)        ...  NO

Atomic electric properties:
Dipole moment                           ...  NO
Quadrupole moment                       ...  NO
Static polarizability                   ...  NO

Choice of electric origin               ... Center of mass
Position of electric origin             ...     0.000022     0.000011    -0.000008

General magnetic properties:
Magnetizability                         ...  NO

EPR properties:
g-Tensor (aka g-matrix)                 ...  NO
Zero-Field splitting spin-orbit         ...  NO
Zero-field splitting spin-spin          ...  NO
Hyperfine couplings                     ...  NO (   0 nuclei)
Quadrupole couplings                    ...  NO (   0 nuclei)
Contact density                         ...  NO (   0 nuclei)

NMR properties:
Chemical shifts                         ...  NO (   0 nuclei)
Spin-rotation constants                 ...  NO (   0 nuclei)
Spin-spin couplings                     ...  NO (   0 nuclei,    0 pairs)

Choice of magnetic origin               ... GIAO
Position of magnetic origin             ...     0.000000     0.000000     0.000000

Properties with geometric perturbations:
SCF Hessian                             ...  NO
IR spectrum                             ...  NO
VCD spectrum                            ...  NO
X-ray spectroscopy properties:
SCF XES/XAS/RIXS spectra                ...  NO


-------------
DIPOLE MOMENT
-------------

Method             : SCF
Type of density    : Electron Density
Multiplicity       :   1
Irrep              :   0
Energy             :  -829.5726594564175684 Eh
Relativity type    : 
Basis              : AO
                                X                 Y                 Z
Electronic contribution:      1.823315766      -7.580969244       2.196083958
Nuclear contribution   :     -1.902956953       8.720992391      -2.359944315
                        -----------------------------------------
Total Dipole Moment    :     -0.079641187       1.140023147      -0.163860357
                        -----------------------------------------
Magnitude (a.u.)       :      1.154489372
Magnitude (Debye)      :      2.934478778



--------------------
Rotational spectrum 
--------------------
 
Rotational constants in cm-1:             0.036492             0.006404             0.006095 
Rotational constants in MHz :          1093.988387           191.975080           182.719655 

Dipole components along the rotational axes: 
x,y,z [a.u.] :    -0.101052     1.119746    -0.262304 
x,y,z [Debye]:    -0.256854     2.846168    -0.666724 

 

Dipole moment calculation done in   0.0 sec 

Maximum memory used throughout the entire PROP-calculation: 36.8 MB

--------------------------------
SUGGESTED CITATIONS FOR THIS RUN
--------------------------------

Below you find a list of papers that are relevant to this ORCA run
We neither can nor want to force you to cite these papers, but we appreciate if you do
You receive ORCA, which is the product of decades of hard work by many enthusiastic individuals, for free
The only thing we kindly ask in return is that you cite our papers,
We deeply appreciate it, if you show your appreciation for ORCA by not just citing the generic ORCA reference.

Please note that relegating all ORCA citations to the supporting information does *not* help us.
SI sections are not indexed - citations you put there will not count into any citation statistics
But we need these citations in order to attract the funding resources that allow us to do what we are doing

Therefore, if you are a happy ORCA user, please consider citing a few of the papers listed below in the main body of your paper

In addition to the list printed below, the program has created the file sp_gas.bibtex that contains the list in bibtex format
You can import this file easily into all common literature databanks and citation aid programs


List of essential papers. We consider these as the minimum necessary citations

  1. Neese,F.
     Software update: the ORCA program system, version 5.0
     WIRES Comput. Molec. Sci., 2022 12(1)e1606
     doi.org/10.1002/wcms.1606
  2. Grimme,S.; Hansen,A.; Ehlert,S.; Mewes,J.
     r2SCAN-3c: A 'Swiss army knife' composite electronic-structure method
     J. Chem. Phys., 2021 154 064103
     doi.org/10.1063/5.0040021

List of papers to cite with high priority. The work reported in these papers was absolutely
necessary for this run to complete.
Our perspective: the developers of density functionals and basis sets usually get cited in chemistry papers
Good! But without the algorithms to do something with them, the functionals or basis sets would not do anything.
Hence, in our opinion, the algorithm design and method developments papers are equally worthy of getting cited

  1. Neese,F.
     An improvement of the resolution of the identity approximation for the formation of the Coulomb matrix
     J. Comp. Chem., 2003 24(14)1740-1747
     doi.org/10.1002/jcc.10318
  2. Neese,F.
     The SHARK Integral Generation and Digestion System
     J. Comp. Chem., 2022  1-16
     doi.org/10.1002/jcc.26942
  3. Lehtola,S.; Steigemann,C.; Oliveira,M.; Marques,M.
     Recent developments in Libxc - A comprehensive library of functionals for density functional theory
     Software X, 2018 7 
     doi.org/10.1016/j.softx.2017.11.002
  4. Caldeweyher,E.; Bannwarth,C.; Grimme,S.
     Extension of the D3 dispersion coefficient model
     J. Chem. Phys., 2017 147 034112
     doi.org/10.1063/1.4993215
  5. Caldeweyher,E.; Ehlert,S.; Hansen,A.; Neugebauer,H.; Spicher,S.; Bannwarth,C.; Grimme,S.
     A generally applicable atomic-charge dependent London dispersion correction
     J. Chem. Phys., 2019 150 154122
     doi.org/10.1063/1.5090222
  6. Caldeweyher,E.; Mewes,J.; Ehlert,S.; Grimme,S.
     Extension and evaluation of the D4 London-dispersion model for periodic systems
     Phys. Chem. Chem. Phys., 2020 22(16)8499-8512
     doi.org/10.1039/D0CP00502A
  7. Wittmann,L.; Gordiy,I.; Friede,M.; Helmich-Paris,B.; Grimme,S.; Hansen,A.; Bursch,M.
     Extension of the D3 and D4 London Dispersion Corrections to the full Actinides Series
     Phys. Chem. Chem. Phys., 2024 26(32)21379-21394
     doi.org/https://doi.org/10.1039/D4CP01514B 

List of suggested additional citations. These are papers that are important in the 'surrounding' of 
of this run, or papers that preceded the highly important papers. If you like your results we are grateful for a citation.

  1. Neese,F.
     The ORCA program system
     WIRES Comput. Molec. Sci., 2012 2(1)73-78
     doi.org/10.1002/wcms.81
  2. Neese,F.
     Software update: the ORCA program system, version 4.0
     WIRES Comput. Molec. Sci., 2018 8(1)1-6
     doi.org/10.1002/wcms.1327
  3. Neese,F.; Wennmohs,F.; Becker,U.; Riplinger,C.
     The ORCA quantum chemistry program package
     J. Chem. Phys., 2020 152 Art. No. L224108
     doi.org/10.1063/5.0004608

List of optional additional citations

  1. Neese,F.
     Approximate second-order SCF convergence for spin unrestricted wavefunctions
     Chem. Phys. Lett., 2000 325(1-3)93-98
     doi.org/10.1016/s0009-2614(00)00662-x

Timings for individual modules:

Sum of individual times          ...       61.225 sec (=   1.020 min)
Startup calculation              ...        2.053 sec (=   0.034 min)   3.4 %
SCF iterations                   ...       59.001 sec (=   0.983 min)  96.4 %
Property calculations            ...        0.171 sec (=   0.003 min)   0.3 %
                             ****ORCA TERMINATED NORMALLY****
TOTAL RUN TIME: 0 days 0 hours 1 minutes 2 seconds 8 msec
