13
 energy: -20.959934415490 gnorm: 0.041293596567 xtb: 6.7.1 (edcfbbe)
C           -1.96357335493291        0.97830305055920       -0.37741785051872
C           -1.56728499415838       -0.26869918258340        0.40694236876717
C           -0.33912454064510       -0.95903630930242       -0.14382214343170
N            0.92044764266618       -0.12652183224843       -0.01441103964020
O            0.99008573436323        0.70220458793616        0.88352561514377
O            1.82720457424878       -0.35240592876785       -0.80944227328277
H           -2.14193834196657        0.73614475125067       -1.43029406658055
H           -2.88135346167764        1.41133511558070        0.03039544907802
H           -1.18582288180684        1.74732504130626       -0.33198641549093
H           -2.37013949092241       -1.01310204055790        0.35543718537199
H           -1.42055347497256       -0.03820351328199        1.46643792656542
H           -0.10215061939476       -1.87888942168101        0.40246061844655
H           -0.41833599769085       -1.19387283550230       -1.20716904543610
13
 energy: -20.961785030930 gnorm: 0.019245595802 xtb: 6.7.1 (edcfbbe)
C           -1.95445567989088        0.96959147880788       -0.37777474777958
C           -1.56359872837271       -0.27390572450480        0.40806562003211
C           -0.32946964213666       -0.95368590032936       -0.15156441921450
N            0.90173158706624       -0.12766327416880       -0.01129410917448
O            0.96015492437043        0.69448504051931        0.87938368025734
O            1.80392844637117       -0.34213758492385       -0.80013756851483
H           -2.13241799000733        0.72660437936268       -1.42456055608740
H           -2.86515357914215        1.40070197023421        0.03236672599038
H           -1.17371202273168        1.72779299765239       -0.32555634996106
H           -2.37845690664304       -1.00142543864672        0.36526339925188
H           -1.40133566105288       -0.01556734290485        1.45680090105402
H           -0.10574240582023       -1.87470991493468        0.39384012228316
H           -0.41401154890009       -1.18549920345571       -1.21417636914512
13
 energy: -20.962206809628 gnorm: 0.008198543131 xtb: 6.7.1 (edcfbbe)
C           -1.95090886002245        0.96600224694241       -0.38062571067867
C           -1.56000821655863       -0.27644641643711        0.41112231002797
C           -0.31957905725604       -0.94857322734721       -0.15659645395876
N            0.88449254309915       -0.12574570499243       -0.01116360861490
O            0.93986709672490        0.68345531460897        0.88524628698576
O            1.79006840439274       -0.33681707539534       -0.79150471030754
H           -2.12639526993246        0.72100972745755       -1.42449766731647
H           -2.85904983096273        1.39723912063402        0.02793256965971
H           -1.16925949002358        1.71983217912958       -0.32613491296472
H           -2.37652652380351       -0.99809262649383        0.38211664248883
H           -1.37955744269079       -0.00226408476735        1.45168203080342
H           -0.10977650052717       -1.87701055918998        0.38182591166738
H           -0.41590605932925       -1.17800741144157       -1.21874635880007
13
 energy: -20.962223346012 gnorm: 0.005881959967 xtb: 6.7.1 (edcfbbe)
C           -1.95112145844433        0.96551774168795       -0.38202671466530
C           -1.55896961929833       -0.27545035375834        0.41328672963658
C           -0.31747386981301       -0.94808051872946       -0.15720353497556
N            0.88701382278479       -0.13528247915413       -0.00213885755418
O            0.93622516583067        0.68351582714099        0.88730746846999
O            1.78791506497422       -0.32860379085421       -0.79501944169594
H           -2.12526089781450        0.71710481745753       -1.42562382063508
H           -2.86017112935648        1.39713295484542        0.02486736946467
H           -1.16939767398847        1.71972635344948       -0.32854591054596
H           -2.37508506475036       -0.99660716580721        0.38954972962923
H           -1.37398059130752        0.00176777955161        1.45185915362598
H           -0.11539887152830       -1.88269249995803        0.37482291662833
H           -0.41683408417821       -1.17346718316390       -1.22047875839083
13
 energy: -20.962271343450 gnorm: 0.001401575680 xtb: 6.7.1 (edcfbbe)
C           -1.95336875532735        0.96512479073580       -0.38282622176817
C           -1.55892701862496       -0.27390153233668        0.41452084273564
C           -0.31775711526864       -0.94657900177093       -0.15834230430782
N            0.88641878021754       -0.13221761016593       -0.00512109792003
O            0.94169839336832        0.67760028218719        0.89386355142319
O            1.79250056200313       -0.33115308046810       -0.79240834543398
H           -2.12734995845973        0.71395973235507       -1.42630343734245
H           -2.86329608517244        1.39658303027661        0.02348788533580
H           -1.17216932645067        1.72063285324928       -0.33126670471717
H           -2.37376841312429       -0.99653025883486        0.39397242740809
H           -1.37210742702778        0.00467673294391        1.45235447646007
H           -0.11583068924548       -1.88320116779356        0.37078952065324
H           -0.41858215377744       -1.17041328767009       -1.22206426353447
13
 energy: -20.962279897161 gnorm: 0.001041629830 xtb: 6.7.1 (edcfbbe)
C           -1.95617584321547        0.96427566882239       -0.38419487460652
C           -1.55786357040993       -0.27152069278150        0.41598005205929
C           -0.31790565105643       -0.94487438462411       -0.15952807343534
N            0.88741450047506       -0.13412134616300       -0.00354057223253
O            0.94739506145428        0.67048788980503        0.90083472924658
O            1.79480742842109       -0.33212341642256       -0.79045201060280
H           -2.13024790032729        0.70989547157204       -1.42700406920729
H           -2.86716311481017        1.39473159008851        0.02109548571870
H           -1.17691784384586        1.72216922065186       -0.33558765271982
H           -2.37132308044936       -0.99585265889636        0.40051627507161
H           -1.36730617750185        0.00984131826983        1.45229970831484
H           -0.11792713804860       -1.88479330657778        0.36468207368728
H           -0.41932587757529       -1.16353387103665       -1.22444474230206
13
 energy: -20.962284291592 gnorm: 0.000834659558 xtb: 6.7.1 (edcfbbe)
C           -1.95786810171504        0.96337013218950       -0.38519735777038
C           -1.55689598839965       -0.27008693659419        0.41666577346093
C           -0.31823863382450       -0.94381531844338       -0.16048922987943
N            0.88872051301875       -0.13624225332940       -0.00126826478576
O            0.95069347906759        0.66586972956088        0.90509443466815
O            1.79545214550671       -0.33226782978733       -0.78922362449960
H           -2.13232680255552        0.70699368027931       -1.42738870994221
H           -2.86932544243160        1.39290632378232        0.01990085481419
H           -1.17994593384367        1.72275975142161       -0.33865951638118
H           -2.37010881529605       -0.99495475839293        0.40531240615437
H           -1.36352247310877        0.01384654106665        1.45174454032823
H           -0.11988923538840       -1.88570972925720        0.36047141271676
H           -0.41928391791968       -1.15808784978813       -1.22630638989212
13
 energy: -20.962287126587 gnorm: 0.000447411974 xtb: 6.7.1 (edcfbbe)
C           -1.95945592128611        0.96253008977275       -0.38626649077862
C           -1.55580150154408       -0.26892712567897        0.41725063254398
C           -0.31846702681999       -0.94302444987398       -0.16167214255815
N            0.88993541598013       -0.13762209876266        0.00082682474819
O            0.95275503251756        0.66116032674193        0.90982108656110
O            1.79612177375300       -0.33202658901071       -0.78789729999374
H           -2.13509799636294        0.70402849179999       -1.42770555777817
H           -2.87080247166627        1.39180902833408        0.01929681500565
H           -1.18225453881241        1.72280196194652       -0.34235527430849
H           -2.36908138007128       -0.99377597660718        0.41028998199767
H           -1.35949071220719        0.01764450156604        1.45105962085683
H           -0.12166578786300       -1.88676910009826        0.35626163583610
H           -0.41923409250724       -1.15324757742184       -1.22825350314039
13
 energy: -20.962288538962 gnorm: 0.000137295342 xtb: 6.7.1 (edcfbbe)
C           -1.96054839005978        0.96201678768299       -0.38709155788578
C           -1.55527552512086       -0.26821538405932        0.41765458938033
C           -0.31852175626669       -0.94231437462509       -0.16239505145221
N            0.89092101003325       -0.13836395667987        0.00228280344888
O            0.95416220883760        0.65762780708082        0.91356138174740
O            1.79664034762571       -0.33163506348906       -0.78715850538642
H           -2.13802719061678        0.70174690220851       -1.42777936010285
H           -2.87125706674390        1.39168314213510        0.01945297903214
H           -1.18337132873258        1.72247173039867       -0.34582985899274
H           -2.36839172550635       -0.99313384027141        0.41340920457479
H           -1.35701682781970        0.02001468921480        1.45059569931784
H           -0.12272811968180       -1.88739108640438        0.35341956457743
H           -0.41912484283794       -1.14992587048407       -1.22946555926687
13
 energy: -20.962289283019 gnorm: 0.000157533719 xtb: 6.7.1 (edcfbbe)
C           -1.96130339844937        0.96173371803270       -0.38761104865450
C           -1.55483967618152       -0.26773350259607        0.41777399037790
C           -0.31841405493037       -0.94198056901354       -0.16286776078608
N            0.89141251295042       -0.13871534201374        0.00325622456079
O            0.95491840614451        0.65525777052461        0.91622908239266
O            1.79686851185560       -0.33104023434202       -0.78665927685477
H           -2.14091115924596        0.70025214965123       -1.42762389048670
H           -2.87102570385273        1.39232121547206        0.02019552347899
H           -1.18365434932126        1.72180431507199       -0.34878695421914
H           -2.36780767449294       -0.99274392278328        0.41485039590125
H           -1.35567882641506        0.02139434358459        1.45027701999737
H           -0.12319967391443       -1.88777497856664        0.35183889340443
H           -0.41890412103671       -1.14819348031420       -1.23021587012025
13
 energy: -20.962289901621 gnorm: 0.000197310219 xtb: 6.7.1 (edcfbbe)
C           -1.96178394877870        0.96144577477599       -0.38811783690017
C           -1.55475094502497       -0.26750294892003        0.41780963514268
C           -0.31830659266903       -0.94153313222463       -0.16314465402002
N            0.89186335908343       -0.13891399485418        0.00409055453474
O            0.95582242073124        0.65313264799653        0.91869822769510
O            1.79704895375187       -0.33007809678051       -0.78643437840855
H           -2.14413190012707        0.69888182691250       -1.42738648565443
H           -2.87015546736922        1.39330597966871        0.02135861422119
H           -1.18338137392413        1.72090467828375       -0.35206875134411
H           -2.36756225431392       -0.99269595527938        0.41578297542511
H           -1.35497475121908        0.02222051031213        1.45001835537480
H           -0.12363576258408       -1.88788427301735        0.35075362123661
H           -0.41859094444615       -1.14670153416582       -1.23070354831101
13
 energy: -20.962290521688 gnorm: 0.000135527304 xtb: 6.7.1 (edcfbbe)
C           -1.96239449519986        0.96113482380065       -0.38871841881251
C           -1.55447361922701       -0.26714480494716        0.41775747154596
C           -0.31812919395721       -0.94123553927546       -0.16344848321642
N            0.89216849747968       -0.13919824402730        0.00518343435479
O            0.95677575261034        0.65041054209689        0.92189631525881
O            1.79693608027144       -0.32834465398191       -0.78633382892719
H           -2.14841021759949        0.69721296770281       -1.42699825987778
H           -2.86885497589649        1.39496125987000        0.02296407369237
H           -1.18277665459466        1.71951964056818       -0.35633929250525
H           -2.36710029091927       -0.99252683572699        0.41659460862405
H           -1.35418110906435        0.02317935090786        1.44970667492723
H           -0.12401714260546       -1.88814450321269        0.34965561913890
H           -0.41808183818746       -1.14524252106717       -1.23126358521101
13
 energy: -20.962290945677 gnorm: 0.000062796952 xtb: 6.7.1 (edcfbbe)
C           -1.96294020801477        0.96070806240171       -0.38944199757417
C           -1.55427922505692       -0.26680994898380        0.41775065020979
C           -0.31800028876239       -0.94081456519704       -0.16375108442559
N            0.89248459140461       -0.13946810147150        0.00634050730290
O            0.95817161186250        0.64707858993963        0.92565797613033
O            1.79659685527312       -0.32605885654925       -0.78652597872104
H           -2.15280579106778        0.69533796005060       -1.42664312624426
H           -2.86738414289651        1.39656557318696        0.02450358803606
H           -1.18214039590206        1.71803246857599       -0.36097382255916
H           -2.36677034961613       -0.99237917691891        0.41765083362447
H           -1.35333569166771        0.02428629775867        1.44938194836006
H           -0.12453719252341       -1.88829040327177        0.34853897924169
H           -0.41759897992237       -1.14360641681360       -1.23183214438914
13
 energy: -20.962291150061 gnorm: 0.000100123964 xtb: 6.7.1 (edcfbbe)
C           -1.96343509659289        0.96038788030595       -0.39008629387277
C           -1.55406642689625       -0.26643883643871        0.41777775000793
C           -0.31791394760921       -0.94055151031186       -0.16391953858273
N            0.89277343269560       -0.13980199038449        0.00730856403729
O            0.95952589329316        0.64384125234154        0.92906980602902
O            1.79606799233732       -0.32375328762349       -0.78713332857644
H           -2.15600424197409        0.69375848342119       -1.42646342576562
H           -2.86648492462532        1.39771820278349        0.02536688718429
H           -1.18182289801084        1.71698940393796       -0.36456119874022
H           -2.36644867738839       -0.99213085910937        0.41871173614853
H           -1.35251349851021        0.02535143297340        1.44909420157506
H           -0.12499853651754       -1.88850251982233        0.34771121044983
H           -0.41721827709115       -1.14228616936559       -1.23222004090222
13
 energy: -20.962291315318 gnorm: 0.000123243525 xtb: 6.7.1 (edcfbbe)
C           -1.96380153267732        0.96004581171050       -0.39075347750022
C           -1.55384774232471       -0.26604937542613        0.41789640498080
C           -0.31788521605421       -0.94031384466421       -0.16408167713160
N            0.89297113153277       -0.14007546839821        0.00814286962119
O            0.96102425942081        0.64034388737489        0.93257142455818
O            1.79519555667893       -0.32119893926667       -0.78813588585917
H           -2.15829555360477        0.69230457173827       -1.42647010232619
H           -2.86588358806868        1.39839007307322        0.02569695019621
H           -1.18171867047229        1.71622241323932       -0.36750253445658
H           -2.36616203020841       -0.99181340256389        0.41990572770949
H           -1.35162329555144        0.02654240740765        1.44887282436728
H           -0.12549626589029       -1.88861704634825        0.34706841933602
H           -0.41701625967022       -1.14119960516878       -1.23255461450346
13
 energy: -20.962291598128 gnorm: 0.000151194366 xtb: 6.7.1 (edcfbbe)
C           -1.96427434321215        0.95963721363807       -0.39168197532187
C           -1.55357462632239       -0.26546649326118        0.41806470873865
C           -0.31787092101864       -0.94011623537834       -0.16411773554137
N            0.89327039391009       -0.14049352166043        0.00914604862234
O            0.96347521341674        0.63490414413083        0.93766739145219
O            1.79351985457605       -0.31701439436791       -0.79038309840678
H           -2.16042692803885        0.69042781632257       -1.42668919407710
H           -2.86556571699088        1.39895979703663        0.02544598369873
H           -1.18184341957833        1.71551985874843       -0.37082226779414
H           -2.36586210318638       -0.99124571907340        0.42163293925257
H           -1.35042607185513        0.02827012713573        1.44853036995576
H           -0.12616865416719       -1.88876403629801        0.34663059628338
H           -0.41679188442276       -1.14003707426528       -1.23276743787041
13
 energy: -20.962292223554 gnorm: 0.000429601424 xtb: 6.7.1 (edcfbbe)
C           -1.96512563285753        0.95864459853424       -0.39414249028176
C           -1.55290698793880       -0.26400189264947        0.41852195945193
C           -0.31790713735287       -0.93986328324517       -0.16405520643833
N            0.89375445437494       -0.14139589774593        0.01144343072955
O            0.96986410791925        0.62031807180418        0.95101202105062
O            1.78827367738587       -0.30509365340533       -0.79728109117181
H           -2.16461353009335        0.68605290233289       -1.42762603449605
H           -2.86489917005598        1.39994057421629        0.02418291263220
H           -1.18211692175804        1.71409053953308       -0.37842877674832
H           -2.36519257838570       -0.98971396474269        0.42589511092008
H           -1.34747262316457        0.03260444508284        1.44772459595306
H           -0.12785912351857       -1.88894459504880        0.34642308623160
H           -0.41633774144445       -1.13805636195843       -1.23301318884083
13
 energy: -20.962293024674 gnorm: 0.000448948563 xtb: 6.7.1 (edcfbbe)
C           -1.96540764439386        0.95815060018426       -0.39565439764506
C           -1.55261440145381       -0.26310836854472        0.41878713879753
C           -0.31792814939328       -0.93995119852868       -0.16364373130904
N            0.89389612279008       -0.14182995785602        0.01242791000856
O            0.97447263310105        0.61015635798599        0.95946043087970
O            1.78383744504879       -0.29616832760779       -0.80311538604072
H           -2.16525484056395        0.68376827534809       -1.42855115331032
H           -2.86509880324897        1.39999742923308        0.02224415572346
H           -1.18250364497756        1.71371061921364       -0.38171911526191
H           -2.36500001924269       -0.98861674212228        0.42828942632733
H           -1.34596137287310        0.03519943359311        1.44723042913129
H           -0.12882990026105       -1.88884195609506        0.34751496406724
H           -0.41614663142146       -1.13788468209593       -1.23261434237612
13
 energy: -20.962290733977 gnorm: 0.003312055039 xtb: 6.7.1 (edcfbbe)
C           -1.96513873173116        0.95616908755270       -0.40203860502095
C           -1.55170914332438       -0.25962359372776        0.42021033728027
C           -0.31839605064407       -0.94114075665726       -0.16123289130277
N            0.89349776917461       -0.14297113317421        0.01570699087785
O            0.99404854665424        0.56650892694758        0.99482242204611
O            1.76220796006702       -0.25470154000612       -0.83079484980926
H           -2.16365005714236        0.67495661644352       -1.43336482387386
H           -2.86590481446315        1.39939830864559        0.01216974860326
H           -1.18303664731853        1.71271329985212       -0.39278105875783
H           -2.36477735697249       -0.98404225149635        0.43743491362537
H           -1.34083891516563        0.04527667700190        1.44586261658112
H           -0.13257371996834       -1.88811327731406        0.35457658153019
H           -0.41626804605554       -1.13984888135994       -1.22991505278756
13
 energy: -20.962296823807 gnorm: 0.000626972573 xtb: 6.7.1 (edcfbbe)
C           -1.96424011289880        0.95737089321846       -0.39935176103768
C           -1.55240082436623       -0.26110926014034        0.41968961884637
C           -0.31835443745454       -0.94151826335005       -0.16116968408698
N            0.89299323316576       -0.14206419218203        0.01290640998468
O            0.98761118138761        0.58167835019055        0.98021313931048
O            1.76741344905314       -0.26737118755102       -0.82394104549919
H           -2.15751830415046        0.68016920408816       -1.43267030122937
H           -2.86758654152417        1.39744088605200        0.01252945959258
H           -1.18350531681486        1.71505019744895       -0.38313546992211
H           -2.36550644145657       -0.98551679063686        0.43293674061375
H           -1.34386996225114        0.04071563670333        1.44664461690301
H           -0.13078662239333       -1.88775132693089        0.35541511021585
H           -0.41678850718624       -1.14251266420256       -1.22941050469945
13
 energy: -20.962299048891 gnorm: 0.000579383270 xtb: 6.7.1 (edcfbbe)
C           -1.96315882329974        0.95714971041361       -0.40037938844862
C           -1.55262210603932       -0.26096083734384        0.41982724464522
C           -0.31853767195774       -0.94241801609044       -0.16008994052621
N            0.89209419232686       -0.14159393059740        0.01277119214699
O            0.99118332795426        0.57370506736447        0.98589111090914
O            1.76124317224801       -0.25719639389498       -0.83073629532868
H           -2.15494432705875        0.67948117060439       -1.43394987287607
H           -2.86712760664535        1.39743588039852        0.01004014321384
H           -1.18232213872762        1.71490222616273       -0.38350806478778
H           -2.36614384548547       -0.98493042989029        0.43323987712574
H           -1.34418776464995        0.04143682610390        1.44666065780497
H           -0.13085533215120       -1.88730171492654        0.35884791670527
H           -0.41716028340380       -1.14512807559644       -1.22795825159186
13
 energy: -20.962300429096 gnorm: 0.000593115032 xtb: 6.7.1 (edcfbbe)
C           -1.96144853455670        0.95686104162224       -0.40032703447109
C           -1.55310255516453       -0.26181459418757        0.42004464214283
C           -0.31885845359875       -0.94323900998864       -0.15947840937655
N            0.89101501109076       -0.14131773495989        0.01291546690711
O            0.98961961394078        0.57560286681026        0.98503948497952
O            1.75866667819269       -0.25368470777730       -0.83230831120212
H           -2.15426664830954        0.67973377386961       -1.43390737990782
H           -2.86424441100622        1.39906130256774        0.01051145689339
H           -1.17907907938983        1.71313379861971       -0.38376359923899
H           -2.36701547013031       -0.98556688449880        0.43194668274862
H           -1.34578637149618        0.03996238868639        1.44742712026729
H           -0.13044645674012       -1.88772943195152        0.35985258357327
H           -0.41759252972185       -1.14642132610452       -1.22729637432351
13
 energy: -20.962301996444 gnorm: 0.000639225837 xtb: 6.7.1 (edcfbbe)
C           -1.95902390614314        0.95647813280792       -0.40017735848699
C           -1.55414799739502       -0.26332242598298        0.42007598139782
C           -0.31924647068905       -0.94432788671458       -0.15845275459975
N            0.88820973776490       -0.13851258396680        0.01147810298244
O            0.98825955218915        0.57690161411965        0.98480301484682
O            1.75520141592816       -0.24873967440896       -0.83436439334293
H           -2.15425950532117        0.68004152465197       -1.43355206035713
H           -2.85936730642144        1.40255564154235        0.01177592245809
H           -1.17358826059136        1.70975940265680       -0.38481421788359
H           -2.36858873031250       -0.98677482711222        0.42928411648284
H           -1.34893598205115        0.03729100040331        1.44838105632386
H           -0.12872308307505       -1.88764087049498        0.36219631467408
H           -0.41832867077215       -1.14912756479377       -1.22597739550361
13
 energy: -20.962303110087 gnorm: 0.000351064474 xtb: 6.7.1 (edcfbbe)
C           -1.95889694106910        0.95689661586785       -0.39990422576045
C           -1.55450253945607       -0.26373939900066        0.41937316466711
C           -0.31889503238450       -0.94481262064630       -0.15779852193414
N            0.88821391041513       -0.13842453325812        0.01123721915398
O            0.98819842460198        0.57674586983713        0.98470377855611
O            1.75439471032052       -0.24685797717143       -0.83595146604147
H           -2.15493226447339        0.68059707454763       -1.43308449357869
H           -2.85849780936515        1.40414464569318        0.01250180222118
H           -1.17249838385130        1.70911388103697       -0.38502460832851
H           -2.36916603718328       -0.98675176409353        0.42743767944819
H           -1.35022715162202        0.03595596285040        1.44794829506462
H           -0.12803139198596       -1.88726023107469        0.36425252037965
H           -0.41769870083668       -1.15102604188072       -1.22503481485565
13
 energy: -20.962304009781 gnorm: 0.000327344361 xtb: 6.7.1 (edcfbbe)
C           -1.95821088296795        0.95724847072062       -0.39995182105408
C           -1.55484434179815       -0.26406367105251        0.41894319390038
C           -0.31870430431201       -0.94517810535158       -0.15723994947013
N            0.88795210691399       -0.13803151603935        0.01081898350578
O            0.98840650163885        0.57554371986066        0.98532616560692
O            1.75263761766433       -0.24376429434411       -0.83850156064639
H           -2.15534976934767        0.68141630979781       -1.43301918244023
H           -2.85705586580813        1.40514632937607        0.01333004107276
H           -1.17116947119096        1.70871834967097       -0.38540894470310
H           -2.36951872585602       -0.98689989435410        0.42513063906948
H           -1.35185012506710        0.03448347796944        1.44801205054184
H           -0.12768505066230       -1.88622332038281        0.36725326264564
H           -0.41714689609669       -1.15381437316341       -1.22403654903694
13
 energy: -20.962304889461 gnorm: 0.000357992613 xtb: 6.7.1 (edcfbbe)
C           -1.95728300853230        0.95758523644940       -0.40010412686693
C           -1.55521336259852       -0.26443430609368        0.41840410003403
C           -0.31851158160688       -0.94595333124921       -0.15639325119870
N            0.88730477610916       -0.13732216909476        0.01030092310053
O            0.98933605184343        0.57308777827624        0.98693497575473
O            1.74931269594113       -0.23869565303425       -0.84226141045724
H           -2.15507615735549        0.68222399666316       -1.43315432950416
H           -2.85548983896667        1.40635680900319        0.01366951410888
H           -1.16940582615512        1.70816134202409       -0.38563906518537
H           -2.37006107518096       -0.98711378596506        0.42267233357272
H           -1.35359281941346        0.03334064197388        1.44795682445902
H           -0.12709483288251       -1.88539899558701        0.37090906224769
H           -0.41676422809161       -1.15725608065827       -1.22263922107326
13
 energy: -20.962306948681 gnorm: 0.000681061477 xtb: 6.7.1 (edcfbbe)
C           -1.95488221051054        0.95789388159770       -0.40100356399140
C           -1.55617031511022       -0.26511033132725        0.41771190054196
C           -0.31836238878771       -0.94767315761458       -0.15419616002063
N            0.88570910000583       -0.13572115877592        0.00919471694136
O            0.99320565932274        0.56452525692889        0.99264734284865
O            1.73991109087983       -0.22428315070194       -0.85269026294850
H           -2.15270921848450        0.68337364563693       -1.43425324858791
H           -2.85239571446559        1.40824765798801        0.01257393729034
H           -1.16559395787824        1.70697893598701       -0.38596249637510
H           -2.37159945613242       -0.98718880575386        0.41872369375979
H           -1.35709039093696        0.03152777055910        1.44806556379602
H           -0.12623648682152       -1.88362845374140        0.37912242458773
H           -0.41632491797051       -1.16436060807498       -1.21927751885039
13
 energy: -20.962309811999 gnorm: 0.002081606012 xtb: 6.7.1 (edcfbbe)
C           -1.95048600994021        0.95815774362604       -0.40326043909517
C           -1.55744155058035       -0.26569554909769        0.41688734676441
C           -0.31838175497610       -0.95124345822406       -0.15010722084210
N            0.88239906264459       -0.13323316925046        0.00763146021471
O            1.00221993555794        0.54416870329398        1.00623194929654
O            1.71993374305818       -0.19364203613015       -0.87370050530882
H           -2.14634862546736        0.68411565796599       -1.43698730651749