11
 energy: -18.587151324187 gnorm: 0.025085353136 xtb: 6.7.1 (edcfbbe)
C           -0.03790504163400        0.89226215948856        0.27046616396677
C           -0.86108391117657       -0.37813079260797        0.25489133655692
Cl          -2.54060192855328       -0.04030449349123       -0.40774258574420
C            1.33178165937037        0.67384897077274        0.87716463626184
Cl           2.37099509204395       -0.44008409411106       -0.16318397572087
H            0.05413770626216        1.30730235357752       -0.73762466180531
H           -0.53261803402090        1.64414211727410        0.89780989131559
H           -0.43501992512452       -1.14417863460419       -0.39394985553144
H           -1.00665919750178       -0.78077115661047        1.25913691576502
H            1.27999841461215        0.19892443736900        1.85860620185615
H            1.88439957761113        1.61088397806118        0.94676686095322
11
 energy: -18.588039984053 gnorm: 0.014939030911 xtb: 6.7.1 (edcfbbe)
C           -0.03999368035909        0.89794935643157        0.27783177675785
C           -0.85639448871175       -0.37820469494183        0.25693547535751
Cl          -2.51638612784842       -0.04405262080641       -0.40588393950858
C            1.33216761687396        0.67712481801959        0.88124471331776
Cl           2.33878027785049       -0.43373482087829       -0.16038112502222
H            0.05408102931642        1.29623599398661       -0.73371057418019
H           -0.54746188313738        1.64707118549757        0.89212257730558
H           -0.42508629977954       -1.13511650697770       -0.39512284700682
H           -1.01410166850966       -0.77999829669659        1.25623320175193
H            1.28461885936115        0.19204549667213        1.85406009381159
H            1.89720077683252        1.60457493481152        0.93901157528928
11
 energy: -18.588346553622 gnorm: 0.004744915901 xtb: 6.7.1 (edcfbbe)
C           -0.04090049567850        0.90212292601200        0.28257413240555
C           -0.85968576083678       -0.37678170501701        0.25775759930668
Cl          -2.50068410307811       -0.04829962331830       -0.40578718938804
C            1.33557299121708        0.67302994947628        0.87937626358471
Cl           2.31776677177884       -0.43100419906460       -0.16116891919811
H            0.05569243879562        1.29100362031903       -0.73095851667123
H           -0.55399992691775        1.64916715426727        0.88960257619440
H           -0.41449221864012       -1.12611184797010       -0.39217376156231
H           -1.01324420187162       -0.77961887404735        1.25559555255970
H            1.28162532641724        0.19116767293970        1.85132869935649
H            1.89977359070281        1.59921977152125        0.93619449128585
11
 energy: -18.588380664500 gnorm: 0.001644192923 xtb: 6.7.1 (edcfbbe)
C           -0.04116140456475        0.90343815554468        0.28209583060592
C           -0.86220141149309       -0.37636542915365        0.25669804317799
Cl          -2.49899554571415       -0.05083306846529       -0.40745608892468
C            1.33680007905014        0.67046879837983        0.87753439971203
Cl           2.31320874744477       -0.43233088946356       -0.16251268871330
H            0.05484861948026        1.29376346565193       -0.73132597340535
H           -0.55170717915428        1.65042678078611        0.89096844763508
H           -0.41096737127645       -1.12637819825185       -0.38961060521268
H           -1.01104505422867       -0.77892174696921        1.25624018890631
H            1.27997715813614        0.19193001072035        1.85200079123729
H            1.89866777420878        1.59869696633883        0.93770858285506
11
 energy: -18.588385666383 gnorm: 0.000833670752 xtb: 6.7.1 (edcfbbe)
C           -0.04169394951614        0.90399284369611        0.28127106679464
C           -0.86441114070066       -0.37581293555784        0.25580789824010
Cl          -2.49923443839157       -0.05332314688544       -0.41084639194970
C            1.33752718603217        0.66828615237532        0.87489504486224
Cl           2.31473221233739       -0.43352733440792       -0.16263835454830
H            0.05253579619842        1.29800215936174       -0.73141858083162
H           -0.54869331873278        1.65069062395282        0.89432112277005
H           -0.40966946472635       -1.12816441964871       -0.38674615001266
H           -1.01108494573929       -0.77724534405239        1.25733573185042
H            1.27943133216835        0.19257457123024        1.85202078805411
H            1.89798514295916        1.59842167505423        0.93833875264440
11
 energy: -18.588386982260 gnorm: 0.000128018149 xtb: 6.7.1 (edcfbbe)
C           -0.04152649629436        0.90356817114487        0.28170616794147
C           -0.86362058514203       -0.37600073469463        0.25619968494482
Cl          -2.49835892533659       -0.05285900801622       -0.41210829444582
C            1.33739772706119        0.66901033088738        0.87543033649634
Cl           2.31372614207223       -0.43327703737621       -0.16356943742948
H            0.05242776669015        1.29752932037600       -0.73090737026297
H           -0.54897300285671        1.65002024791450        0.89470127134243
H           -0.40948693471566       -1.12852944483892       -0.38622166280267
H           -1.01260834258709       -0.77685814990039        1.25736883014643
H            1.28009161709279        0.19257074235394        1.85198512529737
H            1.89835544590477        1.59872040726785        0.93775627664576
11
 energy: -18.588387287094 gnorm: 0.000103623232 xtb: 6.7.1 (edcfbbe)
C           -0.04179119802834        0.90366634387584        0.28236095492773
C           -0.86361494463437       -0.37590867497114        0.25657063373411
Cl          -2.49742322162281       -0.05314054045065       -0.41417681165295
C            1.33750790887311        0.66895694945041        0.87507365293604
Cl           2.31370883682814       -0.43327163340184       -0.16394025780777
H            0.05169568726035        1.29782788036815       -0.73017285481033
H           -0.54932085588061        1.64982602794310        0.89564870713825
H           -0.40874207303017       -1.12865213255406       -0.38498011186995
H           -1.01418631051833       -0.77625409438158        1.25761386421619
H            1.28087409028409        0.19239861811233        1.85149408653104
H            1.89871649235765        1.59844610112760        0.93684906453133
11
 energy: -18.588387547773 gnorm: 0.000085005422 xtb: 6.7.1 (edcfbbe)
C           -0.04191630435820        0.90374732967596        0.28294373851885
C           -0.86369188815128       -0.37584768960673        0.25684587780146
Cl          -2.49646903394405       -0.05376799024170       -0.41678257259874
C            1.33773484153808        0.66891294974265        0.87482262116403
Cl           2.31281935454520       -0.43352056580551       -0.16496992183720
H            0.05094611199704        1.29847471182412       -0.72944752102153
H           -0.54912657643403        1.64957120556834        0.89689176326465
H           -0.40763985534317       -1.12902873454893       -0.38336293805600
H           -1.01587942903391       -0.77550498316267        1.25790989469253
H            1.28163109885360        0.19247656098618        1.85133710818800
H            1.89901609221941        1.59838205068646        0.93615287775762
11
 energy: -18.588387662993 gnorm: 0.000043368633 xtb: 6.7.1 (edcfbbe)
C           -0.04209845283132        0.90387207596094        0.28332669666200
C           -0.86380592109663       -0.37583926551967        0.25712259790175
Cl          -2.49571160885833       -0.05422910053201       -0.41893915642803
C            1.33783779562511        0.66878404659277        0.87453461549063
Cl           2.31248616563482       -0.43358188549237       -0.16584331515714
H            0.05033028345030        1.29905933306617       -0.72895411731187
H           -0.54891850549482        1.64945848588677        0.89788437625013
H           -0.40680472231309       -1.12943990295437       -0.38194789535716
H           -1.01722086741260       -0.77480135343434        1.25831276689564
H            1.28217310933918        0.19233680872409        1.85111386264320
H            1.89915713584607        1.59827560282019        0.93573049628451
11
 energy: -18.588387697060 gnorm: 0.000028451511 xtb: 6.7.1 (edcfbbe)
C           -0.04210158702810        0.90389185774993        0.28346538616355
C           -0.86394679020994       -0.37576460304587        0.25723379402638
Cl          -2.49547789244750       -0.05456090023456       -0.41978283428806
C            1.33793506634476        0.66874571200522        0.87445331187781
Cl           2.31241720053793       -0.43334453500725       -0.16632585369445
H            0.05019657763380        1.29912891577474       -0.72880107684702
H           -0.54882673707333        1.64943334094734        0.89813614741512
H           -0.40654344630622       -1.12959532900222       -0.38127154790838
H           -1.01787331140503       -0.77434165959361        1.25849592016137
H            1.28240716128638        0.19205631183369        1.85092450425807
H            1.89923817055596        1.59824573369077        0.93581317670928
