      -----------------------------------------------------------      
     |                   =====================                   |     
     |                           x T B                           |     
     |                   =====================                   |     
     |                         S. Grimme                         |     
     |          Mulliken Center for Theoretical Chemistry        |     
     |                    University of Bonn                     |     
      -----------------------------------------------------------      

   * xtb version 6.7.1 (edcfbbe) compiled by 'albert@albert-system' on 2024-07-22

   xtb is free software: you can redistribute it and/or modify it under
   the terms of the GNU Lesser General Public License as published by
   the Free Software Foundation, either version 3 of the License, or
   (at your option) any later version.
   
   xtb is distributed in the hope that it will be useful,
   but WITHOUT ANY WARRANTY; without even the implied warranty of
   MERCHANTABILITY or FITNESS FOR A PARTICULAR PURPOSE.  See the
   GNU Lesser General Public License for more details.
   
   Cite this work as:
   * C. Bannwarth, E. Caldeweyher, S. Ehlert, A. Hansen, P. Pracht,
     J. Seibert, S. Spicher, S. Grimme, WIREs Comput. Mol. Sci., 2020, 11,
     e01493. DOI: 10.1002/wcms.1493
   
   for GFN2-xTB:
   * C. Bannwarth, S. Ehlert and S. Grimme., J. Chem. Theory Comput., 2019,
     15, 1652-1671. DOI: 10.1021/acs.jctc.8b01176
   for GFN1-xTB:
   * S. Grimme, C. Bannwarth, P. Shushkov, J. Chem. Theory Comput., 2017,
     13, 1989-2009. DOI: 10.1021/acs.jctc.7b00118
   for GFN0-xTB:
   * P. Pracht, E. Caldeweyher, S. Ehlert, S. Grimme, ChemRxiv, 2019, preprint.
     DOI: 10.26434/chemrxiv.8326202.v1
   for GFN-FF:
   * S. Spicher and S. Grimme, Angew. Chem. Int. Ed., 2020, 59, 15665-15673.
     DOI: 10.1002/anie.202004239
   
   for ALPB and GBSA implicit solvation:
   * S. Ehlert, M. Stahn, S. Spicher, S. Grimme, J. Chem. Theory Comput.,
     2021, 17, 4250-4261. DOI: 10.1021/acs.jctc.1c00471
   
   for ddCOSMO and CPCM-X implicit solvation:
   * M. Stahn, S. Ehlert, S. Grimme, J. Phys. Chem. A,
     2023, XX, XXXX-XXXX. DOI: 10.1021/acs.jpca.3c04382
   
   for DFT-D4:
   * E. Caldeweyher, C. Bannwarth and S. Grimme, J. Chem. Phys., 2017,
     147, 034112. DOI: 10.1063/1.4993215
   * E. Caldeweyher, S. Ehlert, A. Hansen, H. Neugebauer, S. Spicher,
     C. Bannwarth and S. Grimme, J. Chem. Phys., 2019, 150, 154122.
     DOI: 10.1063/1.5090222
   * E. Caldeweyher, J.-M. Mewes, S. Ehlert and S. Grimme, Phys. Chem. Chem. Phys.
     2020, 22, 8499-8512. DOI: 10.1039/D0CP00502A
   
   for sTDA-xTB:
   * S. Grimme and C. Bannwarth, J. Chem. Phys., 2016, 145, 054103.
     DOI: 10.1063/1.4959605
   
   in the mass-spec context:
   * V. Asgeirsson, C. Bauer and S. Grimme, Chem. Sci., 2017, 8, 4879.
     DOI: 10.1039/c7sc00601b
   * J. Koopman and S. Grimme, ACS Omega 2019, 4, 12, 15120-15133.
     DOI: 10.1021/acsomega.9b02011
   
   for metadynamics refer to:
   * S. Grimme, J. Chem. Theory Comput., 2019, 155, 2847-2862
     DOI: 10.1021/acs.jctc.9b00143
   
   for SPH calculations refer to:
   * S. Spicher and S. Grimme, J. Chem. Theory Comput., 2021, 17, 1701-1714
     DOI: 10.1021/acs.jctc.0c01306
   
   for ONIOM refer to:
   * C. Plett, A. Katbashev, S. Ehlert, S. Grimme, M. Bursch,
     Phys. Chem. Chem. Phys., 2023, 25, 17860-17868. DOI: 10.1039/D3CP02178E
   
   for DIPRO refer to:
   * J. Kohn, N. Gildemeister, S. Grimme, D. Fazzi, A. Hansen,
     J. Chem. Phys., 2023, just accepted.
   
   for PTB refer to:
   * S. Grimme, M. Mueller, A. Hansen, J. Chem. Phys., 2023, 158, 124111.
     DOI: 10.1063/5.0137838
   
   with help from (in alphabetical order)
   P. Atkinson, C. Bannwarth, F. Bohle, G. Brandenburg, E. Caldeweyher
   M. Checinski, S. Dohm, S. Ehlert, S. Ehrlich, I. Gerasimov, C. Hölzer
   A. Katbashev, J. Kohn, J. Koopman, C. Lavigne, S. Lehtola, F. März, M. Müller,
   F. Musil, H. Neugebauer, J. Pisarek, C. Plett, P. Pracht, F. Pultar,
   J. Seibert, P. Shushkov, S. Spicher, M. Stahn, M. Steiner, T. Strunk,
   J. Stückrath, T. Rose, and J. Unsleber
   
 * started run on 2025/04/11 at 12:24:49.027     
   ID    Z sym.   atoms
    1    6 C      1-3, 5-7
    2    7 N      4
    3    1 H      8-22

           -------------------------------------------------
          |                Calculation Setup                |
           -------------------------------------------------

          program call               : /srv/scratch/z5358697/.xtb/bin/xtb gas.coord --gfn2 --sp --chrg 0 --norestart --parallel 1
          hostname                   : k062
          coordinate file            : gas.coord
          omp threads                :                     1


           -------------------------------------------------
          |                 G F N 2 - x T B                 |
           -------------------------------------------------

        Reference                      10.1021/acs.jctc.8b01176
      * Hamiltonian:
        H0-scaling (s, p, d)           1.850000    2.230000    2.230000
        zeta-weighting                 0.500000
      * Dispersion:
        s8                             2.700000
        a1                             0.520000
        a2                             5.000000
        s9                             5.000000
      * Repulsion:
        kExp                           1.500000    1.000000
        rExp                           1.000000
      * Coulomb:
        alpha                          2.000000
        third order                    shell-resolved
        anisotropic                    true
        a3                             3.000000
        a5                             4.000000
        cn-shift                       1.200000
        cn-exp                         4.000000
        max-rad                        5.000000


          ...................................................
          :                      SETUP                      :
          :.................................................:
          :  # basis functions                  43          :
          :  # atomic orbitals                  43          :
          :  # shells                           29          :
          :  # electrons                        44          :
          :  max. iterations                   250          :
          :  Hamiltonian                  GFN2-xTB          :
          :  restarted?                      false          :
          :  GBSA solvation                  false          :
          :  PC potential                    false          :
          :  electronic temp.          300.0000000     K    :
          :  accuracy                    1.0000000          :
          :  -> integral cutoff          0.2500000E+02      :
          :  -> integral neglect         0.1000000E-07      :
          :  -> SCF convergence          0.1000000E-05 Eh   :
          :  -> wf. convergence          0.1000000E-03 e    :
          :  Broyden damping             0.4000000          :
          :  net charge                          0          :
          :  unpaired electrons                  0          :
          ...................................................

 iter      E             dE          RMSdq      gap      omega  full diag
   1    -23.7088297 -0.237088E+02  0.250E+00   10.07       0.0  T
   2    -23.7478600 -0.390303E-01  0.140E+00   10.08       1.0  T
   3    -23.7489859 -0.112594E-02  0.643E-01   10.13       1.0  T
   4    -23.7491323 -0.146367E-03  0.133E-01   10.04       1.0  T
   5    -23.7492184 -0.861036E-04  0.537E-02   10.05       1.0  T
   6    -23.7492203 -0.188964E-05  0.174E-02   10.05       1.2  T
   7    -23.7492205 -0.198180E-06  0.173E-03   10.05      12.3  T
   8    -23.7492205 -0.495799E-08  0.385E-04   10.05      55.3  T
   9    -23.7492205 -0.298815E-09  0.153E-04   10.05     139.8  T

   *** convergence criteria satisfied after 9 iterations ***

         #    Occupation            Energy/Eh            Energy/eV
      -------------------------------------------------------------
         1        2.0000           -0.6286018             -17.1051
       ...           ...                  ...                  ...
        16        2.0000           -0.4565724             -12.4240
        17        2.0000           -0.4460691             -12.1382
        18        2.0000           -0.4411509             -12.0043
        19        2.0000           -0.4352413             -11.8435
        20        2.0000           -0.4222774             -11.4908
        21        2.0000           -0.4174994             -11.3607
        22        2.0000           -0.3409026              -9.2764 (HOMO)
        23                          0.0283434               0.7713 (LUMO)
        24                          0.0826209               2.2482
        25                          0.0944131               2.5691
        26                          0.1150143               3.1297
        27                          0.1194134               3.2494
       ...                                ...                  ...
        43                          0.3263889               8.8815
      -------------------------------------------------------------
                  HL-Gap            0.3692459 Eh           10.0477 eV
             Fermi-level           -0.1562796 Eh           -4.2526 eV

 SCC (total)                   0 d,  0 h,  0 min,  0.014 sec
 SCC setup                      ...        0 min,  0.000 sec (  1.656%)
 Dispersion                     ...        0 min,  0.000 sec (  1.094%)
 classical contributions        ...        0 min,  0.000 sec (  0.250%)
 integral evaluation            ...        0 min,  0.002 sec ( 16.077%)
 iterations                     ...        0 min,  0.007 sec ( 46.315%)
 molecular gradient             ...        0 min,  0.005 sec ( 33.577%)
 printout                       ...        0 min,  0.000 sec (  0.922%)

         :::::::::::::::::::::::::::::::::::::::::::::::::::::
         ::                     SUMMARY                     ::
         :::::::::::::::::::::::::::::::::::::::::::::::::::::
         :: total energy             -23.417267985784 Eh    ::
         :: gradient norm              0.002761830138 Eh/a0 ::
         :: HOMO-LUMO gap             10.047693425148 eV    ::
         ::.................................................::
         :: SCC energy               -23.749135385851 Eh    ::
         :: -> isotropic ES            0.013131641474 Eh    ::
         :: -> anisotropic ES          0.008687489191 Eh    ::
         :: -> anisotropic XC          0.016957794652 Eh    ::
         :: -> dispersion             -0.014197932788 Eh    ::
         :: repulsion energy           0.331867400067 Eh    ::
         :: add. restraining           0.000000000000 Eh    ::
         :: total charge              -0.000000000000 e     ::
         :::::::::::::::::::::::::::::::::::::::::::::::::::::

           -------------------------------------------------
          |                Property Printout                |
           -------------------------------------------------

    * Orbital Energies and Occupations

         #    Occupation            Energy/Eh            Energy/eV
      -------------------------------------------------------------
         1        2.0000           -0.6286018             -17.1051
       ...           ...                  ...                  ...
        10        2.0000           -0.4998976             -13.6029
        11        2.0000           -0.4864473             -13.2369
        12        2.0000           -0.4785132             -13.0210
        13        2.0000           -0.4726979             -12.8628
        14        2.0000           -0.4642768             -12.6336
        15        2.0000           -0.4599415             -12.5156
        16        2.0000           -0.4565724             -12.4240
        17        2.0000           -0.4460691             -12.1382
        18        2.0000           -0.4411509             -12.0043
        19        2.0000           -0.4352413             -11.8435
        20        2.0000           -0.4222774             -11.4908
        21        2.0000           -0.4174994             -11.3607
        22        2.0000           -0.3409026              -9.2764 (HOMO)
        23                          0.0283434               0.7713 (LUMO)
        24                          0.0826209               2.2482
        25                          0.0944131               2.5691
        26                          0.1150143               3.1297
        27                          0.1194134               3.2494
        28                          0.1314323               3.5765
        29                          0.1374754               3.7409
        30                          0.1456656               3.9638
        31                          0.1837379               4.9998
        32                          0.1846826               5.0255
        33                          0.2059061               5.6030
       ...                                ...                  ...
        43                          0.3263889               8.8815
      -------------------------------------------------------------
                  HL-Gap            0.3692459 Eh           10.0477 eV
             Fermi-level           -0.1562796 Eh           -4.2526 eV

     #   Z          covCN         q      C6AA      α(0)
     1   6 C        3.753    -0.110    22.665     6.789
     2   6 C        3.782     0.053    19.711     6.324
     3   6 C        3.759    -0.114    22.734     6.798
     4   7 N        2.684    -0.270    26.980     7.714
     5   6 C        3.781     0.054    19.688     6.321
     6   6 C        3.752    -0.111    22.690     6.793
     7   6 C        3.755    -0.109    22.634     6.784
     8   1 H        0.925     0.030     2.586     2.515
     9   1 H        0.925     0.030     2.581     2.512
    10   1 H        0.925     0.029     2.595     2.519
    11   1 H        0.924     0.033     2.539     2.492
    12   1 H        0.925     0.036     2.508     2.477
    13   1 H        0.925     0.035     2.510     2.478
    14   1 H        0.925     0.046     2.375     2.410
    15   1 H        0.860     0.131     1.539     1.943
    16   1 H        0.923     0.026     2.638     2.540
    17   1 H        0.925     0.029     2.608     2.525
    18   1 H        0.925     0.030     2.582     2.513
    19   1 H        0.925     0.034     2.531     2.488
    20   1 H        0.925     0.036     2.504     2.475
    21   1 H        0.925     0.037     2.493     2.469
    22   1 H        0.925     0.045     2.387     2.416

 Mol. C6AA /au·bohr⁶  :       3197.175326
 Mol. C8AA /au·bohr⁸  :      65519.401909
 Mol. α(0) /au        :         84.294397


Wiberg/Mayer (AO) data.
largest (>0.10) Wiberg bond orders for each atom

 ---------------------------------------------------------------------------
     #   Z sym  total        # sym  WBO       # sym  WBO       # sym  WBO
 ---------------------------------------------------------------------------
     1   6 C    3.997 --     2 C    0.993    10 H    0.987     9 H    0.986
                             8 H    0.983
     2   6 C    3.986 --     4 N    1.009     3 C    1.002     1 C    0.993
                            11 H    0.963
     3   6 C    3.996 --     2 C    1.002    13 H    0.987    14 H    0.987
                            12 H    0.986
     4   7 N    3.083 --     2 C    1.009     5 C    1.005    15 H    0.955
     5   6 C    3.986 --     7 C    1.007     4 N    1.005     6 C    0.992
                            16 H    0.964
     6   6 C    3.997 --     5 C    0.992    18 H    0.987    17 H    0.987
                            19 H    0.982
     7   6 C    3.997 --     5 C    1.007    20 H    0.986    22 H    0.985
                            21 H    0.985
     8   1 H    0.999 --     1 C    0.983
     9   1 H    0.999 --     1 C    0.986
    10   1 H    0.999 --     1 C    0.987
    11   1 H    0.999 --     2 C    0.963
    12   1 H    0.998 --     3 C    0.986
    13   1 H    0.999 --     3 C    0.987
    14   1 H    0.998 --     3 C    0.987
    15   1 H    0.983 --     4 N    0.955
    16   1 H    0.999 --     5 C    0.964
    17   1 H    0.999 --     6 C    0.987
    18   1 H    0.999 --     6 C    0.987
    19   1 H    0.999 --     6 C    0.982
    20   1 H    0.999 --     7 C    0.986
    21   1 H    0.999 --     7 C    0.985
    22   1 H    0.998 --     7 C    0.985
 ---------------------------------------------------------------------------

Topologies differ in total number of bonds
Writing topology from bond orders to xtbtopo.mol

molecular dipole:
                 x           y           z       tot (Debye)
 q only:        0.005       0.032      -0.030
   full:        0.004      -0.045      -0.369       0.944
molecular quadrupole (traceless):
                xx          xy          yy          xz          yz          zz
 q only:        0.669      -0.224       0.406       0.154       0.281      -1.074
  q+dip:        0.622      -0.088       1.669      -0.360       0.653      -2.291
   full:        0.930      -0.155       1.491      -0.141       0.690      -2.421


           -------------------------------------------------
          | TOTAL ENERGY              -23.417267985784 Eh   |
          | GRADIENT NORM               0.002761830138 Eh/α |
          | HOMO-LUMO GAP              10.047693425148 eV   |
           -------------------------------------------------

------------------------------------------------------------------------
 * finished run on 2025/04/11 at 12:24:49.076     
------------------------------------------------------------------------
 total:
 * wall-time:     0 d,  0 h,  0 min,  0.048 sec
 *  cpu-time:     0 d,  0 h,  0 min,  0.027 sec
 * ratio c/w:     0.560 speedup
 SCF:
 * wall-time:     0 d,  0 h,  0 min,  0.015 sec
 *  cpu-time:     0 d,  0 h,  0 min,  0.014 sec
 * ratio c/w:     0.991 speedup

