 Entering Gaussian System
 *********************************************
 Gaussian 98:
 frequency output generated by the xtb code
 *********************************************
                         Standard orientation:
 --------------------------------------------------------------------
  Center     Atomic     Atomic              Coordinates (Angstroms)
  Number     Number      Type              X           Y           Z
 --------------------------------------------------------------------
    1          6             0        3.136365   -0.767693    0.120774
    2          6             0        1.958641    0.130537    0.481394
    3          6             0        1.006706    0.301693   -0.701204
    4          6             0       -0.135403    1.282042   -0.429103
    5          6             0       -1.149294    0.783716    0.585746
    6         17             0       -2.009736   -0.679531   -0.016169
    7          1             0        2.785231   -1.753163   -0.177523
    8          1             0        3.803781   -0.883938    0.971126
    9          1             0        3.702216   -0.342552   -0.705166
   10          1             0        1.426983   -0.307837    1.327387
   11          1             0        2.331129    1.109819    0.789731
   12          1             0        0.589010   -0.669467   -0.974630
   13          1             0        1.576442    0.667853   -1.557658
   14          1             0       -0.651839    1.496800   -1.366216
   15          1             0        0.274258    2.218739   -0.045365
   16          1             0       -0.681278    0.493353    1.523404
   17          1             0       -1.922343    1.527593    0.768500
 --------------------------------------------------------------------
     1 basis functions        1 primitive gaussians
     1 alpha electrons        1 beta electrons
 
 Harmonic frequencies (cm**-1), IR intensities (km*mol⁻¹),
 Raman scattering activities (A**4/amu), Raman depolarization ratios,
 reduced masses (AMU), force constants (mDyne/A) and normal coordinates:
                      1                      2                      3
                        a                      a                      a 
 Frequencies --    41.6267                63.4795               163.1703
 Red. masses --    15.2058                10.7131                10.2154
 Frc consts  --     0.0000                 0.0000                 0.0000
 IR Inten    --     1.2886                 0.6512                 1.2893
 Raman Activ --     0.0000                 0.0000                 0.0000
 Depolar     --     0.0000                 0.0000                 0.0000
 Atom AN      X      Y      Z        X      Y      Z        X      Y      Z
   1   6    -0.21  -0.07  -0.00     0.36   0.37  -0.07    -0.08  -0.07   0.23
   2   6    -0.35  -0.29   0.07    -0.11  -0.31   0.10    -0.04   0.09  -0.09
   3   6    -0.04   0.17  -0.12     0.05  -0.19  -0.01     0.25   0.32  -0.29
   4   6    -0.03   0.18  -0.11     0.06  -0.15  -0.09    -0.02  -0.05  -0.15
   5   6    -0.05   0.20  -0.12     0.05  -0.01  -0.03     0.30  -0.27   0.07
   6  17     0.47  -0.14   0.20    -0.31   0.18   0.06    -0.29  -0.01   0.12
   7   1    -0.02   0.02  -0.17     0.25   0.11  -0.20    -0.04   0.01  -0.02
   8   1    -0.13  -0.13   0.04     0.06   0.06   0.01    -0.13  -0.10   0.14
   9   1     0.01   0.10   0.10     0.12   0.30   0.09     0.10  -0.02   0.15
  10   1    -0.16  -0.20  -0.08    -0.02  -0.27  -0.06    -0.09   0.02  -0.08
  11   1    -0.14  -0.12   0.18    -0.17  -0.08   0.18    -0.00   0.01   0.03
  12   1    -0.01   0.08  -0.15     0.01  -0.04  -0.04     0.15   0.09  -0.21
  13   1     0.06   0.12   0.04     0.05  -0.04   0.03     0.11   0.22  -0.01
  14   1    -0.00   0.05  -0.04     0.02  -0.06  -0.03    -0.07  -0.06  -0.02
  15   1    -0.01   0.05  -0.03     0.03  -0.04  -0.05    -0.07   0.03  -0.07
  16   1    -0.03   0.14  -0.00     0.02  -0.01  -0.01     0.18  -0.16  -0.05
  17   1    -0.06   0.03  -0.10     0.04   0.03  -0.00     0.13  -0.07   0.17
                      4                      5                      6
                        a                      a                      a 
 Frequencies --   212.5925               238.0338               291.8143
 Red. masses --    12.4915                 3.5189                 7.9837
 Frc consts  --     0.0000                 0.0000                 0.0000
 IR Inten    --     1.4234                 0.2630                 0.9052
 Raman Activ --     0.0000                 0.0000                 0.0000
 Depolar     --     0.0000                 0.0000                 0.0000
 Atom AN      X      Y      Z        X      Y      Z        X      Y      Z
   1   6     0.09  -0.14  -0.18    -0.07   0.01   0.02     0.24  -0.03   0.26
   2   6     0.31   0.06   0.12     0.04   0.19  -0.07     0.01  -0.07  -0.38
   3   6     0.27   0.22   0.17    -0.17  -0.20   0.04    -0.09  -0.02  -0.31
   4   6     0.07   0.04  -0.01    -0.05  -0.05   0.01     0.16   0.15   0.27
   5   6    -0.26   0.12  -0.28     0.04  -0.02   0.10    -0.16   0.07  -0.05
   6  17    -0.32  -0.22   0.16     0.14   0.07  -0.08    -0.10  -0.12   0.07
   7   1    -0.06   0.05  -0.23    -0.09   0.16  -0.43     0.15  -0.04   0.08
   8   1    -0.03  -0.25  -0.04    -0.28  -0.40   0.16    -0.06   0.07   0.19
   9   1     0.11   0.04   0.04     0.29   0.20   0.32     0.19  -0.04   0.14
  10   1     0.09   0.02   0.03     0.04   0.13   0.04    -0.04   0.03  -0.11
  11   1     0.15  -0.01   0.05     0.04   0.07  -0.12    -0.02  -0.00  -0.14
  12   1     0.12   0.06   0.00    -0.09  -0.08   0.15    -0.08   0.02  -0.09
  13   1     0.09   0.11   0.07    -0.10  -0.17  -0.07    -0.07   0.01  -0.11
  14   1     0.10   0.00  -0.05    -0.04  -0.03   0.01     0.09   0.28   0.11
  15   1    -0.04   0.02   0.04     0.01  -0.01  -0.03     0.14  -0.07   0.26
  16   1    -0.16   0.13  -0.01     0.03  -0.03   0.01    -0.13   0.06   0.04
  17   1    -0.10   0.05  -0.22     0.02  -0.01   0.06    -0.07   0.03  -0.11
                      7                      8                      9
                        a                      a                      a 
 Frequencies --   378.8230               472.7383               647.6438
 Red. masses --    10.2460                 8.8837                15.7193
 Frc consts  --     0.0000                 0.0000                 0.0000
 IR Inten    --     0.7976                 0.6046                 2.3346
 Raman Activ --     0.0000                 0.0000                 0.0000
 Depolar     --     0.0000                 0.0000                 0.0000
 Atom AN      X      Y      Z        X      Y      Z        X      Y      Z
   1   6    -0.28   0.16  -0.09    -0.27   0.16  -0.07     0.04  -0.02   0.00
   2   6    -0.17   0.12   0.14    -0.12   0.17   0.01     0.02  -0.01   0.04
   3   6    -0.00  -0.11   0.03     0.26  -0.15  -0.21    -0.07   0.01   0.05
   4   6     0.40   0.24   0.00     0.19  -0.47   0.21    -0.16  -0.06  -0.04
   5   6     0.31  -0.09  -0.25    -0.15  -0.03   0.10    -0.25  -0.54  -0.43
   6  17    -0.18  -0.21   0.08     0.09   0.15   0.01     0.22   0.39   0.21
   7   1    -0.11   0.07  -0.05    -0.13   0.07  -0.04     0.02  -0.01  -0.00
   8   1    -0.02  -0.00  -0.08    -0.03  -0.01  -0.06     0.01  -0.01   0.00
   9   1    -0.13   0.07  -0.05    -0.11   0.05  -0.04     0.01  -0.00   0.00
  10   1    -0.04   0.04   0.05    -0.08   0.07  -0.01     0.04   0.01   0.04
  11   1    -0.06   0.04   0.02    -0.06   0.06  -0.02     0.02  -0.00  -0.01
  12   1    -0.09  -0.02   0.11     0.21  -0.07  -0.18     0.01  -0.00  -0.02
  13   1     0.04  -0.18  -0.03     0.08   0.12   0.01    -0.01   0.03   0.03
  14   1     0.18   0.28   0.02     0.04  -0.04   0.09     0.08   0.18  -0.03
  15   1     0.19  -0.04   0.19     0.11  -0.17   0.10    -0.08  -0.10   0.24
  16   1     0.12  -0.08  -0.10    -0.21   0.09   0.15     0.04  -0.14  -0.16
  17   1     0.10  -0.03   0.00    -0.02   0.07  -0.19    -0.03  -0.13   0.01
                     10                     11                     12
                        a                      a                      a 
 Frequencies --   770.5918               817.0626               887.0223
 Red. masses --     2.7727                 4.4531                 5.5294
 Frc consts  --     0.0000                 0.0000                 0.0000
 IR Inten    --    18.1293                 4.7093                 0.8029
 Raman Activ --     0.0000                 0.0000                 0.0000
 Depolar     --     0.0000                 0.0000                 0.0000
 Atom AN      X      Y      Z        X      Y      Z        X      Y      Z
   1   6     0.02  -0.03   0.01     0.09   0.02   0.01     0.02  -0.12   0.12
   2   6    -0.07  -0.13   0.11     0.15   0.16   0.10     0.01  -0.05   0.21
   3   6    -0.11  -0.16   0.04     0.05  -0.15  -0.14     0.26   0.00  -0.36
   4   6    -0.10  -0.01  -0.08    -0.20  -0.05  -0.14    -0.05   0.17  -0.11
   5   6    -0.01   0.22   0.01    -0.20   0.27   0.09    -0.24  -0.06   0.18
   6  17    -0.01  -0.07  -0.02     0.02  -0.07  -0.02     0.02   0.02   0.01
   7   1     0.15  -0.03  -0.09    -0.24   0.07   0.07     0.17  -0.03  -0.15
   8   1     0.05   0.03  -0.03     0.04  -0.15  -0.03     0.23  -0.05  -0.15
   9   1    -0.07   0.16   0.03     0.07  -0.18  -0.06    -0.26   0.28   0.01
  10   1     0.13   0.29   0.29     0.01  -0.23  -0.13    -0.20   0.21   0.04
  11   1     0.12   0.04  -0.38    -0.14   0.03   0.28     0.17  -0.05  -0.02
  12   1     0.12   0.01  -0.37     0.17  -0.12   0.00    -0.05  -0.03   0.17
  13   1     0.13   0.28   0.25    -0.03   0.01  -0.05     0.04  -0.27  -0.23
  14   1     0.04   0.15  -0.02     0.03   0.29  -0.01    -0.08   0.09   0.02
  15   1     0.12  -0.10   0.07     0.16  -0.18   0.15    -0.03   0.04   0.00
  16   1     0.15  -0.04  -0.11     0.20  -0.09  -0.15    -0.05  -0.05   0.03
  17   1     0.02   0.03   0.19    -0.01   0.04   0.34    -0.08  -0.04   0.11
                     13                     14                     15
                        a                      a                      a 
 Frequencies --   920.7424               952.9339              1003.8231
 Red. masses --     6.0421                 4.9118                 5.5613
 Frc consts  --     0.0000                 0.0000                 0.0000
 IR Inten    --     2.3434                 7.8461                 4.5440
 Raman Activ --     0.0000                 0.0000                 0.0000
 Depolar     --     0.0000                 0.0000                 0.0000
 Atom AN      X      Y      Z        X      Y      Z        X      Y      Z
   1   6    -0.25   0.07  -0.08     0.11   0.11   0.05     0.14  -0.09   0.19
   2   6    -0.04  -0.08  -0.27    -0.01  -0.04   0.02    -0.01   0.06  -0.02
   3   6     0.28   0.01   0.19     0.06  -0.22  -0.11    -0.19   0.11  -0.03
   4   6     0.17  -0.03   0.09     0.23   0.33   0.07     0.08  -0.22   0.31
   5   6    -0.34   0.14  -0.04    -0.26  -0.13   0.04     0.05   0.19  -0.32
   6  17     0.04  -0.02   0.03     0.02   0.03   0.04     0.03  -0.03   0.02
   7   1     0.16  -0.07   0.02    -0.29   0.13   0.05    -0.06   0.06  -0.09
   8   1    -0.22   0.24   0.13     0.08  -0.19  -0.06     0.27  -0.20  -0.16
   9   1     0.03   0.06   0.07     0.04  -0.15  -0.07    -0.20   0.12  -0.04
  10   1    -0.05  -0.00  -0.09     0.12  -0.03   0.08    -0.18   0.07  -0.09
  11   1     0.09  -0.07  -0.03    -0.26   0.13  -0.14    -0.06   0.03   0.03
  12   1     0.05  -0.02   0.14    -0.14   0.07  -0.24    -0.09   0.04  -0.01
  13   1     0.02  -0.06  -0.01     0.17  -0.01   0.09    -0.27   0.15  -0.10
  14   1     0.19  -0.17  -0.09     0.01  -0.21  -0.03     0.06  -0.23   0.02
  15   1    -0.03   0.06  -0.07    -0.05   0.23  -0.24    -0.07   0.04  -0.05
  16   1     0.11  -0.25  -0.19    -0.10  -0.16  -0.01     0.05  -0.20  -0.18
  17   1     0.01   0.04   0.37    -0.10  -0.09   0.12     0.17   0.16   0.11
                     16                     17                     18
                        a                      a                      a 
 Frequencies --  1080.1633              1094.5511              1100.7001
 Red. masses --     6.9645                 4.2988                 4.8618
 Frc consts  --     0.0000                 0.0000                 0.0000
 IR Inten    --     0.1900                 1.3920                 0.7238
 Raman Activ --     0.0000                 0.0000                 0.0000
 Depolar     --     0.0000                 0.0000                 0.0000
 Atom AN      X      Y      Z        X      Y      Z        X      Y      Z
   1   6     0.23  -0.27  -0.22     0.20  -0.04  -0.13     0.20  -0.17   0.03
   2   6    -0.29   0.33   0.18    -0.31  -0.00   0.08    -0.29   0.18  -0.21
   3   6    -0.20   0.09   0.01     0.17   0.19  -0.03     0.07  -0.01   0.26
   4   6     0.23   0.01  -0.12    -0.07  -0.22  -0.03     0.08  -0.00  -0.08
   5   6    -0.13  -0.07   0.04    -0.02   0.11   0.05    -0.02  -0.08   0.16
   6  17     0.02  -0.00   0.03     0.02  -0.03  -0.02    -0.04   0.03  -0.03
   7   1     0.22  -0.14  -0.01    -0.04  -0.00   0.04     0.03  -0.02  -0.07
   8   1    -0.03   0.06   0.04    -0.02  -0.05   0.02     0.16  -0.11  -0.09
   9   1     0.17  -0.08   0.01     0.16  -0.16  -0.04    -0.05   0.02  -0.04
  10   1    -0.10   0.06   0.02     0.05   0.08   0.14    -0.24   0.08  -0.14
  11   1    -0.02   0.04   0.13    -0.17   0.10  -0.18    -0.19   0.09  -0.06
  12   1     0.10  -0.05   0.02    -0.26   0.15   0.09     0.08  -0.02   0.05
  13   1     0.00   0.05   0.05     0.25  -0.26  -0.00    -0.02   0.06   0.07
  14   1    -0.07   0.01   0.04     0.06   0.04  -0.02     0.31  -0.03  -0.18
  15   1     0.31  -0.03  -0.21    -0.33  -0.04   0.29    -0.01  -0.02   0.05
  16   1    -0.24  -0.28   0.03     0.02  -0.03  -0.01     0.26   0.35   0.03
  17   1     0.08   0.09   0.04     0.22   0.26   0.02    -0.25  -0.27   0.03
                     19                     20                     21
                        a                      a                      a 
 Frequencies --  1126.7684              1162.4890              1212.7919
 Red. masses --     8.4649                 5.6036                 4.7865
 Frc consts  --     0.0000                 0.0000                 0.0000
 IR Inten    --     2.4358                 1.7352                 1.0766
 Raman Activ --     0.0000                 0.0000                 0.0000
 Depolar     --     0.0000                 0.0000                 0.0000
 Atom AN      X      Y      Z        X      Y      Z        X      Y      Z
   1   6     0.06  -0.13  -0.15    -0.02  -0.03  -0.16     0.14   0.19  -0.02
   2   6    -0.16   0.17   0.07     0.04   0.08   0.37    -0.23  -0.29  -0.01
   3   6     0.26  -0.33  -0.07    -0.15   0.07  -0.35     0.11   0.27   0.03
   4   6    -0.28   0.20   0.37     0.17  -0.16   0.17    -0.05  -0.14   0.07
   5   6     0.20   0.12  -0.28    -0.07   0.03  -0.03     0.07   0.12  -0.13
   6  17    -0.01   0.01   0.01    -0.02   0.02  -0.02    -0.01   0.03   0.02
   7   1     0.14  -0.09  -0.00     0.10  -0.07   0.05    -0.22   0.11   0.08
   8   1    -0.06   0.07   0.04    -0.13   0.11   0.08    -0.01  -0.12   0.01
   9   1     0.10  -0.04   0.01     0.14  -0.06   0.04     0.09  -0.17  -0.07
  10   1    -0.10   0.03  -0.02     0.14  -0.02   0.15    -0.03   0.15   0.12
  11   1    -0.09   0.06   0.02     0.11  -0.02   0.10     0.10  -0.07  -0.19
  12   1     0.23  -0.16   0.01    -0.22   0.10  -0.09     0.09  -0.03   0.24
  13   1     0.06  -0.02   0.01    -0.11  -0.00  -0.14    -0.05  -0.07  -0.09
  14   1    -0.23  -0.06   0.15     0.14  -0.17  -0.04    -0.19   0.03   0.13
  15   1    -0.20   0.14   0.01    -0.03   0.02  -0.03     0.32  -0.11  -0.15
  16   1     0.05   0.01  -0.08     0.32   0.27  -0.09    -0.02  -0.09  -0.06
  17   1    -0.07  -0.11  -0.03    -0.22  -0.23   0.09    -0.27  -0.30   0.05
                     22                     23                     24
                        a                      a                      a 
 Frequencies --  1246.1967              1257.2247              1285.0982
 Red. masses --     3.5089                 2.9083                 1.8699
 Frc consts  --     0.0000                 0.0000                 0.0000
 IR Inten    --    20.0685                 5.8818                 0.7196
 Raman Activ --     0.0000                 0.0000                 0.0000
 Depolar     --     0.0000                 0.0000                 0.0000
 Atom AN      X      Y      Z        X      Y      Z        X      Y      Z
   1   6     0.09   0.13  -0.05    -0.08  -0.15   0.12    -0.07  -0.10   0.01
   2   6    -0.11  -0.13   0.06     0.02   0.11  -0.17    -0.03  -0.11   0.09
   3   6     0.00  -0.04  -0.03     0.03   0.16   0.04     0.10   0.13  -0.08
   4   6    -0.01   0.18   0.10     0.01  -0.08   0.13     0.01   0.07  -0.04
   5   6    -0.20  -0.26   0.01    -0.15  -0.07  -0.10     0.01  -0.02   0.06
   6  17    -0.01  -0.04  -0.03    -0.01  -0.01  -0.01    -0.00  -0.00   0.00
   7   1    -0.12   0.06   0.07     0.11  -0.04  -0.09     0.08  -0.05  -0.02
   8   1    -0.04  -0.06   0.02     0.09   0.02  -0.05    -0.02   0.03   0.01
   9   1     0.09  -0.12  -0.04    -0.14   0.14   0.04    -0.05   0.07   0.03
  10   1    -0.13   0.13   0.03     0.30  -0.20   0.03     0.37  -0.13   0.21
  11   1     0.18  -0.09  -0.04    -0.22   0.11  -0.02    -0.42   0.21  -0.22
  12   1     0.22  -0.13   0.08    -0.07   0.06   0.06     0.29  -0.15   0.22
  13   1    -0.12   0.07  -0.06     0.28  -0.18   0.10    -0.39   0.15  -0.25
  14   1    -0.00  -0.04   0.00    -0.33   0.02   0.22     0.14   0.02  -0.09
  15   1     0.10   0.06  -0.13     0.30  -0.07  -0.19    -0.04   0.04   0.00
  16   1     0.27   0.38  -0.01     0.27   0.23  -0.10    -0.06  -0.05   0.03
  17   1     0.38   0.39  -0.01     0.07   0.08   0.01     0.03   0.04  -0.05
                     25                     26                     27
                        a                      a                      a 
 Frequencies --  1306.6303              1342.6098              1370.8077
 Red. masses --     3.6149                 4.6893                 5.1835
 Frc consts  --     0.0000                 0.0000                 0.0000
 IR Inten    --     2.9767                 2.1730                 0.6947
 Raman Activ --     0.0000                 0.0000                 0.0000
 Depolar     --     0.0000                 0.0000                 0.0000
 Atom AN      X      Y      Z        X      Y      Z        X      Y      Z
   1   6    -0.02  -0.04  -0.15    -0.02  -0.01  -0.01    -0.03  -0.01  -0.07
   2   6     0.27  -0.10   0.17     0.03   0.02   0.02     0.33  -0.18   0.09
   3   6     0.23  -0.06   0.17     0.07   0.04  -0.10    -0.38   0.20  -0.13
   4   6    -0.07  -0.03  -0.07    -0.48   0.07   0.25     0.08  -0.04   0.06
   5   6    -0.02  -0.04  -0.03     0.12  -0.04   0.00     0.01   0.02  -0.02
   6  17    -0.00  -0.00  -0.00     0.00   0.00   0.01    -0.00  -0.00  -0.00
   7   1    -0.00  -0.03   0.05     0.02  -0.01  -0.00    -0.04  -0.01   0.05
   8   1    -0.14   0.12   0.08    -0.00   0.02  -0.00    -0.08   0.07   0.04
   9   1     0.04   0.04   0.03     0.01   0.01   0.01     0.01   0.06   0.02
  10   1    -0.37   0.18  -0.13     0.01  -0.00   0.00    -0.29   0.18  -0.09
  11   1    -0.35   0.19  -0.13    -0.03   0.02   0.01    -0.29   0.13  -0.08
  12   1    -0.34   0.20  -0.12    -0.11   0.06  -0.03     0.35  -0.18   0.11
  13   1    -0.24   0.12  -0.10     0.15  -0.14  -0.00     0.34  -0.21   0.14
  14   1    -0.16   0.11   0.09     0.51  -0.09  -0.30     0.07  -0.05  -0.02
  15   1     0.18  -0.06  -0.09     0.39  -0.10  -0.22    -0.08   0.04   0.02
  16   1     0.02   0.07   0.01    -0.08  -0.10   0.02    -0.00   0.03   0.01
  17   1     0.04   0.03   0.03     0.07   0.06  -0.12    -0.02  -0.04   0.06
                     28                     29                     30
                        a                      a                      a 
 Frequencies --  1412.7012              1425.2450              1459.3292
 Red. masses --     3.1719                 2.0042                 1.9354
 Frc consts  --     0.0000                 0.0000                 0.0000
 IR Inten    --     0.1320                 3.9846                 3.0455
 Raman Activ --     0.0000                 0.0000                 0.0000
 Depolar     --     0.0000                 0.0000                 0.0000
 Atom AN      X      Y      Z        X      Y      Z        X      Y      Z
   1   6     0.34  -0.25  -0.08     0.03  -0.03   0.01    -0.01   0.00  -0.01
   2   6    -0.07   0.03  -0.04    -0.03   0.02  -0.02     0.01  -0.00   0.02
   3   6     0.01  -0.02  -0.01     0.02   0.01  -0.02    -0.00   0.02   0.01
   4   6     0.00   0.01   0.01    -0.04   0.01  -0.01    -0.02   0.26  -0.12
   5   6    -0.01   0.01   0.03     0.12  -0.05  -0.26    -0.02   0.02   0.02
   6  17     0.00   0.00   0.00    -0.01  -0.02  -0.01    -0.00  -0.00  -0.00
   7   1    -0.49   0.15   0.04    -0.04   0.01  -0.01     0.01  -0.01   0.02
   8   1    -0.28   0.30   0.29    -0.02   0.03   0.02     0.00  -0.01  -0.00
   9   1    -0.33   0.38  -0.04    -0.04   0.04  -0.00     0.01   0.00   0.01
  10   1     0.08   0.02   0.06     0.08  -0.04   0.03    -0.01  -0.01  -0.01
  11   1     0.05  -0.04   0.09     0.01  -0.01   0.02    -0.02   0.02  -0.02
  12   1     0.01  -0.01  -0.01    -0.03   0.01   0.02     0.04   0.00  -0.05
  13   1     0.00  -0.00  -0.01     0.01   0.01   0.00    -0.03  -0.05  -0.04
  14   1     0.00  -0.01  -0.00     0.02  -0.08  -0.03    -0.19  -0.65  -0.06
  15   1    -0.01   0.00   0.01     0.04  -0.06   0.06     0.25  -0.31   0.53
  16   1     0.04  -0.04  -0.03    -0.43   0.39   0.32     0.05  -0.05  -0.04
  17   1    -0.01   0.01  -0.07     0.11  -0.05   0.65    -0.01   0.02  -0.07
                     31                     32                     33
                        a                      a                      a 
 Frequencies --  1486.6784              1491.2148              1500.6436
 Red. masses --     1.9840                 1.8516                 1.5293
 Frc consts  --     0.0000                 0.0000                 0.0000
 IR Inten    --     2.4145                 1.6052                 1.2253
 Raman Activ --     0.0000                 0.0000                 0.0000
 Depolar     --     0.0000                 0.0000                 0.0000
 Atom AN      X      Y      Z        X      Y      Z        X      Y      Z
   1   6     0.02  -0.01  -0.02     0.02  -0.03  -0.01    -0.12  -0.17   0.04
   2   6    -0.05   0.07   0.11    -0.01   0.09   0.23    -0.03  -0.04  -0.00
   3   6    -0.03   0.12   0.23    -0.02  -0.03  -0.11     0.00   0.01   0.02
   4   6     0.01  -0.02   0.02     0.00   0.00  -0.00     0.01   0.00  -0.00
   5   6     0.01   0.00  -0.02    -0.00   0.00   0.00    -0.00   0.00   0.00
   6  17    -0.00  -0.00   0.00     0.00   0.00   0.00    -0.00  -0.00   0.00
   7   1    -0.02  -0.02   0.08    -0.07   0.02   0.03    -0.32   0.17  -0.22
   8   1    -0.00  -0.04  -0.00     0.01   0.05   0.00     0.39   0.54  -0.24
   9   1    -0.00   0.07   0.03     0.01   0.06   0.04     0.42  -0.02   0.29
  10   1    -0.03  -0.25  -0.15    -0.13  -0.49  -0.33    -0.01   0.04   0.03
  11   1     0.14   0.03  -0.26     0.23   0.09  -0.55     0.01  -0.02   0.02
  12   1     0.26   0.05  -0.54    -0.11  -0.04   0.29     0.03  -0.01  -0.03
  13   1    -0.14  -0.49  -0.30     0.10   0.23   0.16    -0.03  -0.02  -0.03
  14   1     0.01   0.06   0.02     0.01  -0.02  -0.01    -0.01  -0.00   0.00
  15   1    -0.03   0.03  -0.05     0.01  -0.01   0.01    -0.00   0.00   0.00
  16   1    -0.02   0.01   0.01    -0.00  -0.02  -0.00     0.00  -0.00  -0.00
  17   1     0.00  -0.01   0.03    -0.00   0.00  -0.01    -0.00   0.00  -0.00
                     34                     35                     36
                        a                      a                      a 
 Frequencies --  1503.6381              2963.7536              2971.1891
 Red. masses --     1.5938                 1.9038                 1.8823
 Frc consts  --     0.0000                 0.0000                 0.0000
 IR Inten    --     0.3577                14.0641                19.0574
 Raman Activ --     0.0000                 0.0000                 0.0000
 Depolar     --     0.0000                 0.0000                 0.0000
 Atom AN      X      Y      Z        X      Y      Z        X      Y      Z
   1   6    -0.06  -0.01  -0.20    -0.01  -0.01   0.00     0.01   0.01   0.00
   2   6    -0.03  -0.00  -0.08     0.12   0.21  -0.03    -0.05  -0.11  -0.01
   3   6     0.02  -0.02  -0.00    -0.09  -0.11   0.06    -0.08  -0.11   0.05
   4   6    -0.00  -0.00  -0.00     0.00   0.02   0.01     0.09   0.14   0.11
   5   6    -0.00  -0.00   0.00     0.00   0.00   0.00     0.01   0.00  -0.01
   6  17     0.00   0.00  -0.00     0.00   0.00   0.00    -0.00  -0.00  -0.00
   7   1    -0.11  -0.16   0.64     0.02   0.05   0.02    -0.01  -0.03  -0.01
   8   1     0.15  -0.26  -0.17     0.00  -0.00   0.01    -0.00   0.00  -0.01
   9   1     0.19   0.45   0.36     0.02   0.02  -0.04    -0.01  -0.01   0.02
  10   1     0.05   0.04   0.04    -0.19  -0.14   0.32     0.04   0.02  -0.07
  11   1    -0.00  -0.03   0.07    -0.23  -0.62  -0.20     0.14   0.36   0.11
  12   1    -0.03   0.00   0.05     0.13   0.31   0.10     0.13   0.31   0.09
  13   1     0.01   0.05   0.03     0.20   0.12  -0.30     0.17   0.10  -0.26
  14   1    -0.00   0.01   0.00     0.01  -0.00   0.02    -0.08   0.06  -0.16
  15   1     0.00   0.00  -0.01    -0.04  -0.09  -0.04    -0.27  -0.60  -0.24
  16   1    -0.00   0.00   0.00    -0.00   0.00  -0.01     0.03  -0.02   0.05
  17   1     0.00   0.00  -0.00     0.00  -0.00  -0.00    -0.04   0.03   0.01
                     37                     38                     39
                        a                      a                      a 
 Frequencies --  2974.9571              2984.7591              2986.2446
 Red. masses --     1.9294                 1.5819                 1.5403
 Frc consts  --     0.0000                 0.0000                 0.0000
 IR Inten    --   114.7795                50.4659                51.9529
 Raman Activ --     0.0000                 0.0000                 0.0000
 Depolar     --     0.0000                 0.0000                 0.0000
 Atom AN      X      Y      Z        X      Y      Z        X      Y      Z
   1   6    -0.01  -0.01   0.00    -0.00   0.01  -0.01    -0.01   0.00  -0.02
   2   6     0.04   0.09   0.00    -0.07  -0.02   0.16    -0.03   0.02   0.12
   3   6     0.11   0.11  -0.11    -0.04  -0.11  -0.04     0.01   0.07   0.06
   4   6     0.10   0.09   0.13     0.01  -0.06   0.04    -0.03   0.10  -0.08
   5   6     0.00   0.00  -0.02    -0.04   0.03  -0.02     0.05  -0.04   0.00
   6  17    -0.00  -0.00  -0.00    -0.00   0.00   0.00     0.00  -0.00  -0.00
   7   1     0.01   0.02   0.01    -0.01  -0.02  -0.01     0.01   0.02   0.00
   8   1     0.00  -0.00   0.01     0.03  -0.00   0.04     0.03  -0.00   0.04
   9   1     0.01   0.01  -0.02    -0.03  -0.02   0.04    -0.02  -0.02   0.03
  10   1    -0.04  -0.02   0.06     0.35   0.30  -0.53     0.25   0.21  -0.37
  11   1    -0.12  -0.30  -0.09    -0.11  -0.25  -0.05    -0.12  -0.28  -0.07
  12   1    -0.07  -0.17  -0.06     0.19   0.43   0.11    -0.15  -0.33  -0.08
  13   1    -0.32  -0.21   0.48    -0.05  -0.05   0.07     0.10   0.07  -0.13
  14   1    -0.18   0.09  -0.33    -0.12   0.04  -0.22     0.25  -0.08   0.45
  15   1    -0.18  -0.41  -0.16     0.09   0.18   0.08    -0.14  -0.29  -0.14
  16   1     0.03  -0.02   0.07     0.05  -0.03   0.10    -0.02   0.01  -0.05
  17   1    -0.02   0.02   0.00     0.08  -0.07  -0.02    -0.15   0.14   0.03
                     40                     41                     42
                        a                      a                      a 
 Frequencies --  2990.3736              2996.8168              3007.9954
 Red. masses --     1.5899                 1.6768                 1.7970
 Frc consts  --     0.0000                 0.0000                 0.0000
 IR Inten    --    68.9971                13.6907                20.2906
 Raman Activ --     0.0000                 0.0000                 0.0000
 Depolar     --     0.0000                 0.0000                 0.0000
 Atom AN      X      Y      Z        X      Y      Z        X      Y      Z
   1   6    -0.00  -0.00  -0.02     0.00   0.00  -0.00     0.00  -0.00   0.01
   2   6    -0.01   0.01   0.03     0.00  -0.00  -0.00     0.01   0.00  -0.02
   3   6    -0.01   0.08   0.14    -0.01  -0.01   0.01     0.00   0.00  -0.01
   4   6     0.06  -0.04   0.12     0.01  -0.05   0.03    -0.03   0.01  -0.06
   5   6    -0.06   0.05  -0.03     0.17  -0.16  -0.06    -0.12   0.08  -0.21
   6  17    -0.00  -0.00  -0.00    -0.00  -0.00  -0.00    -0.00  -0.00  -0.00
   7   1     0.01   0.03   0.01    -0.00  -0.00  -0.00     0.00   0.00   0.00
   8   1     0.02  -0.00   0.02    -0.00   0.00  -0.00    -0.01   0.00  -0.01
   9   1    -0.02  -0.02   0.03    -0.00  -0.00   0.00     0.01   0.01  -0.01
  10   1     0.05   0.05  -0.08    -0.01  -0.01   0.01    -0.04  -0.04   0.06
  11   1    -0.03  -0.08  -0.02     0.00   0.01   0.00     0.01   0.03   0.01
  12   1    -0.22  -0.48  -0.11     0.01   0.02   0.01     0.01   0.01   0.00
  13   1     0.27   0.19  -0.38     0.03   0.02  -0.05    -0.03  -0.02   0.04
  14   1    -0.26   0.10  -0.47    -0.11   0.04  -0.20     0.11  -0.04   0.21
  15   1     0.04   0.08   0.05     0.07   0.15   0.07    -0.01  -0.00  -0.01
  16   1     0.07  -0.05   0.15     0.07  -0.05   0.09     0.41  -0.26   0.79
  17   1     0.14  -0.13  -0.03    -0.66   0.62   0.14     0.02  -0.03  -0.04
                     43                     44                     45
                        a                      a                      a 
 Frequencies --  3024.7268              3028.3925              3038.2661
 Red. masses --     1.9518                 1.9081                 1.2822
 Frc consts  --     0.0000                 0.0000                 0.0000
 IR Inten    --    94.0593                88.3934                44.5482
 Raman Activ --     0.0000                 0.0000                 0.0000
 Depolar     --     0.0000                 0.0000                 0.0000
 Atom AN      X      Y      Z        X      Y      Z        X      Y      Z
   1   6    -0.16  -0.24   0.05    -0.06  -0.02  -0.28     0.14  -0.07   0.03
   2   6    -0.02  -0.03   0.01     0.01  -0.00  -0.03     0.00  -0.00   0.00
   3   6    -0.00  -0.00  -0.00     0.00  -0.00  -0.01    -0.00  -0.00  -0.00
   4   6     0.00  -0.00   0.00    -0.00   0.00  -0.00    -0.00   0.00  -0.00
   5   6     0.00  -0.00   0.00    -0.00   0.00  -0.00     0.00  -0.00   0.00
   6  17     0.00   0.00   0.00    -0.00   0.00   0.00     0.00  -0.00  -0.00
   7   1     0.24   0.66   0.22     0.14   0.39   0.07     0.17   0.40   0.13
   8   1     0.02  -0.04   0.07     0.39  -0.06   0.48    -0.44   0.06  -0.59
   9   1     0.29   0.22  -0.47    -0.32  -0.25   0.43    -0.23  -0.20   0.37
  10   1     0.03   0.03  -0.06    -0.04  -0.04   0.06     0.01   0.01  -0.01
  11   1     0.03   0.06   0.02     0.02   0.04   0.01    -0.00  -0.01  -0.00
  12   1     0.01   0.02   0.01     0.02   0.03   0.01     0.00   0.01   0.00
  13   1    -0.00  -0.00  -0.00    -0.02  -0.02   0.03    -0.01  -0.00   0.01
  14   1    -0.00  -0.00  -0.00     0.00  -0.00   0.01     0.00  -0.00   0.01
  15   1    -0.00   0.00   0.00    -0.00   0.00  -0.00    -0.00  -0.01  -0.00
  16   1    -0.00   0.00  -0.00     0.00  -0.00   0.00    -0.00   0.00  -0.00
  17   1    -0.00   0.00   0.00    -0.00   0.00   0.00    -0.00   0.00   0.00
