      -----------------------------------------------------------      
     |                   =====================                   |     
     |                           x T B                           |     
     |                   =====================                   |     
     |                         S. Grimme                         |     
     |          Mulliken Center for Theoretical Chemistry        |     
     |                    University of Bonn                     |     
      -----------------------------------------------------------      

   * xtb version 6.7.1 (edcfbbe) compiled by 'albert@albert-system' on 2024-07-22

   xtb is free software: you can redistribute it and/or modify it under
   the terms of the GNU Lesser General Public License as published by
   the Free Software Foundation, either version 3 of the License, or
   (at your option) any later version.
   
   xtb is distributed in the hope that it will be useful,
   but WITHOUT ANY WARRANTY; without even the implied warranty of
   MERCHANTABILITY or FITNESS FOR A PARTICULAR PURPOSE.  See the
   GNU Lesser General Public License for more details.
   
   Cite this work as:
   * C. Bannwarth, E. Caldeweyher, S. Ehlert, A. Hansen, P. Pracht,
     J. Seibert, S. Spicher, S. Grimme, WIREs Comput. Mol. Sci., 2020, 11,
     e01493. DOI: 10.1002/wcms.1493
   
   for GFN2-xTB:
   * C. Bannwarth, S. Ehlert and S. Grimme., J. Chem. Theory Comput., 2019,
     15, 1652-1671. DOI: 10.1021/acs.jctc.8b01176
   for GFN1-xTB:
   * S. Grimme, C. Bannwarth, P. Shushkov, J. Chem. Theory Comput., 2017,
     13, 1989-2009. DOI: 10.1021/acs.jctc.7b00118
   for GFN0-xTB:
   * P. Pracht, E. Caldeweyher, S. Ehlert, S. Grimme, ChemRxiv, 2019, preprint.
     DOI: 10.26434/chemrxiv.8326202.v1
   for GFN-FF:
   * S. Spicher and S. Grimme, Angew. Chem. Int. Ed., 2020, 59, 15665-15673.
     DOI: 10.1002/anie.202004239
   
   for ALPB and GBSA implicit solvation:
   * S. Ehlert, M. Stahn, S. Spicher, S. Grimme, J. Chem. Theory Comput.,
     2021, 17, 4250-4261. DOI: 10.1021/acs.jctc.1c00471
   
   for ddCOSMO and CPCM-X implicit solvation:
   * M. Stahn, S. Ehlert, S. Grimme, J. Phys. Chem. A,
     2023, XX, XXXX-XXXX. DOI: 10.1021/acs.jpca.3c04382
   
   for DFT-D4:
   * E. Caldeweyher, C. Bannwarth and S. Grimme, J. Chem. Phys., 2017,
     147, 034112. DOI: 10.1063/1.4993215
   * E. Caldeweyher, S. Ehlert, A. Hansen, H. Neugebauer, S. Spicher,
     C. Bannwarth and S. Grimme, J. Chem. Phys., 2019, 150, 154122.
     DOI: 10.1063/1.5090222
   * E. Caldeweyher, J.-M. Mewes, S. Ehlert and S. Grimme, Phys. Chem. Chem. Phys.
     2020, 22, 8499-8512. DOI: 10.1039/D0CP00502A
   
   for sTDA-xTB:
   * S. Grimme and C. Bannwarth, J. Chem. Phys., 2016, 145, 054103.
     DOI: 10.1063/1.4959605
   
   in the mass-spec context:
   * V. Asgeirsson, C. Bauer and S. Grimme, Chem. Sci., 2017, 8, 4879.
     DOI: 10.1039/c7sc00601b
   * J. Koopman and S. Grimme, ACS Omega 2019, 4, 12, 15120-15133.
     DOI: 10.1021/acsomega.9b02011
   
   for metadynamics refer to:
   * S. Grimme, J. Chem. Theory Comput., 2019, 155, 2847-2862
     DOI: 10.1021/acs.jctc.9b00143
   
   for SPH calculations refer to:
   * S. Spicher and S. Grimme, J. Chem. Theory Comput., 2021, 17, 1701-1714
     DOI: 10.1021/acs.jctc.0c01306
   
   for ONIOM refer to:
   * C. Plett, A. Katbashev, S. Ehlert, S. Grimme, M. Bursch,
     Phys. Chem. Chem. Phys., 2023, 25, 17860-17868. DOI: 10.1039/D3CP02178E
   
   for DIPRO refer to:
   * J. Kohn, N. Gildemeister, S. Grimme, D. Fazzi, A. Hansen,
     J. Chem. Phys., 2023, just accepted.
   
   for PTB refer to:
   * S. Grimme, M. Mueller, A. Hansen, J. Chem. Phys., 2023, 158, 124111.
     DOI: 10.1063/5.0137838
   
   with help from (in alphabetical order)
   P. Atkinson, C. Bannwarth, F. Bohle, G. Brandenburg, E. Caldeweyher
   M. Checinski, S. Dohm, S. Ehlert, S. Ehrlich, I. Gerasimov, C. Hölzer
   A. Katbashev, J. Kohn, J. Koopman, C. Lavigne, S. Lehtola, F. März, M. Müller,
   F. Musil, H. Neugebauer, J. Pisarek, C. Plett, P. Pracht, F. Pultar,
   J. Seibert, P. Shushkov, S. Spicher, M. Stahn, M. Steiner, T. Strunk,
   J. Stückrath, T. Rose, and J. Unsleber
   
 * started run on 2025/04/11 at 16:00:44.575     
   ID    Z sym.   atoms
    1    6 C      1-5
    2   17 Cl     6
    3    1 H      7-17

           -------------------------------------------------
          |                Calculation Setup                |
           -------------------------------------------------

          program call               : /srv/scratch/z5358697/.xtb/bin/xtb xtb_rrho.coord --gfn2 --ohess vtight --chrg 0 --enso --norestart -I rrho-xcontrol-inp --parallel 1 --alpb water
          hostname                   : k124
          coordinate file            : xtb_rrho.coord
          omp threads                :                     1


           -------------------------------------------------
          |                 G F N 2 - x T B                 |
           -------------------------------------------------

        Reference                      10.1021/acs.jctc.8b01176
      * Hamiltonian:
        H0-scaling (s, p, d)           1.850000    2.230000    2.230000
        zeta-weighting                 0.500000
      * Dispersion:
        s8                             2.700000
        a1                             0.520000
        a2                             5.000000
        s9                             5.000000
      * Repulsion:
        kExp                           1.500000    1.000000
        rExp                           1.000000
      * Coulomb:
        alpha                          2.000000
        third order                    shell-resolved
        anisotropic                    true
        a3                             3.000000
        a5                             4.000000
        cn-shift                       1.200000
        cn-exp                         4.000000
        max-rad                        5.000000

      * Solvation model:               ALPB
        Solvent                        water
        Parameter file                 internal GFN2-xTB/ALPB
        Dielectric constant                8.0200E+01
        Reference state                gsolv [1 M gas/solution]
        Free energy shift                  1.0808E-03 Eh       6.7819E-01 kcal/mol
        Temperature                        2.9815E+02 K
        Density                            1.0000E+00 kg/L
        Solvent mass                       1.8000E+01 g/mol
        Interaction kernel             P16
        Born radius scaling (c1)           1.4744E+00
        Born radii integrator          GBOBC
        Born offset                        0.0000E+00 a0       0.0000E+00 AA
        H-bond correction              true
        Ion screening                  false
        Surface tension                    1.0000E-05 Eh       1.5569E+01 dyn/cm
        Grid points                               974 per atom

          ...................................................
          :                      SETUP                      :
          :.................................................:
          :  # basis functions                  41          :
          :  # atomic orbitals                  40          :
          :  # shells                           24          :
          :  # electrons                        38          :
          :  max. iterations                   250          :
          :  Hamiltonian                  GFN2-xTB          :
          :  restarted?                      false          :
          :  GBSA solvation                   true          :
          :  PC potential                    false          :
          :  electronic temp.          300.0000000     K    :
          :  accuracy                    1.0000000          :
          :  -> integral cutoff          0.2500000E+02      :
          :  -> integral neglect         0.1000000E-07      :
          :  -> SCF convergence          0.1000000E-05 Eh   :
          :  -> wf. convergence          0.1000000E-03 e    :
          :  Broyden damping             0.4000000          :
          :  net charge                          0          :
          :  unpaired electrons                  0          :
          ...................................................

 iter      E             dE          RMSdq      gap      omega  full diag
   1    -21.0601253 -0.210601E+02  0.313E+00    6.85       0.0  T
   2    -21.1064295 -0.463043E-01  0.168E+00    6.42       1.0  T
   3    -21.1075593 -0.112982E-02  0.837E-01    6.54       1.0  T
   4    -21.1078198 -0.260478E-03  0.135E-01    6.46       1.0  T
   5    -21.1078884 -0.685811E-04  0.573E-02    6.49       1.0  T
   6    -21.1078914 -0.297572E-05  0.219E-02    6.49       1.1  T
   7    -21.1078928 -0.146869E-05  0.140E-02    6.50       1.7  T
   8    -21.1078943 -0.141922E-05  0.813E-03    6.50       3.0  T
   9    -21.1078950 -0.697683E-06  0.232E-03    6.51      10.5  T
  10    -21.1078950 -0.160671E-07  0.640E-04    6.51      37.9  T
  11    -21.1078950 -0.146167E-08  0.341E-04    6.51      71.2  T

   *** convergence criteria satisfied after 11 iterations ***

         #    Occupation            Energy/Eh            Energy/eV
      -------------------------------------------------------------
         1        2.0000           -1.0529349             -28.6518
       ...           ...                  ...                  ...
        13        2.0000           -0.4564921             -12.4218
        14        2.0000           -0.4429520             -12.0533
        15        2.0000           -0.4386604             -11.9366
        16        2.0000           -0.4265034             -11.6057
        17        2.0000           -0.4197814             -11.4228
        18        2.0000           -0.4146634             -11.2836
        19        2.0000           -0.4117909             -11.2054 (HOMO)
        20                         -0.1726605              -4.6983 (LUMO)
        21                          0.0210831               0.5737
        22                          0.0247904               0.6746
        23                          0.0285137               0.7759
        24                          0.0286661               0.7800
       ...                                ...                  ...
        40                          0.2979378               8.1073
      -------------------------------------------------------------
                  HL-Gap            0.2391304 Eh            6.5071 eV
             Fermi-level           -0.2922257 Eh           -7.9519 eV

 SCC (total)                   0 d,  0 h,  0 min,  0.023 sec
 SCC setup                      ...        0 min,  0.001 sec (  4.361%)
 Dispersion                     ...        0 min,  0.000 sec (  0.355%)
 classical contributions        ...        0 min,  0.000 sec (  0.083%)
 integral evaluation            ...        0 min,  0.013 sec ( 54.565%)
 iterations                     ...        0 min,  0.005 sec ( 22.610%)
 molecular gradient             ...        0 min,  0.004 sec ( 17.292%)
 printout                       ...        0 min,  0.000 sec (  0.662%)

         :::::::::::::::::::::::::::::::::::::::::::::::::::::
         ::                     SUMMARY                     ::
         :::::::::::::::::::::::::::::::::::::::::::::::::::::
         :: total energy             -20.872308272332 Eh    ::
         :: total w/o Gsasa/hb       -20.871654636426 Eh    ::
         :: gradient norm              0.026171616809 Eh/a0 ::
         :: HOMO-LUMO gap              6.507069347008 eV    ::
         ::.................................................::
         :: SCC energy               -21.107865714448 Eh    ::
         :: -> isotropic ES            0.012454621511 Eh    ::
         :: -> anisotropic ES          0.002375897289 Eh    ::
         :: -> anisotropic XC          0.011333358849 Eh    ::
         :: -> dispersion             -0.010085603560 Eh    ::
         :: -> Gsolv                  -0.004664888192 Eh    ::
         ::    -> Gelec               -0.004011252286 Eh    ::
         ::    -> Gsasa               -0.000788675645 Eh    ::
         ::    -> Ghb                 -0.000945719959 Eh    ::
         ::    -> Gshift               0.001080759698 Eh    ::
         :: repulsion energy           0.235557442115 Eh    ::
         :: add. restraining           0.000000000000 Eh    ::
         :: total charge               0.000000000000 e     ::
         :::::::::::::::::::::::::::::::::::::::::::::::::::::

      ----------------------------------------------------------- 
     |                   =====================                   |
     |                        A N C O P T                        |
     |                   =====================                   |
     |               Approximate Normal Coordinate               |
     |                Rational Function Optimizer                |
      ----------------------------------------------------------- 
      ----------------------------------------------------------- 
     |                   =====================                   |
     |                        A N C O P T                        |
     |                   =====================                   |
     |               Approximate Normal Coordinate               |
     |                Rational Function Optimizer                |
      ----------------------------------------------------------- 

          ...................................................
          :                      SETUP                      :
          :.................................................:
          :   optimization level         verytight          :
          :   max. optcycles                   340          :
          :   ANC micro-cycles                  20          :
          :   degrees of freedom                45          :
          :.................................................:
          :   RF solver                   davidson          :
          :   write xtbopt.log                true          :
          :   linear?                        false          :
          :   energy convergence         0.1000000E-06 Eh   :
          :   grad. convergence          0.2000000E-03 Eh/α :
          :   maxmium RF displ.          1.0000000          :
          :   Hlow (freq-cutoff)         0.1000000E-01      :
          :   Hmax (freq-cutoff)         5.0000000          :
          :   S6 in model hess.         20.0000000          :
          ...................................................

generating ANC from exact Hessian ...
Using Lindh-Hessian (1995)
 Shifting diagonal of input Hessian by   7.415596886115321E-003
 Lowest  eigenvalues of input Hessian
    0.000000    0.000000    0.000000    0.000000    0.000000    0.000000
    0.010000    0.010336    0.012033    0.016607    0.018084    0.018765
    0.025933    0.035886    0.046437    0.053173    0.057183    0.059190
 Highest eigenvalues
    1.108628    1.150158    1.175371    1.203738    1.248680    1.301974
 

........................................................................
.............................. CYCLE    1 ..............................
........................................................................

 iter      E             dE          RMSdq      gap      omega  full diag
   1    -21.1078950 -0.211079E+02  0.160E-04    6.51       0.0  T
   2    -21.1078950 -0.887290E-10  0.119E-04    6.51     203.1  T
   3    -21.1078950 -0.365254E-10  0.946E-05    6.51     256.4  T
     SCC iter.                  ...        0 min,  0.001 sec
     gradient                   ...        0 min,  0.004 sec
 * total energy  :   -20.8723083 Eh     change       -0.4336158E-09 Eh
   gradient norm :     0.0261712 Eh/α   predicted     0.0000000E+00 (-100.00%)
   displ. norm   :     0.1335119 α      lambda       -0.1522110E-02
   maximum displ.:     0.0872875 α      in ANC's #5, #11, #19, ...

........................................................................
.............................. CYCLE    2 ..............................
........................................................................

 iter      E             dE          RMSdq      gap      omega  full diag
   1    -21.1153324 -0.211153E+02  0.121E-01    6.72       0.0  T
   2    -21.1153414 -0.901081E-05  0.734E-02    6.71       1.0  T
   3    -21.1153454 -0.398181E-05  0.219E-02    6.71       1.1  T
   4    -21.1153469 -0.151830E-05  0.166E-02    6.71       1.5  T
   5    -21.1153483 -0.137494E-05  0.116E-02    6.70       2.1  T
   6    -21.1153496 -0.134752E-05  0.413E-03    6.70       5.9  T
   7    -21.1153497 -0.116532E-06  0.732E-04    6.69      33.1  T
   8    -21.1153497 -0.258082E-08  0.297E-04    6.69      81.8  T
     SCC iter.                  ...        0 min,  0.003 sec
     gradient                   ...        0 min,  0.004 sec
 * total energy  :   -20.8733331 Eh     change       -0.1024854E-02 Eh
   gradient norm :     0.0137732 Eh/α   predicted    -0.7746214E-03 ( -24.42%)
   displ. norm   :     0.0993228 α      lambda       -0.4978630E-03
   maximum displ.:     0.0755834 α      in ANC's #5, #2, #4, ...

........................................................................
.............................. CYCLE    3 ..............................
........................................................................

 iter      E             dE          RMSdq      gap      omega  full diag
   1    -21.1191877 -0.211192E+02  0.705E-02    6.88       0.0  T
   2    -21.1191938 -0.611118E-05  0.448E-02    6.88       1.0  T
   3    -21.1191964 -0.259776E-05  0.189E-02    6.88       1.3  T
   4    -21.1191977 -0.126594E-05  0.139E-02    6.87       1.7  T
   5    -21.1191988 -0.108845E-05  0.951E-03    6.87       2.6  T
   6    -21.1191997 -0.916838E-06  0.284E-03    6.86       8.5  T
   7    -21.1191998 -0.450461E-07  0.923E-04    6.86      26.3  T
   8    -21.1191998 -0.354256E-08  0.166E-04    6.86     146.0  T
     SCC iter.                  ...        0 min,  0.003 sec
     gradient                   ...        0 min,  0.004 sec
 * total energy  :   -20.8736245 Eh     change       -0.2913859E-03 Eh
   gradient norm :     0.0048608 Eh/α   predicted    -0.2513861E-03 ( -13.73%)
   displ. norm   :     0.0510804 α      lambda       -0.7224480E-04
   maximum displ.:     0.0374855 α      in ANC's #2, #5, #1, ...

........................................................................
.............................. CYCLE    4 ..............................
........................................................................

 iter      E             dE          RMSdq      gap      omega  full diag
   1    -21.1188155 -0.211188E+02  0.277E-02    6.93       0.0  T
   2    -21.1188159 -0.437273E-06  0.174E-02    6.92       1.4  T
   3    -21.1188162 -0.304674E-06  0.579E-03    6.92       4.2  T
   4    -21.1188164 -0.110646E-06  0.468E-03    6.92       5.2  T
   5    -21.1188165 -0.149866E-06  0.270E-03    6.92       9.0  T
   6    -21.1188166 -0.754553E-07  0.954E-04    6.92      25.4  T
   7    -21.1188166 -0.528089E-08  0.181E-04    6.92     133.8  T
     SCC iter.                  ...        0 min,  0.003 sec
     gradient                   ...        0 min,  0.004 sec
 * total energy  :   -20.8736752 Eh     change       -0.5070872E-04 Eh
   gradient norm :     0.0022600 Eh/α   predicted    -0.3621736E-04 ( -28.58%)
   displ. norm   :     0.0637083 α      lambda       -0.3940124E-04
   maximum displ.:     0.0525562 α      in ANC's #2, #5, #1, ...

........................................................................
.............................. CYCLE    5 ..............................
........................................................................

 iter      E             dE          RMSdq      gap      omega  full diag
   1    -21.1179200 -0.211179E+02  0.338E-02    6.95       0.0  T
   2    -21.1179201 -0.117884E-06  0.200E-02    6.95       1.2  T
   3    -21.1179202 -0.106662E-06  0.312E-03    6.95       7.8  T
   4    -21.1179202 -0.272688E-07  0.261E-03    6.95       9.3  T
   5    -21.1179203 -0.536321E-07  0.128E-03    6.95      19.0  T
   6    -21.1179203 -0.150608E-07  0.638E-04    6.95      38.0  T
   7    -21.1179203 -0.254295E-08  0.818E-05    6.95     296.5  T
     SCC iter.                  ...        0 min,  0.003 sec
     gradient                   ...        0 min,  0.004 sec
 * total energy  :   -20.8737017 Eh     change       -0.2651348E-04 Eh
   gradient norm :     0.0014176 Eh/α   predicted    -0.1977863E-04 ( -25.40%)
   displ. norm   :     0.0753256 α      lambda       -0.1581981E-04
   maximum displ.:     0.0635810 α      in ANC's #2, #1, #6, ...

........................................................................
.............................. CYCLE    6 ..............................
........................................................................

 iter      E             dE          RMSdq      gap      omega  full diag
   1    -21.1173169 -0.211173E+02  0.415E-02    6.95       0.0  T
   2    -21.1173170 -0.572015E-07  0.242E-02    6.95       1.0  T
   3    -21.1173170 -0.143839E-07  0.749E-04    6.95      32.4  T
   4    -21.1173170 -0.110023E-08  0.494E-04    6.95      49.1  T
     SCC iter.                  ...        0 min,  0.002 sec
     gradient                   ...        0 min,  0.004 sec
 * total energy  :   -20.8737195 Eh     change       -0.1773186E-04 Eh
   gradient norm :     0.0018191 Eh/α   predicted    -0.7928307E-05 ( -55.29%)
   displ. norm   :     0.0585639 α      lambda       -0.1233583E-04
   maximum displ.:     0.0487795 α      in ANC's #2, #1, #3, ...

........................................................................
.............................. CYCLE    7 ..............................
........................................................................

 iter      E             dE          RMSdq      gap      omega  full diag
   1    -21.1175352 -0.211175E+02  0.354E-02    6.94       0.0  T
   2    -21.1175353 -0.423141E-07  0.207E-02    6.94       1.2  T
   3    -21.1175353 -0.219371E-07  0.130E-03    6.94      18.7  T
   4    -21.1175353 -0.497574E-08  0.106E-03    6.94      22.9  T
   5    -21.1175353 -0.629094E-08  0.660E-04    6.94      36.7  T
   6    -21.1175353 -0.375481E-08  0.357E-04    6.94      68.0  T
     SCC iter.                  ...        0 min,  0.002 sec
     gradient                   ...        0 min,  0.004 sec
 * total energy  :   -20.8737349 Eh     change       -0.1542972E-04 Eh
   gradient norm :     0.0012763 Eh/α   predicted    -0.6175716E-05 ( -59.98%)
   displ. norm   :     0.0684494 α      lambda       -0.1114673E-04
   maximum displ.:     0.0567803 α      in ANC's #2, #1, #5, ...

........................................................................
.............................. CYCLE    8 ..............................
........................................................................

 iter      E             dE          RMSdq      gap      omega  full diag
   1    -21.1179068 -0.211179E+02  0.434E-02    6.92       0.0  T
   2    -21.1179069 -0.432505E-07  0.253E-02    6.92       1.0  T
   3    -21.1179069 -0.267769E-07  0.128E-03    6.92      18.9  T
   4    -21.1179069 -0.426154E-08  0.104E-03    6.93      23.3  T
   5    -21.1179069 -0.647431E-08  0.630E-04    6.93      38.5  T
   6    -21.1179069 -0.315649E-08  0.371E-04    6.93      65.4  T
     SCC iter.                  ...        0 min,  0.002 sec
     gradient                   ...        0 min,  0.004 sec
 * total energy  :   -20.8737483 Eh     change       -0.1340791E-04 Eh
   gradient norm :     0.0005052 Eh/α   predicted    -0.5584399E-05 ( -58.35%)
   displ. norm   :     0.0569973 α      lambda       -0.6444718E-05
   maximum displ.:     0.0489506 α      in ANC's #2, #3, #1, ...

........................................................................
.............................. CYCLE    9 ..............................
........................................................................

 iter      E             dE          RMSdq      gap      omega  full diag
   1    -21.1181014 -0.211181E+02  0.381E-02    6.92       0.0  T
   2    -21.1181015 -0.279698E-07  0.222E-02    6.92       1.1  T
   3    -21.1181015 -0.134880E-07  0.810E-04    6.92      29.9  T
   4    -21.1181015 -0.157354E-08  0.626E-04    6.92      38.7  T
     SCC iter.                  ...        0 min,  0.002 sec
     gradient                   ...        0 min,  0.004 sec
 * total energy  :   -20.8737562 Eh     change       -0.7904844E-05 Eh
   gradient norm :     0.0004916 Eh/α   predicted    -0.3227471E-05 ( -59.17%)
   displ. norm   :     0.0404450 α      lambda       -0.3922186E-05
   maximum displ.:     0.0359507 α      in ANC's #2, #3, #5, ...

........................................................................
.............................. CYCLE   10 ..............................
........................................................................

 iter      E             dE          RMSdq      gap      omega  full diag
   1    -21.1181376 -0.211181E+02  0.284E-02    6.92       0.0  T
   2    -21.1181376 -0.113788E-07  0.166E-02    6.92       1.5  T
   3    -21.1181376 -0.639462E-08  0.494E-04    6.92      49.1  T
   4    -21.1181376 -0.488381E-09  0.312E-04    6.92      77.7  T
     SCC iter.                  ...        0 min,  0.002 sec
     gradient                   ...        0 min,  0.004 sec
 * total energy  :   -20.8737613 Eh     change       -0.5047158E-05 Eh
   gradient norm :     0.0004756 Eh/α   predicted    -0.1962838E-05 ( -61.11%)
   displ. norm   :     0.0337691 α      lambda       -0.3180558E-05
   maximum displ.:     0.0302775 α      in ANC's #2, #3, #6, ...

........................................................................
.............................. CYCLE   11 ..............................
........................................................................

 iter      E             dE          RMSdq      gap      omega  full diag
   1    -21.1181130 -0.211181E+02  0.235E-02    6.92       0.0  T
   2    -21.1181130 -0.796087E-08  0.137E-02    6.92       1.8  T
   3    -21.1181130 -0.389327E-08  0.388E-04    6.92      62.5  T
   4    -21.1181130 -0.297234E-09  0.266E-04    6.92      91.2  T
     SCC iter.                  ...        0 min,  0.002 sec
     gradient                   ...        0 min,  0.004 sec
 * total energy  :   -20.8737655 Eh     change       -0.4237455E-05 Eh
   gradient norm :     0.0003265 Eh/α   predicted    -0.1590079E-05 ( -62.48%)
   displ. norm   :     0.0348393 α      lambda       -0.2970432E-05
   maximum displ.:     0.0300979 α      in ANC's #2, #3, #1, ...

........................................................................
.............................. CYCLE   12 ..............................
........................................................................

 iter      E             dE          RMSdq      gap      omega  full diag
   1    -21.1180453 -0.211180E+02  0.222E-02    6.92       0.0  T
   2    -21.1180453 -0.657981E-08  0.129E-02    6.92       1.9  T
   3    -21.1180453 -0.358904E-08  0.367E-04    6.92      66.1  T
   4    -21.1180453 -0.212250E-09  0.171E-04    6.92     141.7  T
     SCC iter.                  ...        0 min,  0.002 sec
     gradient                   ...        0 min,  0.004 sec
 * total energy  :   -20.8737695 Eh     change       -0.3986734E-05 Eh
   gradient norm :     0.0001640 Eh/α   predicted    -0.1486352E-05 ( -62.72%)
   displ. norm   :     0.0396605 α      lambda       -0.2948953E-05
   maximum displ.:     0.0323320 α      in ANC's #2, #1, #3, ...

........................................................................
.............................. CYCLE   13 ..............................
........................................................................

 iter      E             dE          RMSdq      gap      omega  full diag
   1    -21.1179710 -0.211180E+02  0.216E-02    6.93       0.0  T
   2    -21.1179711 -0.805742E-08  0.127E-02    6.93       1.9  T
   3    -21.1179711 -0.426312E-08  0.489E-04    6.93      49.6  T
   4    -21.1179711 -0.497582E-09  0.356E-04    6.93      68.1  T
     SCC iter.                  ...        0 min,  0.002 sec
     gradient                   ...        0 min,  0.004 sec
 * total energy  :   -20.8737734 Eh     change       -0.3915413E-05 Eh
   gradient norm :     0.0002163 Eh/α   predicted    -0.1477172E-05 ( -62.27%)
   displ. norm   :     0.0442374 α      lambda       -0.2917673E-05
   maximum displ.:     0.0347382 α      in ANC's #2, #1, #3, ...

........................................................................
.............................. CYCLE   14 ..............................
........................................................................

 iter      E             dE          RMSdq      gap      omega  full diag
   1    -21.1179595 -0.211180E+02  0.209E-02    6.93       0.0  T
   2    -21.1179596 -0.647832E-08  0.122E-02    6.93       2.0  T
   3    -21.1179596 -0.356899E-08  0.405E-04    6.93      59.8  T
   4    -21.1179596 -0.197169E-09  0.222E-04    6.93     109.5  T
     SCC iter.                  ...        0 min,  0.002 sec
     gradient                   ...        0 min,  0.004 sec
 * total energy  :   -20.8737773 Eh     change       -0.3895247E-05 Eh
   gradient norm :     0.0003203 Eh/α   predicted    -0.1460015E-05 ( -62.52%)
   displ. norm   :     0.0486028 α      lambda       -0.2881442E-05
   maximum displ.:     0.0372685 α      in ANC's #2, #1, #3, ...

........................................................................
.............................. CYCLE   15 ..............................
........................................................................

 iter      E             dE          RMSdq      gap      omega  full diag
   1    -21.1179419 -0.211179E+02  0.205E-02    6.93       0.0  T
   2    -21.1179419 -0.605840E-08  0.120E-02    6.93       2.0  T
   3    -21.1179419 -0.316009E-08  0.363E-04    6.93      66.9  T
   4    -21.1179419 -0.417550E-10  0.135E-04    6.93     179.9  T
     SCC iter.                  ...        0 min,  0.002 sec
     gradient                   ...        0 min,  0.004 sec
 * total energy  :   -20.8737812 Eh     change       -0.3939634E-05 Eh
   gradient norm :     0.0003167 Eh/α   predicted    -0.1442589E-05 ( -63.38%)
   displ. norm   :     0.0569672 α      lambda       -0.3139540E-05
   maximum displ.:     0.0430888 α      in ANC's #2, #1, #3, ...

........................................................................
.............................. CYCLE   16 ..............................
........................................................................

 iter      E             dE          RMSdq      gap      omega  full diag
   1    -21.1179525 -0.211180E+02  0.221E-02    6.92       0.0  T
   2    -21.1179525 -0.780509E-08  0.130E-02    6.92       1.9  T
   3    -21.1179525 -0.417122E-08  0.427E-04    6.92      56.8  T
   4    -21.1179525 -0.122522E-09  0.170E-04    6.92     142.6  T
     SCC iter.                  ...        0 min,  0.002 sec
     gradient                   ...        0 min,  0.004 sec
 * total energy  :   -20.8737855 Eh     change       -0.4237153E-05 Eh
   gradient norm :     0.0002821 Eh/α   predicted    -0.1573711E-05 ( -62.86%)
   displ. norm   :     0.0733331 α      lambda       -0.3561328E-05
   maximum displ.:     0.0550397 α      in ANC's #2, #1, #3, ...

........................................................................
.............................. CYCLE   17 ..............................
........................................................................

 iter      E             dE          RMSdq      gap      omega  full diag
   1    -21.1179672 -0.211180E+02  0.275E-02    6.92       0.0  T
   2    -21.1179673 -0.131712E-07  0.162E-02    6.92       1.5  T
   3    -21.1179673 -0.741569E-08  0.595E-04    6.92      40.8  T
   4    -21.1179673 -0.461572E-09  0.328E-04    6.92      74.0  T
     SCC iter.                  ...        0 min,  0.002 sec
     gradient                   ...        0 min,  0.004 sec
 * total energy  :   -20.8737900 Eh     change       -0.4531348E-05 Eh
   gradient norm :     0.0002544 Eh/α   predicted    -0.1786140E-05 ( -60.58%)
   displ. norm   :     0.0878078 α      lambda       -0.3277696E-05
   maximum displ.:     0.0655514 α      in ANC's #2, #1, #3, ...

........................................................................
.............................. CYCLE   18 ..............................
........................................................................

 iter      E             dE          RMSdq      gap      omega  full diag
   1    -21.1179349 -0.211179E+02  0.333E-02    6.92       0.0  T
   2    -21.1179349 -0.200915E-07  0.196E-02    6.92       1.2  T
   3    -21.1179349 -0.123018E-07  0.808E-04    6.92      30.0  T
   4    -21.1179349 -0.113135E-08  0.522E-04    6.92      46.5  T
     SCC iter.                  ...        0 min,  0.002 sec
     gradient                   ...        0 min,  0.004 sec
 * total energy  :   -20.8737937 Eh     change       -0.3688379E-05 Eh
   gradient norm :     0.0002628 Eh/α   predicted    -0.1645194E-05 ( -55.40%)
   displ. norm   :     0.1025628 α      lambda       -0.2397474E-05
   maximum displ.:     0.0765471 α      in ANC's #2, #1, #3, ...

........................................................................
.............................. CYCLE   19 ..............................
........................................................................

 iter      E             dE          RMSdq      gap      omega  full diag
   1    -21.1179029 -0.211179E+02  0.397E-02    6.92       0.0  T
   2    -21.1179029 -0.262555E-07  0.233E-02    6.92       1.0  T
   3    -21.1179029 -0.138786E-07  0.773E-04    6.92      31.4  T
   4    -21.1179029 -0.413884E-09  0.378E-04    6.92      64.1  T
     SCC iter.                  ...        0 min,  0.002 sec
     gradient                   ...        0 min,  0.004 sec
 * total energy  :   -20.8737956 Eh     change       -0.1930331E-05 Eh
   gradient norm :     0.0003303 Eh/α   predicted    -0.1202835E-05 ( -37.69%)
   displ. norm   :     0.0205904 α      lambda       -0.4134731E-06
   maximum displ.:     0.0147854 α      in ANC's #2, #1, #3, ...

........................................................................
.............................. CYCLE   20 ..............................
........................................................................

 iter      E             dE          RMSdq      gap      omega  full diag
   1    -21.1180830 -0.211181E+02  0.936E-03    6.91       0.0  T
   2    -21.1180830 -0.481101E-08  0.548E-03    6.91       4.4  T
   3    -21.1180830 -0.208607E-08  0.397E-04    6.91      61.0  T
   4    -21.1180830 -0.390095E-09  0.314E-04    6.91      77.3  T
     SCC iter.                  ...        0 min,  0.002 sec
     gradient                   ...        0 min,  0.004 sec
 * total energy  :   -20.8737960 Eh     change       -0.3358187E-06 Eh
   gradient norm :     0.0001331 Eh/α   predicted    -0.2062156E-06 ( -38.59%)
   displ. norm   :     0.0122454 α      lambda       -0.1532384E-06
   maximum displ.:     0.0077724 α      in ANC's #1, #2, #3, ...
 * RMSD in coord.:     0.2241842 α      energy gain  -0.1487682E-02 Eh

generating ANC from exact Hessian ...
Using Lindh-Hessian (1995)
 Shifting diagonal of input Hessian by   7.342548266520392E-003
 Lowest  eigenvalues of input Hessian
    0.000000    0.000000    0.000000    0.000000    0.000000    0.000000
    0.010000    0.010397    0.012078    0.017088    0.018354    0.019075
    0.026642    0.037709    0.048364    0.056276    0.058518    0.060937
 Highest eigenvalues
    1.144172    1.175905    1.199528    1.219905    1.245851    1.294639
 

........................................................................
.............................. CYCLE   21 ..............................
........................................................................

 iter      E             dE          RMSdq      gap      omega  full diag
   1    -21.1181044 -0.211181E+02  0.625E-03    6.92       0.0  T
   2    -21.1181044 -0.888111E-09  0.366E-03    6.92       6.6  T
   3    -21.1181044 -0.331710E-09  0.122E-04    6.92     198.8  T
   4    -21.1181044 -0.317542E-10  0.800E-05    6.92     303.4  T
     SCC iter.                  ...        0 min,  0.002 sec
     gradient                   ...        0 min,  0.004 sec
 * total energy  :   -20.8737961 Eh     change       -0.1646888E-06 Eh
   gradient norm :     0.0001037 Eh/α   predicted     0.0000000E+00 (-100.00%)
   displ. norm   :     0.0028899 α      lambda       -0.7530014E-07
   maximum displ.:     0.0017565 α      in ANC's #3, #4, #2, ...

........................................................................
.............................. CYCLE   22 ..............................
........................................................................

 iter      E             dE          RMSdq      gap      omega  full diag
   1    -21.1180734 -0.211181E+02  0.130E-03    6.92       0.0  T
   2    -21.1180734 -0.213415E-09  0.765E-04    6.92      31.7  T
   3    -21.1180734 -0.218954E-10  0.561E-05    6.92     432.6  T
     SCC iter.                  ...        0 min,  0.001 sec
     gradient                   ...        0 min,  0.004 sec
 * total energy  :   -20.8737962 Eh     change       -0.7624125E-07 Eh
   gradient norm :     0.0000377 Eh/α   predicted    -0.3721200E-07 ( -51.19%)
   displ. norm   :     0.0051690 α      lambda       -0.7237655E-07
   maximum displ.:     0.0031041 α      in ANC's #3, #4, #2, ...

   *** GEOMETRY OPTIMIZATION CONVERGED AFTER 22 ITERATIONS ***

------------------------------------------------------------------------
 total energy gain   :        -0.0014879 Eh       -0.9337 kcal/mol
 total RMSD          :         0.2240824 a0        0.1186 Å
 total power (kW/mol):        -0.1775700 (step)  -19.5044 (real)
------------------------------------------------------------------------

 ANCopt (total)                0 d,  0 h,  0 min,  0.200 sec
 optimizer setup                ...        0 min,  0.000 sec (  0.160%)
 model hessian                  ...        0 min,  0.010 sec (  4.744%)
 ANC generation                 ...        0 min,  0.001 sec (  0.370%)
 coordinate transformation      ...        0 min,  0.000 sec (  0.070%)
 single point calculation       ...        0 min,  0.179 sec ( 89.412%)
 optimization log               ...        0 min,  0.007 sec (  3.338%)
 hessian update                 ...        0 min,  0.000 sec (  0.072%)
 rational function              ...        0 min,  0.003 sec (  1.308%)

================
 final structure:
================
$coord
        5.92687656464279       -1.45069899373304        0.22824736041317      C
        3.70129064473293        0.24669729834641        0.90971545758185      C
        1.90240095533430        0.57012842067106       -1.32507640947962      C
       -0.25588397051537        2.42270894309870       -0.81088315101536      C
       -2.17186274513660        1.48099531888957        1.10689377114217      C
       -3.79784342923060       -1.28414668131014       -0.03057090062240      Cl
        5.26334104110466       -3.31296915003356       -0.33545751467727      H
        7.18810564758439       -1.67036640524690        1.83518374701996      H
        6.99618093440654       -0.64728981842410       -1.33254682288492      H
        2.69660178966020       -0.58171743913194        2.50840650179291      H
        4.40517808809609        2.09727362307207        1.49239512905514      H
        1.11308132780363       -1.26509924462959       -1.84178166932100      H
        2.97904774920096        1.26207947480988       -2.94353488857503      H
       -1.23180289049314        2.82853986978528       -2.58177323081037      H
        0.51825000718394        4.19281179651695       -0.08571787171846      H
       -1.28744337429742        0.93228941370339        2.87881289369724      H
       -3.63272098732863        2.88671148333064        1.45224627086675      H
$end
 
 Bond Distances (Angstroems)
 ---------------------------
C1-C2=1.5244         C1-H7=1.0879         C1-H8=1.0872         C1-H9=1.0877         C2-C1=1.5244         C2-C3=1.5277         
C2-H10=1.0911        C2-H11=1.0922        C3-C2=1.5277         C3-C4=1.5296         C3-H12=1.0920        C3-H13=1.0919        
C4-C3=1.5296         C4-C5=1.5186         C4-H14=1.0913        C4-H15=1.0920        C5-C4=1.5186         C5-Cl6=1.8010        
C5-H16=1.0875        C5-H17=1.0883        Cl6-C5=1.8010        H7-C1=1.0879         H8-C1=1.0872         H9-C1=1.0877         
H10-C2=1.0911        H11-C2=1.0922        H12-C3=1.0920        H13-C3=1.0919        H14-C4=1.0913        H15-C4=1.0920        
H16-C5=1.0875        H17-C5=1.0883        
 C  H  Rav=1.0899 sigma=0.0020  Rmin=1.0872  Rmax=1.0922    11
 C  C  Rav=1.5251 sigma=0.0042  Rmin=1.5186  Rmax=1.5296     4
 Cl C  Rav=1.8010 sigma=0.0000  Rmin=1.8010  Rmax=1.8010     1
 
 selected bond angles (degree)
 --------------------
H7-C1-C2=110.44                H8-C1-C2=110.62                H8-C1-H7=108.41                H9-C1-C2=110.56                
H9-C1-H7=108.29                H9-C1-H8=108.44                C3-C2-C1=111.36                H10-C2-C1=108.85               
H10-C2-C3=109.97               H11-C2-C1=109.37               H11-C2-C3=109.30               H11-C2-H10=107.91              
C4-C3-C2=113.54                H12-C3-C2=109.42               H12-C3-C4=109.21               H13-C3-C2=108.64               
H13-C3-C4=108.31               H13-C3-H12=107.54              C5-C4-C3=114.02                H14-C4-C3=109.07               
H14-C4-C5=108.81               H15-C4-C3=109.40               H15-C4-C5=107.28               H15-C4-H14=108.09              
Cl6-C5-C4=111.24               H16-C5-C4=112.12               H16-C5-Cl6=106.07              H17-C5-C4=111.23               
H17-C5-Cl6=105.79              H17-C5-H16=110.09              
 
 selected dihedral angles (degree)
 ---------------------------------
C3-C2-C1-H7=300.21            C3-C2-C1-H8=180.19            C3-C2-C1-H9= 60.05            H10-C2-C1-H7= 61.62           
H10-C2-C1-H8=301.60           H10-C2-C1-H9=181.45           H11-C2-C1-H7=179.30           H11-C2-C1-H8= 59.27           
H11-C2-C1-H9=299.13           C4-C3-C2-C1=184.53            C4-C3-C2-H10= 63.78           C4-C3-C2-H11=305.49           
H12-C3-C2-C1= 62.25           H12-C3-C2-H10=301.50          H12-C3-C2-H11=183.21          H13-C3-C2-C1=305.11           
H13-C3-C2-H10=184.36          H13-C3-C2-H11= 66.06          C5-C4-C3-C2=291.04            C5-C4-C3-H12= 53.44           
C5-C4-C3-H13=170.28           H14-C4-C3-C2=169.19           H14-C4-C3-H12=291.60          H14-C4-C3-H13= 48.44          
H15-C4-C3-C2= 51.16           H15-C4-C3-H12=173.56          H15-C4-C3-H13=290.40          Cl6-C5-C4-C3=295.83           
Cl6-C5-C4-H14= 57.81          Cl6-C5-C4-H15=174.53          H16-C5-C4-C3= 54.42           H16-C5-C4-H14=176.40          
H16-C5-C4-H15=293.12          H17-C5-C4-C3=178.17           H17-C5-C4-H14=300.16          H17-C5-C4-H15= 56.87          
           -------------------------------------------------
          |                Final Singlepoint                |
           -------------------------------------------------

          ...................................................
          :                      SETUP                      :
          :.................................................:
          :  # basis functions                  41          :
          :  # atomic orbitals                  40          :
          :  # shells                           24          :
          :  # electrons                        38          :
          :  max. iterations                   250          :
          :  Hamiltonian                  GFN2-xTB          :
          :  restarted?                      false          :
          :  GBSA solvation                   true          :
          :  PC potential                    false          :
          :  electronic temp.          300.0000000     K    :
          :  accuracy                    1.0000000          :
          :  -> integral cutoff          0.2500000E+02      :
          :  -> integral neglect         0.1000000E-07      :
          :  -> SCF convergence          0.1000000E-05 Eh   :
          :  -> wf. convergence          0.1000000E-03 e    :
          :  Broyden damping             0.4000000          :
          :  net charge                          0          :
          :  unpaired electrons                  0          :
          ...................................................

 iter      E             dE          RMSdq      gap      omega  full diag
   1    -21.1180734 -0.211181E+02  0.252E-05    6.92       0.0  T
   2    -21.1180734 -0.529354E-12  0.171E-05    6.92    1418.7  T
   3    -21.1180734 -0.479616E-12  0.674E-06    6.92    3600.6  T

   *** convergence criteria satisfied after 3 iterations ***

         #    Occupation            Energy/Eh            Energy/eV
      -------------------------------------------------------------
         1        2.0000           -1.0550545             -28.7095
       ...           ...                  ...                  ...
        13        2.0000           -0.4555529             -12.3962
        14        2.0000           -0.4455321             -12.1235
        15        2.0000           -0.4386259             -11.9356
        16        2.0000           -0.4260692             -11.5939
        17        2.0000           -0.4227332             -11.5032
        18        2.0000           -0.4146807             -11.2840
        19        2.0000           -0.4110755             -11.1859 (HOMO)
        20                         -0.1569290              -4.2703 (LUMO)
        21                          0.0165624               0.4507
        22                          0.0214865               0.5847
        23                          0.0256566               0.6982
        24                          0.0258816               0.7043
       ...                                ...                  ...
        40                          0.3139983               8.5443
      -------------------------------------------------------------
                  HL-Gap            0.2541465 Eh            6.9157 eV
             Fermi-level           -0.2840022 Eh           -7.7281 eV

 SCC (total)                   0 d,  0 h,  0 min,  0.008 sec
 SCC setup                      ...        0 min,  0.001 sec ( 12.951%)
 Dispersion                     ...        0 min,  0.000 sec (  0.657%)
 classical contributions        ...        0 min,  0.000 sec (  0.206%)
 integral evaluation            ...        0 min,  0.001 sec ( 17.042%)
 iterations                     ...        0 min,  0.001 sec ( 16.888%)
 molecular gradient             ...        0 min,  0.004 sec ( 50.379%)
 printout                       ...        0 min,  0.000 sec (  1.673%)

         :::::::::::::::::::::::::::::::::::::::::::::::::::::
         ::                     SUMMARY                     ::
         :::::::::::::::::::::::::::::::::::::::::::::::::::::
         :: total energy             -20.873796194938 Eh    ::
         :: total w/o Gsasa/hb       -20.873198401826 Eh    ::
         :: gradient norm              0.000037663868 Eh/a0 ::
         :: HOMO-LUMO gap              6.915678870431 eV    ::
         ::.................................................::
         :: SCC energy               -21.118046651329 Eh    ::
         :: -> isotropic ES            0.011475153706 Eh    ::
         :: -> anisotropic ES          0.002614242604 Eh    ::
         :: -> anisotropic XC          0.011327161613 Eh    ::
         :: -> dispersion             -0.010077361734 Eh    ::
         :: -> Gsolv                  -0.004030876486 Eh    ::
         ::    -> Gelec               -0.003433083374 Eh    ::
         ::    -> Gsasa               -0.000792422208 Eh    ::
         ::    -> Ghb                 -0.000886130603 Eh    ::
         ::    -> Gshift               0.001080759698 Eh    ::
         :: repulsion energy           0.244250456391 Eh    ::
         :: add. restraining           0.000000000000 Eh    ::
         :: total charge              -0.000000000000 e     ::
         :::::::::::::::::::::::::::::::::::::::::::::::::::::

           ------------------------------------------------- 
          |                Numerical Hessian                |
           ------------------------------------------------- 
step length          :   0.00500
SCC accuracy         :   0.30000
Hessian scale factor :   1.00000
frozen atoms in %    :   0.00000    0
RMS gradient         :   0.00004
estimated CPU  time      0.01 min
estimated wall time      0.01 min

writing file <hessian>.

 projected vibrational frequencies (cm⁻¹)
eigval :       -0.00    -0.00    -0.00     0.00     0.00     0.00
eigval :       41.63    63.48   163.17   212.59   238.03   291.81
eigval :      378.82   472.74   647.64   770.59   817.06   887.02
eigval :      920.74   952.93  1003.82  1080.16  1094.55  1100.70
eigval :     1126.77  1162.49  1212.79  1246.20  1257.22  1285.10
eigval :     1306.63  1342.61  1370.81  1412.70  1425.24  1459.33
eigval :     1486.68  1491.21  1500.64  1503.64  2963.75  2971.19
eigval :     2974.96  2984.76  2986.24  2990.37  2996.82  3008.00
eigval :     3024.73  3028.39  3038.27
           -------------------------------------------------
          |                Property Printout                |
           -------------------------------------------------

    * Orbital Energies and Occupations

         #    Occupation            Energy/Eh            Energy/eV
      -------------------------------------------------------------
         1        2.0000           -1.0550545             -28.7095
       ...           ...                  ...                  ...
         7        2.0000           -0.5251356             -14.2897
         8        2.0000           -0.5207416             -14.1701
         9        2.0000           -0.5065598             -13.7842
        10        2.0000           -0.4948103             -13.4645
        11        2.0000           -0.4800028             -13.0615
        12        2.0000           -0.4770735             -12.9818
        13        2.0000           -0.4555529             -12.3962
        14        2.0000           -0.4455321             -12.1235
        15        2.0000           -0.4386259             -11.9356
        16        2.0000           -0.4260692             -11.5939
        17        2.0000           -0.4227332             -11.5032
        18        2.0000           -0.4146807             -11.2840
        19        2.0000           -0.4110755             -11.1859 (HOMO)
        20                         -0.1569290              -4.2703 (LUMO)
        21                          0.0165624               0.4507
        22                          0.0214865               0.5847
        23                          0.0256566               0.6982
        24                          0.0258816               0.7043
        25                          0.0716253               1.9490
        26                          0.0937774               2.5518
        27                          0.1111836               3.0255
        28                          0.1268094               3.4507
        29                          0.1375735               3.7436
        30                          0.1495507               4.0695
       ...                                ...                  ...
        40                          0.3139983               8.5443
      -------------------------------------------------------------
                  HL-Gap            0.2541465 Eh            6.9157 eV
             Fermi-level           -0.2840022 Eh           -7.7281 eV

     #   Z          covCN         q      C6AA      α(0)
     1   6 C        3.752    -0.111    22.687     6.792
     2   6 C        3.800    -0.059    21.643     6.624
     3   6 C        3.802    -0.064    21.730     6.637
     4   6 C        3.824    -0.070    21.827     6.648
     5   6 C        3.713     0.026    20.261     6.432
     6  17 Cl       0.910    -0.266   107.615    15.870
     7   1 H        0.925     0.035     2.514     2.479
     8   1 H        0.925     0.038     2.474     2.460
     9   1 H        0.925     0.037     2.485     2.465
    10   1 H        0.924     0.033     2.548     2.496
    11   1 H        0.924     0.036     2.501     2.473
    12   1 H        0.924     0.040     2.447     2.446
    13   1 H        0.924     0.042     2.417     2.431
    14   1 H        0.924     0.058     2.228     2.334
    15   1 H        0.924     0.065     2.141     2.288
    16   1 H        0.925     0.081     1.973     2.197
    17   1 H        0.925     0.080     1.977     2.199

 Mol. C6AA /au·bohr⁶  :       2535.792082
 Mol. C8AA /au·bohr⁸  :      62578.255886
 Mol. α(0) /au        :         75.272204


Wiberg/Mayer (AO) data.
largest (>0.10) Wiberg bond orders for each atom

 ---------------------------------------------------------------------------
     #   Z sym  total        # sym  WBO       # sym  WBO       # sym  WBO
 ---------------------------------------------------------------------------
     1   6 C    3.996 --     2 C    1.019     7 H    0.988     9 H    0.988
                             8 H    0.987
     2   6 C    3.998 --     1 C    1.019     3 C    1.009    11 H    0.978
                            10 H    0.976
     3   6 C    3.996 --     2 C    1.009     4 C    1.007    13 H    0.976
                            12 H    0.975
     4   6 C    3.991 --     5 C    1.020     3 C    1.007    14 H    0.974
                            15 H    0.963
     5   6 C    3.911 --     4 C    1.020    17 H    0.977    16 H    0.974
                             6 Cl   0.918
     6  17 Cl   0.962 --     5 C    0.918
     7   1 H    0.999 --     1 C    0.988
     8   1 H    0.998 --     1 C    0.987
     9   1 H    0.999 --     1 C    0.988
    10   1 H    0.999 --     2 C    0.976
    11   1 H    0.999 --     2 C    0.978
    12   1 H    0.998 --     3 C    0.975
    13   1 H    0.998 --     3 C    0.976
    14   1 H    0.996 --     4 C    0.974
    15   1 H    0.996 --     4 C    0.963
    16   1 H    0.994 --     5 C    0.974
    17   1 H    0.993 --     5 C    0.977
 ---------------------------------------------------------------------------

Topologies differ in total number of bonds
Writing topology from bond orders to xtbtopo.mol

molecular dipole:
                 x           y           z       tot (Debye)
 q only:        0.679       0.918       0.240
   full:        0.554       0.811       0.243       2.572
molecular quadrupole (traceless):
                xx          xy          yy          xz          yz          zz
 q only:       -3.309      -3.538       1.707      -1.111       0.460       1.601
  q+dip:       -3.378      -3.050       1.435      -0.954       0.053       1.943
   full:       -3.197      -2.862       1.703      -0.876       0.477       1.493

           -------------------------------------------------
          |                Geometry Summary                 |
           -------------------------------------------------

      molecular mass/u    :      106.5939653
   center of mass at/Å    :       -0.0005298       0.0025912       0.0063477
  moments of inertia/u·Å² :        0.9520723E+02   0.4139096E+03   0.4553043E+03
rotational constants/cm⁻¹ :        0.1770625E+00   0.4072781E-01   0.3702498E-01

 * 16 selected distances

     #   Z          #   Z                                           value/Å
     1   6 C        2   6 C                                       1.5244334
     2   6 C        3   6 C                                       1.5277474
     3   6 C        4   6 C                                       1.5295551
     4   6 C        5   6 C                                       1.5186251
     5   6 C        6  17 Cl                                      1.8010421 (max)
     1   6 C        7   1 H                                       1.0878542
     1   6 C        8   1 H                                       1.0872239 (min)
     1   6 C        9   1 H                                       1.0877079
     2   6 C       10   1 H                                       1.0911173
     2   6 C       11   1 H                                       1.0921590
     3   6 C       12   1 H                                       1.0919622
     3   6 C       13   1 H                                       1.0918727
     4   6 C       14   1 H                                       1.0913334
     4   6 C       15   1 H                                       1.0920060
     5   6 C       16   1 H                                       1.0874526
     5   6 C       17   1 H                                       1.0882814

 * 3 distinct bonds (by element types)

   Z      Z             #   av. dist./Å        max./Å        min./Å
   1 H    6 C          11     1.0899064     1.0921590     1.0872239
   6 C    6 C           4     1.5250902     1.5295551     1.5186251
   6 C   17 Cl          1     1.8010421     1.8010421     1.8010421

           -------------------------------------------------
          |               Frequency Printout                |
           -------------------------------------------------
 projected vibrational frequencies (cm⁻¹)
eigval :       -0.00    -0.00    -0.00     0.00     0.00     0.00
eigval :       41.63    63.48   163.17   212.59   238.03   291.81
eigval :      378.82   472.74   647.64   770.59   817.06   887.02
eigval :      920.74   952.93  1003.82  1080.16  1094.55  1100.70
eigval :     1126.77  1162.49  1212.79  1246.20  1257.22  1285.10
eigval :     1306.63  1342.61  1370.81  1412.70  1425.24  1459.33
eigval :     1486.68  1491.21  1500.64  1503.64  2963.75  2971.19
eigval :     2974.96  2984.76  2986.24  2990.37  2996.82  3008.00
eigval :     3024.73  3028.39  3038.27
 reduced masses (amu)
   1: 25.94   2: 11.74   3: 18.03   4: 22.67   5: 10.59   6: 16.70   7: 15.21   8: 10.71
   9: 10.22  10: 12.49  11:  3.52  12:  7.98  13: 10.25  14:  8.88  15: 15.72  16:  2.77
  17:  4.45  18:  5.53  19:  6.04  20:  4.91  21:  5.56  22:  6.96  23:  4.30  24:  4.86
  25:  8.46  26:  5.60  27:  4.79  28:  3.51  29:  2.91  30:  1.87  31:  3.61  32:  4.69
  33:  5.18  34:  3.17  35:  2.00  36:  1.94  37:  1.98  38:  1.85  39:  1.53  40:  1.59
  41:  1.90  42:  1.88  43:  1.93  44:  1.58  45:  1.54  46:  1.59  47:  1.68  48:  1.80
  49:  1.95  50:  1.91  51:  1.28
 IR intensities (km·mol⁻¹)
   1:  0.45   2:  0.19   3:  1.54   4:  0.17   5:  0.07   6:  0.37   7:  1.29   8:  0.65
   9:  1.29  10:  1.42  11:  0.26  12:  0.91  13:  0.80  14:  0.60  15:  2.33  16: 18.13
  17:  4.71  18:  0.80  19:  2.34  20:  7.85  21:  4.54  22:  0.19  23:  1.39  24:  0.72
  25:  2.44  26:  1.74  27:  1.08  28: 20.07  29:  5.88  30:  0.72  31:  2.98  32:  2.17
  33:  0.69  34:  0.13  35:  3.98  36:  3.05  37:  2.41  38:  1.61  39:  1.23  40:  0.36
  41: 14.06  42: 19.06  43:114.78  44: 50.47  45: 51.95  46: 69.00  47: 13.69  48: 20.29
  49: 94.06  50: 88.39  51: 44.55
 Raman intensities (Ä⁴*amu⁻¹)
   1:  0.00   2:  0.00   3:  0.00   4:  0.00   5:  0.00   6:  0.00   7:  0.00   8:  0.00
   9:  0.00  10:  0.00  11:  0.00  12:  0.00  13:  0.00  14:  0.00  15:  0.00  16:  0.00
  17:  0.00  18:  0.00  19:  0.00  20:  0.00  21:  0.00  22:  0.00  23:  0.00  24:  0.00
  25:  0.00  26:  0.00  27:  0.00  28:  0.00  29:  0.00  30:  0.00  31:  0.00  32:  0.00
  33:  0.00  34:  0.00  35:  0.00  36:  0.00  37:  0.00  38:  0.00  39:  0.00  40:  0.00
  41:  0.00  42:  0.00  43:  0.00  44:  0.00  45:  0.00  46:  0.00  47:  0.00  48:  0.00
  49:  0.00  50:  0.00  51:  0.00
 output can be read by thermo (or use thermo option).
 writing <g98.out> molden fake output.
 recommended (thermochemical) frequency scaling factor: 1.0
           -------------------------------------------------
          |             Thermodynamic Functions             |
           -------------------------------------------------

Molecule has no symmetry elements
It seems to be the C1 point group
c1  symmetry found (for desy threshold:  0.10E+00) used in thermo

          ...................................................
          :                      SETUP                      :
          :.................................................:
          :  # frequencies                          45      :
          :  # imaginary freq.                       0      :
          :  linear?                             false      :
          :  only rotor calc.                    false      :
          :  symmetry                               c1      :
          :  rotational number                       1      :
          :  scaling factor                  1.0000000      :
          :  rotor cutoff                    0.0000000 cm⁻¹ :
          :  imag. cutoff                 -100.0000000 cm⁻¹ :
          :.................................................:

    mode    ω/cm⁻¹     T·S(HO)/kcal·mol⁻¹    T·S(FR)/kcal·mol⁻¹   T·S(vib)
   ------------------------------------------------------------------------
       1     41.63    -1.54445 (100.00%)    -1.11047 (  0.00%)    -1.54445
       2     63.48    -1.29576 (100.00%)    -0.98559 (  0.00%)    -1.29576
       3    163.17    -0.74917 (100.00%)    -0.70607 (  0.00%)    -0.74917
       4    212.59    -0.60265 (100.00%)    -0.62771 (  0.00%)    -0.60265
       5    238.03    -0.54190 (100.00%)    -0.59423 (  0.00%)    -0.54190
       6    291.81    -0.43632 (100.00%)    -0.53390 (  0.00%)    -0.43632
   ------------------------------------------------------------------------

   temp. (K)  partition function   enthalpy   heat capacity  entropy
                                   cal/mol     cal/K/mol   cal/K/mol   J/K/mol
 298.15  VIB   183.                 3173.555     21.041     20.995
         ROT  0.324E+06              888.752      2.981     28.194
         INT  0.592E+08             4062.307     24.022     49.189
         TR   0.106E+28             1481.254      4.968     39.890
         TOT                        5543.5609    28.9903    89.0788   372.7059

       T/K    H(0)-H(T)+PV         H(T)/Eh          T*S/Eh         G(T)/Eh
   ------------------------------------------------------------------------
    298.15    0.883423E-02    0.158499E+00    0.423242E-01    0.116174E+00
   ------------------------------------------------------------------------

         :::::::::::::::::::::::::::::::::::::::::::::::::::::
         ::                  THERMODYNAMIC                  ::
         :::::::::::::::::::::::::::::::::::::::::::::::::::::
         :: total free energy         -20.757621856461 Eh   ::
         ::.................................................::
         :: total energy              -20.873796194961 Eh   ::
         :: zero point energy           0.149664346324 Eh   ::
         :: G(RRHO) w/o ZPVE           -0.033490007824 Eh   ::
         :: G(RRHO) contrib.            0.116174338500 Eh   ::
         :::::::::::::::::::::::::::::::::::::::::::::::::::::

optimized geometry written to: xtbopt.coord


           -------------------------------------------------
          | TOTAL ENERGY              -20.873796194961 Eh   |
          | TOTAL ENTHALPY            -20.715297622079 Eh   |
          | TOTAL FREE ENERGY         -20.757621856461 Eh   |
          | GRADIENT NORM               0.000037661612 Eh/α |
          | HOMO-LUMO GAP               6.915678740749 eV   |
           -------------------------------------------------

------------------------------------------------------------------------
 * finished run on 2025/04/11 at 16:00:45.743     
------------------------------------------------------------------------
 total:
 * wall-time:     0 d,  0 h,  0 min,  1.167 sec
 *  cpu-time:     0 d,  0 h,  0 min,  1.074 sec
 * ratio c/w:     0.920 speedup
 SCF:
 * wall-time:     0 d,  0 h,  0 min,  0.023 sec
 *  cpu-time:     0 d,  0 h,  0 min,  0.013 sec
 * ratio c/w:     0.558 speedup
 ANC optimizer:
 * wall-time:     0 d,  0 h,  0 min,  0.219 sec
 *  cpu-time:     0 d,  0 h,  0 min,  0.204 sec
 * ratio c/w:     0.933 speedup
 analytical hessian:
 * wall-time:     0 d,  0 h,  0 min,  0.856 sec
 *  cpu-time:     0 d,  0 h,  0 min,  0.844 sec
 * ratio c/w:     0.986 speedup

