17
 energy: -20.872308272766 gnorm: 0.026171212939 xtb: 6.7.1 (edcfbbe)
C            3.13022610797762       -0.77685331462754        0.13346918950315
C            1.91675293249813        0.08094017548120        0.48062860415730
C            1.02894361627055        0.33953562865720       -0.73605802021336
C           -0.15387753632858        1.27007661133182       -0.46782839241116
C           -1.11770720072026        0.81835861802676        0.60558355714995
Cl          -1.91380310554388       -0.79545897171789        0.17993420283548
H            2.82050202629950       -1.75508373364543       -0.25157085996284
H            3.76399977579199       -0.94808688019517        1.00965350000607
H            3.74433793547273       -0.29553039593933       -0.63609779704152
H            1.33768966443625       -0.41703353109281        1.26828743992068
H            2.24793445776967        1.04163047230074        0.89722245652203
H            0.66214285490840       -0.61736837458519       -1.12895133339032
H            1.63748446490399        0.78707014486864       -1.53212319743341
H           -0.70617678405571        1.45191106801133       -1.39653131731472
H            0.22096983096422        2.24680763627291       -0.12747988715496
H           -0.63552530885439        0.65568131271821        1.57042576251027
H           -1.94305217394961        1.52145112169900        0.72652691411078
17
 energy: -20.873333126860 gnorm: 0.013773177760 xtb: 6.7.1 (edcfbbe)
C            3.12172978272242       -0.77090546841432        0.12884540130164
C            1.91369161512373        0.08512183155984        0.48401264535269
C            1.02561766473308        0.33394631526239       -0.73260949259724
C           -0.14502696731341        1.27765310227591       -0.46073066653523
C           -1.11189367006666        0.81594919900574        0.60718516774019
Cl          -1.89043735114363       -0.77807314651171        0.16488597556534
H            2.80619345068532       -1.74226589498078       -0.25226136081986
H            3.74707845150529       -0.93689018736579        1.00502109258878
H            3.72843506636763       -0.28701959962036       -0.63652823419236
H            1.33997299133653       -0.42165515478727        1.26444352675171
H            2.25346360257417        1.04334602271971        0.88941407783748
H            0.64567485527817       -0.62213698895698       -1.10549904553216
H            1.63362555800873        0.77390307120798       -1.52869227448893
H           -0.69218984638957        1.43913434278680       -1.39278267555748
H            0.23941149596648        2.24875260696161       -0.12882001478280
H           -0.63146954243582        0.64036069508615        1.56675377191625
H           -1.94303559911184        1.50882684133552        0.72245292724541
17
 energy: -20.873624512787 gnorm: 0.004860835126 xtb: 6.7.1 (edcfbbe)
C            3.12136078733444       -0.76833228663671        0.12696470043516
C            1.91341924474534        0.08677125108271        0.48769091717382
C            1.02076279818066        0.32984021839972       -0.72705515611488
C           -0.14346031641714        1.28457268568660       -0.45846685147237
C           -1.11332842134248        0.81014490867100        0.60506188235154
Cl          -1.87350443664744       -0.76571862570196        0.14519136332106
H            2.80128216027198       -1.73457745535209       -0.25408354025943
H            3.74513363451303       -0.93348801717203        1.00085295122220
H            3.72072512240835       -0.28109620972627       -0.63732886948910
H            1.34506310714317       -0.42272110114270        1.26633674491379
H            2.25392884342210        1.04483523821733        0.88486414709556
H            0.62875475839413       -0.62579886023457       -1.08126369240295
H            1.62744366327630        0.75660599782753       -1.52816623667308
H           -0.68804827944824        1.43982293960090       -1.39105531660546
H            0.24870361181683        2.24856269492861       -0.12759396356168
H           -0.62721580357922        0.63309262403891        1.55972998050249
H           -1.94017891623117        1.50553158507746        0.72341176135674
17
 energy: -20.873675221504 gnorm: 0.002260068046 xtb: 6.7.1 (edcfbbe)
C            3.12321093687871       -0.76649308973243        0.12574446655378
C            1.91426935272811        0.08807631435298        0.48930962064069
C            1.01903186561050        0.32588180096260       -0.72543629593236
C           -0.14227352437846        1.28558866183615       -0.45753448489246
C           -1.11679958061551        0.80654826836166        0.60285075562854
Cl          -1.87727427120038       -0.75922344939076        0.13568109721907
H            2.80240984488979       -1.73257727625342       -0.25589647482426
H            3.74858834835485       -0.93223932313192        0.99864687609659
H            3.72079853212004       -0.27764354490959       -0.63929355711592
H            1.34919927115340       -0.42082496946773        1.27075423141636
H            2.25367512922888        1.04751209656150        0.88389474126821
H            0.62204876985417       -0.63033389963686       -1.07187642449028
H            1.62451753350070        0.74477468796568       -1.53148241303583
H           -0.68462978777809        1.44534471431708       -1.39048321210884
H            0.25194598865651        2.24676111729408       -0.12281183581312
H           -0.62874979737045        0.62938654104405        1.55727675532372
H           -1.93912705379213        1.50750893739136        0.72574697585951
17
 energy: -20.873701734985 gnorm: 0.001417741941 xtb: 6.7.1 (edcfbbe)
C            3.12686655311039       -0.76430361232860        0.12479720120835
C            1.91642867638338        0.08872669348224        0.48935659590381
C            1.01660385671307        0.32101382135478       -0.72341224860659
C           -0.14144956940852        1.28505552281717       -0.45646871062133
C           -1.12147682747102        0.80436165173689        0.60046255664748
Cl          -1.88830893901417       -0.75152403889141        0.12547304894602
H            2.80679637589205       -1.73110147645076       -0.25754088094672
H            3.75447861758776       -0.93052684906419        0.99680909167267
H            3.72341010838689       -0.27410773566919       -0.64115028915555
H            1.35498764648954       -0.41839677426661        1.27527761105914
H            2.25415386273269        1.05044959135729        0.88098716378136
H            0.61570263485046       -0.63636031182476       -1.06256926940818
H            1.62014970544942        0.73213138476267       -1.53525252964085
H           -0.68101811769391        1.45299557004219       -1.38999906410315
H            0.25502996043274        2.24331862417958       -0.11536153942497
H           -0.63334273614607        0.62376952792856        1.55539717404985
H           -1.93817025045409        1.51254599839861        0.72828491043204
17
 energy: -20.873719466847 gnorm: 0.001819316767 xtb: 6.7.1 (edcfbbe)
C            3.13074488047368       -0.76138174836832        0.12346993229403
C            1.91912091961061        0.08930229250302        0.48862075818212
C            1.01399553499920        0.31522329337204       -0.72129263094276
C           -0.13983822489564        1.28337208080862       -0.45426959811017
C           -1.12576678182367        0.80372308246924        0.59840569263027
Cl          -1.90504520438250       -0.74238902792574        0.11450092856216
H            2.81304341440266       -1.72925379038783       -0.25944936361333
H            3.75964359154927       -0.92725934940916        0.99512801631540
H            3.72701052565404       -0.27004203177954       -0.64262577047070
H            1.36159325255852       -0.41546544808673        1.27959012058058
H            2.25523426144481        1.05376991023935        0.87623440050672
H            0.60943017096704       -0.64358915815857       -1.05290857214220
H            1.61453839790940        0.71913384606775       -1.53936573838980
H           -0.67635247545479        1.46012786413996       -1.38838496962168
H            0.25966266329954        2.23864517691526       -0.10661470461535
H           -0.63985223310378        0.61502760640226        1.55368563294842
H           -1.93632113536775        1.51910298876284        0.73036668767970
17
 energy: -20.873734896571 gnorm: 0.001276555421 xtb: 6.7.1 (edcfbbe)
C            3.13356425405238       -0.75898533497068        0.12256852166873
C            1.92119680931125        0.08959276493475        0.48781141884450
C            1.01176777801480        0.31084555643495       -0.71947515770427
C           -0.13867361080108        1.28208648766469       -0.45216135069063
C           -1.12780097355449        0.80476049342461        0.59764854812357
Cl          -1.91857061478832       -0.73469831050234        0.10526839906430
H            2.81785526575121       -1.72715271448054       -0.26096625114101
H            3.76235845783779       -0.92425664809031        0.99431892968921
H            3.72949837648124       -0.26649199943445       -0.64291555173373
H            1.36659094531654       -0.41359504917161        1.28186425925255
H            2.25648438842530        1.05590529411156        0.87161367412652
H            0.60454454988220       -0.64890944680008       -1.04513784121384
H            1.60972093428788        0.70999163825586       -1.54172235260908
H           -0.67317852744699        1.46357483529093       -1.38652583254493
H            0.26403234201773        2.23503494900201       -0.10139700869352
H           -0.64453748866642        0.60620043954176        1.55212818477752
H           -1.93401132828040        1.52414463235336        0.73217023257749
17
 energy: -20.873748304478 gnorm: 0.000505611551 xtb: 6.7.1 (edcfbbe)
C            3.13646640387515       -0.75620868687879        0.12134501135314
C            1.92325822833114        0.09041098632687        0.48802519057186
C            1.00944222318133        0.30584336259462       -0.71712800802833
C           -0.13741599736835        1.28137058798387       -0.44991281752078
C           -1.12970567615574        0.80559653938344        0.59677026930754
Cl          -1.93366367557343       -0.72495716756264        0.09320247049385
H            2.82214104624165       -1.72428413804757       -0.26279552969017
H            3.76533298594113       -0.92088471068815        0.99285278272059
H            3.73121237860096       -0.26204897327909       -0.64363461192346
H            1.37238302712213       -0.41141006108026        1.28525048831454
H            2.25789301212247        1.05861611190436        0.86700970746293
H            0.59849069754619       -0.65478464739314       -1.03496878358218
H            1.60471959610316        0.69893608997403       -1.54402574196194
H           -0.66978893811539        1.46619008739316       -1.38462661560111
H            0.26928620249992        2.23171262848924       -0.09727975728753
H           -0.64855752226282        0.59456868648141        1.54915967233966
H           -1.93065243424889        1.52938089196312        0.73584709482480
17
 energy: -20.873756209322 gnorm: 0.000491771246 xtb: 6.7.1 (edcfbbe)
C            3.13910151304860       -0.75430875782035        0.12061548265512
C            1.92527320496892        0.09123146970756        0.48835500070428
C            1.00766807098674        0.30216659936129       -0.71483116488326
C           -0.13716525385417        1.28067718564154       -0.44864933649232
C           -1.13148555372920        0.80604870404382        0.59617948019075
Cl          -1.94662660147909       -0.71595750373564        0.08196890338188
H            2.82501469126844       -1.72250476018312       -0.26307729973272
H            3.76916619824619       -0.91817769078975        0.99133880570464
H            3.73203427008158       -0.25939132267891       -0.64512101257046
H            1.37757426054833       -0.40930210615072        1.28834017130828
H            2.25956482480747        1.06085472373149        0.86353963857173
H            0.59428370859139       -0.65908975224076       -1.02672790145784
H            1.60110149257032        0.69050418143413       -1.54502333005657
H           -0.66787395572890        1.46761306904510       -1.38378658010543
H            0.27200578645352        2.22931345261739       -0.09487989304770
H           -0.65123514510592        0.58442603874928        1.54637619352089
H           -1.92755995383359        1.53394405683211        0.74047366410210
17
 energy: -20.873761256480 gnorm: 0.000475788715 xtb: 6.7.1 (edcfbbe)
C            3.14032462063590       -0.75316595210500        0.11991014938469
C            1.92667211886849        0.09231858016270        0.48894887066516
C            1.00707688984168        0.30004222668165       -0.71332902441781
C           -0.13662621811622        1.28019942351468       -0.44769571128653
C           -1.13278404237003        0.80557878103367        0.59535932563350
Cl          -1.95659313833739       -0.70946664648528        0.07459499737146
H            2.82614936217119       -1.72202248663692       -0.26200346444114
H            3.77191471982784       -0.91553274126036        0.98975960704369
H            3.73171573942333       -0.25887242556869       -0.64739602054668
H            1.38108783305847       -0.40692756192221        1.29115669004741
H            2.26116165122590        1.06290509865739        0.86139238762119
H            0.59227402245335       -0.66177841646648       -1.02145224245142
H            1.59921997941927        0.68553643696200       -1.54570648372704
H           -0.66625269757585        1.46798782118448       -1.38320915168874
H            0.27344105768424        2.22819014261471       -0.09333390172261
H           -0.65301547353125        0.57627946733596        1.54384450197283
H           -1.92492486683829        1.53677583986217        0.74425029233542
17
 energy: -20.873765493935 gnorm: 0.000326821316 xtb: 6.7.1 (edcfbbe)
C            3.14118168684763       -0.75278253635202        0.11976037450001
C            1.92811813972988        0.09346748558043        0.48909604664696
C            1.00664444789757        0.29891503097249       -0.71215167386050
C           -0.13675926585288        1.27962060160619       -0.44709132782521
C           -1.13384007180569        0.80487727649661        0.59508501342581
Cl          -1.96391087826524       -0.70399857758108        0.06741982810325
H            2.82625143978649       -1.72268376535264       -0.25895522200520
H            3.77489751714783       -0.91280439576936        0.98855061333809
H            3.73066535538639       -0.26034613897420       -0.65025091307858
H            1.38394442685415       -0.40412290355345        1.29329407625773
H            2.26327577674074        1.06475151920836        0.85918265952770
H            0.59135287516765       -0.66343193718188       -1.01798590965505
H            1.59785553478640        0.68273813057915       -1.54596123587717
H           -0.66568378079623        1.46811283584865       -1.38290176542852
H            0.27347971914650        2.22731434589229       -0.09211098868869
H           -0.65403461007375        0.56950859851760        1.54206506704810
H           -1.92259675485680        1.53891201762733        0.74804617936466
17
 energy: -20.873769480669 gnorm: 0.000164561207 xtb: 6.7.1 (edcfbbe)
C            3.14161313823747       -0.75300310949812        0.11983191039822
C            1.92974009774103        0.09504090635751        0.48895045315186
C            1.00657238870312        0.29854826116983       -0.71130792899470
C           -0.13676469286418        1.27932955434627       -0.44635299009693
C           -1.13486365487730        0.80357543865948        0.59457106701333
Cl          -1.97102697817123       -0.69957914427950        0.06120682254775
H            2.82544060456154       -1.72455760692186       -0.25376473656112
H            3.77803916539152       -0.90937906203550        0.98738102628625
H            3.72888695853375       -0.26402462530085       -0.65416161946454
H            1.38649014246152       -0.40003093610565        1.29537721865954
H            2.26615844519073        1.06701799488903        0.85622210931037
H            0.59130727685058       -0.66435630277013       -1.01557459471849
H            1.59681656396351        0.68138074067325       -1.54630614113771
H           -0.66522322987031        1.46875603170887       -1.38228251049160
H            0.27338464849340        2.22678632377980       -0.09046091212682
H           -0.65514814436292        0.56248222905309        1.54021315927655
H           -1.92058117214159        1.54006089383895        0.75154848874143
17
 energy: -20.873773396082 gnorm: 0.000217074121 xtb: 6.7.1 (edcfbbe)
C            3.14145620944064       -0.75366488937599        0.11991649445379
C            1.93154045699394        0.09731613494638        0.48863444363464
C            1.00668311493679        0.29845309956469       -0.71075537811024
C           -0.13668932749319        1.27899462802115       -0.44525094427639
C           -1.13589167411218        0.80208589690590        0.59421515703583
Cl          -1.97656644323815       -0.69573543269078        0.05396825109177
H            2.82355650411897       -1.72739063554482       -0.24667514455275
H            3.78101110491480       -0.90514198493128        0.98605655098776
H            3.72626775994545       -0.26969679792922       -0.65916148524825
H            1.38910604516843       -0.39434008711781        1.29777756006209
H            2.27003104255988        1.07000019258222        0.85229533488125
H            0.59141168373981       -0.66511259858824       -1.01333050967729
H            1.59566540838390        0.68051786208014       -1.54711540914655
H           -0.66453155466464        1.46991013944002       -1.38126903256575
H            0.27323279191638        2.22598132499705       -0.08776711452008
H           -0.65644889154741        0.55528266028043        1.53857679522052
H           -1.91899267322280        1.54058807492462        0.75497525252302
17
 energy: -20.873777291329 gnorm: 0.000320764473 xtb: 6.7.1 (edcfbbe)
C            3.14132601746051       -0.75483096209637        0.12021249822343
C            1.93381977723048        0.09993689219600        0.48795468429114
C            1.00662891295655        0.29876644139556       -0.70998825944233
C           -0.13664785484691        1.27925780903002       -0.44397483944294
C           -1.13699870140114        0.80010746494264        0.59345269479066
Cl          -1.98190502308545       -0.69275829892894        0.04692330934588
H            2.82090920667673       -1.73079590765345       -0.23820619352364
H            3.78450646603428       -0.90083711691227        0.98464760859535
H            3.72321555243384       -0.27690531728987       -0.66482092384842
H            1.39215674517585       -0.38741611864222        1.30022371764616
H            2.27502236575853        1.07333481543702        0.84717237963059
H            0.59141161537378       -0.66545326241771       -1.01065061919073
H            1.59410522017463        0.67994786850772       -1.54782313608855
H           -0.66371173710689        1.47218040611561       -1.38004589961590
H            0.27326549162494        2.22544629283529       -0.08428562593257
H           -0.65822589749705        0.54804664532723        1.53674756011385
H           -1.91803659912206        1.54001993571822        0.75755186624139
17
 energy: -20.873781230963 gnorm: 0.000317222575 xtb: 6.7.1 (edcfbbe)
C            3.14086067082509       -0.75627923663495        0.12033051286292
C            1.93643126134561        0.10319257925376        0.48725355862239
C            1.00675450441889        0.29916546012273       -0.70921658499822
C           -0.13649792965444        1.27944737385298       -0.44226509240461
C           -1.13844366884559        0.79822060575459        0.59268559541166
Cl          -1.98609185751452       -0.69052561063511        0.03906459331807
H            2.81739423507856       -1.73444462433871       -0.22927645332961
H            3.78776798501942       -0.89673995861387        0.98289183587718
H            3.71991195876605       -0.28519318443900       -0.67093522479582
H            1.39563496761870       -0.37897636113907        1.30321296574620
H            2.28095867748577        1.07739425283622        0.84114317688733
H            0.59135382399394       -0.66577672162863       -1.00731005408406
H            1.59241890015302        0.67899975213548       -1.54897159923950
H           -0.66246142577537        1.47497276621894       -1.37840465979632
H            0.27344867291630        2.22457569183867       -0.07987812464270
H           -0.66063468327963        0.54088851330474        1.53508371317833
H           -1.91796453471117        1.53912628967569        0.75968266318015
17
 energy: -20.873785468116 gnorm: 0.000282554262 xtb: 6.7.1 (edcfbbe)
C            3.14019172901932       -0.75807743471537        0.12033785433010
C            1.93974797216936        0.10729369054555        0.48645952681886
C            1.00667627536998        0.29950361266074       -0.70801297025984
C           -0.13621445801295        1.27999793277969       -0.44018546310797
C           -1.14005095108975        0.79593068529177        0.59157476643339
Cl          -1.98987640019114       -0.68868801732864        0.03003570616536
H            2.81266115821009       -1.73826533690735       -0.21963472815311
H            3.79115811187234       -0.89302954973970        0.98067703596658
H            3.71626765392391       -0.29482665063568       -0.67768016035582
H            1.40024216808841       -0.36844157697703        1.30705383903712
H            2.28860645891395        1.08237985174365        0.83365609121958
H            0.59082833892179       -0.66636897286094       -1.00256287511627
H            1.58992106283231        0.67751083354281       -1.55025294354706
H           -0.66061904383734        1.47875920874664       -1.37652164231901
H            0.27376882660705        2.22371057451145       -0.07417651223189
H           -0.66393496214731        0.53333703192345        1.53335928232337
H           -1.91853238280939        1.53732170498343        0.76096401459000
17
 energy: -20.873789999465 gnorm: 0.000254751065 xtb: 6.7.1 (edcfbbe)
C            3.13941014134905       -0.76053544784384        0.12028721289997
C            1.94434373931648        0.11272164399511        0.48532584333358
C            1.00675189319625        0.30020017033141       -0.70627389357958
C           -0.13593814255155        1.28059965513449       -0.43729054843379
C           -1.14268104998490        0.79312257975739        0.58998662840568
Cl          -1.99441990507746       -0.68693823034467        0.01881304601436
H            2.80619220995687       -1.74269703337687       -0.20826470540536
H            3.79519718358968       -0.88959173140599        0.97784940779351
H            3.71214539845961       -0.30705969598884       -0.68572314321798
H            1.40658848822680       -0.35419718171686        1.31212699790395
H            2.29892637972447        1.08898318940584        0.82331854626914
H            0.59027966011195       -0.66688810533984       -0.99570619280917
H            1.58685542769873        0.67523142064419       -1.55200116740555
H           -0.65817134010562        1.48360417807696       -1.37388284315262
H            0.27420116281370        2.22241494329210       -0.06669548250454
H           -0.66875410163928        0.52401160551917        1.53104981282093
H           -1.92008558724416        1.53506562742471        0.76217130286081
17
 energy: -20.873793687844 gnorm: 0.000262881309 xtb: 6.7.1 (edcfbbe)
C            3.13823597399571       -0.76338026049072        0.12017749041983
C            1.94995273669628        0.11965031345063        0.48405871346423
C            1.00659681148743        0.30057466817923       -0.70408468135512
C           -0.13555298545802        1.28135366077061       -0.43392970999795
C           -1.14533500152172        0.78952807413482        0.58822621852400
Cl          -1.99986391547264       -0.68464265005144        0.00490194043301
H            2.79812570037454       -1.74740006727344       -0.19563648584246
H            3.79926809072399       -0.88650468185963        0.97454611859629
H            3.70766869419720       -0.32134528113731       -0.69451750472901
H            1.41456181704525       -0.33640748452877        1.31848267885032
H            2.31163393772440        1.09720928371489        0.81080034658604
H            0.58953452910284       -0.66807113048274       -0.98737559885872
H            1.58260261366217        0.67221139072494       -1.55402530772540
H           -0.65520631017052        1.48936003136033       -1.37085421510212
H            0.27443405005401        2.22101476586971       -0.05773737403511
H           -0.67426713318977        0.51292256212944        1.52861255844069
H           -1.92154805141051        1.53197439305389        0.76344563412487
17
 energy: -20.873795618175 gnorm: 0.000330412230 xtb: 6.7.1 (edcfbbe)
C            3.13708779376324       -0.76670973848377        0.12027914141224
C            1.95669060008458        0.12758733997425        0.48224239555146
C            1.00664454603291        0.30139397163528       -0.70155696000246
C           -0.13527959092680        1.28206452654142       -0.43000731780471
C           -1.14902211565874        0.78548066833935        0.58594986004303
Cl          -2.00638103495554       -0.68155414326252       -0.01082655944191
H            2.78867730165535       -1.75229968860224       -0.18134331359939
H            3.80387282058611       -0.88369972097785        0.97103188291877
H            3.70285026486814       -0.33772980092448       -0.70394631118051
H            1.42425003093257       -0.31543734839075        1.32559981325305
H            2.32661020645792        1.10654947015616        0.79535671301881
H            0.58871001662712       -0.66917073585430       -0.97703756438010
H            1.57789491900613        0.66858339885849       -1.55666501370662
H           -0.65194884418094        1.49582891710664       -1.36726488230027
H            0.27467466195620        2.21912846246159       -0.04738905057523
H           -0.68099702428711        0.49927524095719        1.52505778844183
H           -1.92349299412050        1.52875676802997        0.76561020014539
17
 energy: -20.873795953994 gnorm: 0.000133200740 xtb: 6.7.1 (edcfbbe)
C            3.13672077637780       -0.76727203439542        0.12042203327339
C            1.95801153389805        0.12936667485959        0.48175410972767
C            1.00662995956008        0.30141481418404       -0.70113364202269
C           -0.13527381602216        1.28201613505820       -0.42922242707092
C           -1.14939073237897        0.78439024626448        0.58575836199746
Cl          -2.00852062984455       -0.68042596301616       -0.01442681728428
H            2.78681678516251       -1.75282658279501       -0.17887242659334
H            3.80420966370507       -0.88361050451916        0.97063372662015
H            3.70219904361978       -0.34079454326707       -0.70501732640658
H            1.42618005202813       -0.31079981752006        1.32672366685408
H            2.32939959421753        1.10848894849659        0.79198430852129
H            0.58888270309874       -0.66948035239936       -0.97528278903625
H            1.57684896190404        0.66780590745244       -1.55714486350340
H           -0.65158715964152        1.49665288334179       -1.36641537755537
H            0.27446476417736        2.21874692192800       -0.04568894348489
H           -0.68162872560070        0.49625575366170        1.52429447925904
H           -1.92312121642054        1.52811910022983        0.76672474849800
17
 energy: -20.873796118683 gnorm: 0.000103747730 xtb: 6.7.1 (edcfbbe)
C            3.13647369353490       -0.76759340149453        0.12062689376054
C            1.95867297850368        0.13038918166843        0.48148216634753
C            1.00660991283059        0.30150944769573       -0.70099655224172
C           -0.13534504578405        1.28205525470520       -0.42900663343444
C           -1.14942931695298        0.78382819982140        0.58565930606749
Cl          -2.00957487222283       -0.67962083378128       -0.01628235342854
H            2.78548005084601       -1.75312509345421       -0.17744336871454
H            3.80415080724861       -0.88365145530962        0.97076653473173
H            3.70197515942624       -0.34244951436014       -0.70546927445933
H            1.42715259342707       -0.30809738279273        1.32744970242197
H            2.33105914841826        1.10966311891479        0.78988511316178
H            0.58889653815174       -0.66959962966336       -0.97442823753842
H            1.57628346269568        0.66759296080821       -1.55746773463647
H           -0.65155794374574        1.49705704755709       -1.36617282657964
H            0.27435185423338        2.21862738190397       -0.04504204294756
H           -0.68171030133393        0.49374200268718        1.52364349371282
H           -1.92264716143601        1.52772030265828        0.76788663557016
17
 energy: -20.873796194924 gnorm: 0.000037705492 xtb: 6.7.1 (edcfbbe)
C            3.13636800985287       -0.76767684736561        0.12078330157976
C            1.95863866012666        0.13054658827663        0.48140068855987
C            1.00670723156585        0.30169896750810       -0.70120023860376
C           -0.13540796583249        1.28204236134234       -0.42910088422375
C           -1.14930026993876        0.78370897221259        0.58574295858057
Cl          -2.00973219333220       -0.67954115920796       -0.01617742392620
H            2.78524013217091       -1.75314777462739       -0.17751647199387