      -----------------------------------------------------------      
     |                   =====================                   |     
     |                           x T B                           |     
     |                   =====================                   |     
     |                         S. Grimme                         |     
     |          Mulliken Center for Theoretical Chemistry        |     
     |                    University of Bonn                     |     
      -----------------------------------------------------------      

   * xtb version 6.7.1 (edcfbbe) compiled by 'albert@albert-system' on 2024-07-22

   xtb is free software: you can redistribute it and/or modify it under
   the terms of the GNU Lesser General Public License as published by
   the Free Software Foundation, either version 3 of the License, or
   (at your option) any later version.
   
   xtb is distributed in the hope that it will be useful,
   but WITHOUT ANY WARRANTY; without even the implied warranty of
   MERCHANTABILITY or FITNESS FOR A PARTICULAR PURPOSE.  See the
   GNU Lesser General Public License for more details.
   
   Cite this work as:
   * C. Bannwarth, E. Caldeweyher, S. Ehlert, A. Hansen, P. Pracht,
     J. Seibert, S. Spicher, S. Grimme, WIREs Comput. Mol. Sci., 2020, 11,
     e01493. DOI: 10.1002/wcms.1493
   
   for GFN2-xTB:
   * C. Bannwarth, S. Ehlert and S. Grimme., J. Chem. Theory Comput., 2019,
     15, 1652-1671. DOI: 10.1021/acs.jctc.8b01176
   for GFN1-xTB:
   * S. Grimme, C. Bannwarth, P. Shushkov, J. Chem. Theory Comput., 2017,
     13, 1989-2009. DOI: 10.1021/acs.jctc.7b00118
   for GFN0-xTB:
   * P. Pracht, E. Caldeweyher, S. Ehlert, S. Grimme, ChemRxiv, 2019, preprint.
     DOI: 10.26434/chemrxiv.8326202.v1
   for GFN-FF:
   * S. Spicher and S. Grimme, Angew. Chem. Int. Ed., 2020, 59, 15665-15673.
     DOI: 10.1002/anie.202004239
   
   for ALPB and GBSA implicit solvation:
   * S. Ehlert, M. Stahn, S. Spicher, S. Grimme, J. Chem. Theory Comput.,
     2021, 17, 4250-4261. DOI: 10.1021/acs.jctc.1c00471
   
   for ddCOSMO and CPCM-X implicit solvation:
   * M. Stahn, S. Ehlert, S. Grimme, J. Phys. Chem. A,
     2023, XX, XXXX-XXXX. DOI: 10.1021/acs.jpca.3c04382
   
   for DFT-D4:
   * E. Caldeweyher, C. Bannwarth and S. Grimme, J. Chem. Phys., 2017,
     147, 034112. DOI: 10.1063/1.4993215
   * E. Caldeweyher, S. Ehlert, A. Hansen, H. Neugebauer, S. Spicher,
     C. Bannwarth and S. Grimme, J. Chem. Phys., 2019, 150, 154122.
     DOI: 10.1063/1.5090222
   * E. Caldeweyher, J.-M. Mewes, S. Ehlert and S. Grimme, Phys. Chem. Chem. Phys.
     2020, 22, 8499-8512. DOI: 10.1039/D0CP00502A
   
   for sTDA-xTB:
   * S. Grimme and C. Bannwarth, J. Chem. Phys., 2016, 145, 054103.
     DOI: 10.1063/1.4959605
   
   in the mass-spec context:
   * V. Asgeirsson, C. Bauer and S. Grimme, Chem. Sci., 2017, 8, 4879.
     DOI: 10.1039/c7sc00601b
   * J. Koopman and S. Grimme, ACS Omega 2019, 4, 12, 15120-15133.
     DOI: 10.1021/acsomega.9b02011
   
   for metadynamics refer to:
   * S. Grimme, J. Chem. Theory Comput., 2019, 155, 2847-2862
     DOI: 10.1021/acs.jctc.9b00143
   
   for SPH calculations refer to:
   * S. Spicher and S. Grimme, J. Chem. Theory Comput., 2021, 17, 1701-1714
     DOI: 10.1021/acs.jctc.0c01306
   
   for ONIOM refer to:
   * C. Plett, A. Katbashev, S. Ehlert, S. Grimme, M. Bursch,
     Phys. Chem. Chem. Phys., 2023, 25, 17860-17868. DOI: 10.1039/D3CP02178E
   
   for DIPRO refer to:
   * J. Kohn, N. Gildemeister, S. Grimme, D. Fazzi, A. Hansen,
     J. Chem. Phys., 2023, just accepted.
   
   for PTB refer to:
   * S. Grimme, M. Mueller, A. Hansen, J. Chem. Phys., 2023, 158, 124111.
     DOI: 10.1063/5.0137838
   
   with help from (in alphabetical order)
   P. Atkinson, C. Bannwarth, F. Bohle, G. Brandenburg, E. Caldeweyher
   M. Checinski, S. Dohm, S. Ehlert, S. Ehrlich, I. Gerasimov, C. Hölzer
   A. Katbashev, J. Kohn, J. Koopman, C. Lavigne, S. Lehtola, F. März, M. Müller,
   F. Musil, H. Neugebauer, J. Pisarek, C. Plett, P. Pracht, F. Pultar,
   J. Seibert, P. Shushkov, S. Spicher, M. Stahn, M. Steiner, T. Strunk,
   J. Stückrath, T. Rose, and J. Unsleber
   
 * started run on 2025/04/11 at 16:00:44.575     
   ID    Z sym.   atoms
    1    6 C      1-5
    2   17 Cl     6
    3    1 H      7-17

           -------------------------------------------------
          |                Calculation Setup                |
           -------------------------------------------------

          program call               : /srv/scratch/z5358697/.xtb/bin/xtb xtb_rrho.coord --gfn2 --ohess vtight --chrg 0 --enso --norestart -I rrho-xcontrol-inp --parallel 1 --alpb water
          hostname                   : k124
          coordinate file            : xtb_rrho.coord
          omp threads                :                     1


           -------------------------------------------------
          |                 G F N 2 - x T B                 |
           -------------------------------------------------

        Reference                      10.1021/acs.jctc.8b01176
      * Hamiltonian:
        H0-scaling (s, p, d)           1.850000    2.230000    2.230000
        zeta-weighting                 0.500000
      * Dispersion:
        s8                             2.700000
        a1                             0.520000
        a2                             5.000000
        s9                             5.000000
      * Repulsion:
        kExp                           1.500000    1.000000
        rExp                           1.000000
      * Coulomb:
        alpha                          2.000000
        third order                    shell-resolved
        anisotropic                    true
        a3                             3.000000
        a5                             4.000000
        cn-shift                       1.200000
        cn-exp                         4.000000
        max-rad                        5.000000

      * Solvation model:               ALPB
        Solvent                        water
        Parameter file                 internal GFN2-xTB/ALPB
        Dielectric constant                8.0200E+01
        Reference state                gsolv [1 M gas/solution]
        Free energy shift                  1.0808E-03 Eh       6.7819E-01 kcal/mol
        Temperature                        2.9815E+02 K
        Density                            1.0000E+00 kg/L
        Solvent mass                       1.8000E+01 g/mol
        Interaction kernel             P16
        Born radius scaling (c1)           1.4744E+00
        Born radii integrator          GBOBC
        Born offset                        0.0000E+00 a0       0.0000E+00 AA
        H-bond correction              true
        Ion screening                  false
        Surface tension                    1.0000E-05 Eh       1.5569E+01 dyn/cm
        Grid points                               974 per atom

          ...................................................
          :                      SETUP                      :
          :.................................................:
          :  # basis functions                  41          :
          :  # atomic orbitals                  40          :
          :  # shells                           24          :
          :  # electrons                        38          :
          :  max. iterations                   250          :
          :  Hamiltonian                  GFN2-xTB          :
          :  restarted?                      false          :
          :  GBSA solvation                   true          :
          :  PC potential                    false          :
          :  electronic temp.          300.0000000     K    :
          :  accuracy                    1.0000000          :
          :  -> integral cutoff          0.2500000E+02      :
          :  -> integral neglect         0.1000000E-07      :
          :  -> SCF convergence          0.1000000E-05 Eh   :
          :  -> wf. convergence          0.1000000E-03 e    :
          :  Broyden damping             0.4000000          :
          :  net charge                          0          :
          :  unpaired electrons                  0          :
          ...................................................

 iter      E             dE          RMSdq      gap      omega  full diag
   1    -21.0577025 -0.210577E+02  0.320E+00    6.77       0.0  T
   2    -21.1057267 -0.480243E-01  0.174E+00    6.38       1.0  T
   3    -21.1068243 -0.109761E-02  0.869E-01    6.51       1.0  T
   4    -21.1070989 -0.274601E-03  0.130E-01    6.43       1.0  T
   5    -21.1071660 -0.670482E-04  0.579E-02    6.46       1.0  T
   6    -21.1071687 -0.271769E-05  0.199E-02    6.46       1.2  T
   7    -21.1071698 -0.112995E-05  0.130E-02    6.46       1.9  T
   8    -21.1071709 -0.109741E-05  0.775E-03    6.47       3.1  T
   9    -21.1071715 -0.603607E-06  0.271E-03    6.47       8.9  T
  10    -21.1071716 -0.384988E-07  0.525E-04    6.47      46.2  T
  11    -21.1071716 -0.899426E-09  0.315E-04    6.47      77.0  T

   *** convergence criteria satisfied after 11 iterations ***

         #    Occupation            Energy/Eh            Energy/eV
      -------------------------------------------------------------
         1        2.0000           -1.0551143             -28.7111
       ...           ...                  ...                  ...
        13        2.0000           -0.4564193             -12.4198
        14        2.0000           -0.4549074             -12.3787
        15        2.0000           -0.4286197             -11.6633
        16        2.0000           -0.4278384             -11.6421
        17        2.0000           -0.4252476             -11.5716
        18        2.0000           -0.4151128             -11.2958
        19        2.0000           -0.4130949             -11.2409 (HOMO)
        20                         -0.1751669              -4.7665 (LUMO)
        21                          0.0190767               0.5191
        22                          0.0229498               0.6245
        23                          0.0265366               0.7221
        24                          0.0267337               0.7275
       ...                                ...                  ...
        40                          0.2964722               8.0674
      -------------------------------------------------------------
                  HL-Gap            0.2379280 Eh            6.4743 eV
             Fermi-level           -0.2941309 Eh           -8.0037 eV

 SCC (total)                   0 d,  0 h,  0 min,  0.020 sec
 SCC setup                      ...        0 min,  0.001 sec (  4.945%)
 Dispersion                     ...        0 min,  0.000 sec (  0.422%)
 classical contributions        ...        0 min,  0.000 sec (  0.105%)
 integral evaluation            ...        0 min,  0.010 sec ( 48.006%)
 iterations                     ...        0 min,  0.005 sec ( 25.871%)
 molecular gradient             ...        0 min,  0.004 sec ( 19.759%)
 printout                       ...        0 min,  0.000 sec (  0.797%)

         :::::::::::::::::::::::::::::::::::::::::::::::::::::
         ::                     SUMMARY                     ::
         :::::::::::::::::::::::::::::::::::::::::::::::::::::
         :: total energy             -20.871973413628 Eh    ::
         :: total w/o Gsasa/hb       -20.871439636954 Eh    ::
         :: gradient norm              0.023904006512 Eh/a0 ::
         :: HOMO-LUMO gap              6.474349371014 eV    ::
         ::.................................................::
         :: SCC energy               -21.107138588663 Eh    ::
         :: -> isotropic ES            0.011987906598 Eh    ::
         :: -> anisotropic ES          0.001642928258 Eh    ::
         :: -> anisotropic XC          0.011524759468 Eh    ::
         :: -> dispersion             -0.010142214954 Eh    ::
         :: -> Gsolv                  -0.004300655728 Eh    ::
         ::    -> Gelec               -0.003766879055 Eh    ::
         ::    -> Gsasa               -0.000772453843 Eh    ::
         ::    -> Ghb                 -0.000842082529 Eh    ::
         ::    -> Gshift               0.001080759698 Eh    ::
         :: repulsion energy           0.235165175035 Eh    ::
         :: add. restraining           0.000000000000 Eh    ::
         :: total charge               0.000000000000 e     ::
         :::::::::::::::::::::::::::::::::::::::::::::::::::::

      ----------------------------------------------------------- 
     |                   =====================                   |
     |                        A N C O P T                        |
     |                   =====================                   |
     |               Approximate Normal Coordinate               |
     |                Rational Function Optimizer                |
      ----------------------------------------------------------- 
      ----------------------------------------------------------- 
     |                   =====================                   |
     |                        A N C O P T                        |
     |                   =====================                   |
     |               Approximate Normal Coordinate               |
     |                Rational Function Optimizer                |
      ----------------------------------------------------------- 

          ...................................................
          :                      SETUP                      :
          :.................................................:
          :   optimization level         verytight          :
          :   max. optcycles                   340          :
          :   ANC micro-cycles                  20          :
          :   degrees of freedom                45          :
          :.................................................:
          :   RF solver                   davidson          :
          :   write xtbopt.log                true          :
          :   linear?                        false          :
          :   energy convergence         0.1000000E-06 Eh   :
          :   grad. convergence          0.2000000E-03 Eh/α :
          :   maxmium RF displ.          1.0000000          :
          :   Hlow (freq-cutoff)         0.1000000E-01      :
          :   Hmax (freq-cutoff)         5.0000000          :
          :   S6 in model hess.         20.0000000          :
          ...................................................

generating ANC from exact Hessian ...
Using Lindh-Hessian (1995)
 Shifting diagonal of input Hessian by   7.859260381201331E-003
 Lowest  eigenvalues of input Hessian
    0.000000    0.000000    0.000000    0.000000    0.000000    0.000000
    0.010000    0.011706    0.012370    0.015926    0.017881    0.021784
    0.028573    0.036295    0.046498    0.051731    0.056398    0.058202
 Highest eigenvalues
    1.121562    1.146166    1.166766    1.223733    1.252491    1.264066
 

........................................................................
.............................. CYCLE    1 ..............................
........................................................................

 iter      E             dE          RMSdq      gap      omega  full diag
   1    -21.1071716 -0.211072E+02  0.112E-04    6.47       0.0  T
   2    -21.1071716 -0.418900E-10  0.809E-05    6.47     299.9  T
   3    -21.1071716 -0.158167E-10  0.629E-05    6.47     385.5  T
     SCC iter.                  ...        0 min,  0.001 sec
     gradient                   ...        0 min,  0.004 sec
 * total energy  :   -20.8719734 Eh     change       -0.2559943E-09 Eh
   gradient norm :     0.0239032 Eh/α   predicted     0.0000000E+00 (-100.00%)
   displ. norm   :     0.0963816 α      lambda       -0.1264308E-02
   maximum displ.:     0.0335232 α      in ANC's #22, #19, #13, ...

........................................................................
.............................. CYCLE    2 ..............................
........................................................................

 iter      E             dE          RMSdq      gap      omega  full diag
   1    -21.1151426 -0.211151E+02  0.107E-01    6.70       0.0  T
   2    -21.1151507 -0.805426E-05  0.657E-02    6.69       1.0  T
   3    -21.1151542 -0.353507E-05  0.211E-02    6.69       1.1  T
   4    -21.1151557 -0.149094E-05  0.159E-02    6.68       1.5  T
   5    -21.1151570 -0.133095E-05  0.111E-02    6.68       2.2  T
   6    -21.1151583 -0.126206E-05  0.288E-03    6.67       8.4  T
   7    -21.1151583 -0.338646E-07  0.728E-04    6.67      33.3  T
   8    -21.1151583 -0.167713E-08  0.317E-04    6.67      76.4  T
     SCC iter.                  ...        0 min,  0.003 sec
     gradient                   ...        0 min,  0.004 sec
 * total energy  :   -20.8728138 Eh     change       -0.8403942E-03 Eh
   gradient norm :     0.0126367 Eh/α   predicted    -0.6380262E-03 ( -24.08%)
   displ. norm   :     0.0630117 α      lambda       -0.3643622E-03
   maximum displ.:     0.0437313 α      in ANC's #1, #35, #19, ...

........................................................................
.............................. CYCLE    3 ..............................
........................................................................

 iter      E             dE          RMSdq      gap      omega  full diag
   1    -21.1187484 -0.211187E+02  0.609E-02    6.86       0.0  T
   2    -21.1187524 -0.396495E-05  0.391E-02    6.86       1.0  T
   3    -21.1187545 -0.212114E-05  0.161E-02    6.85       1.5  T
   4    -21.1187555 -0.943037E-06  0.121E-02    6.85       2.0  T
   5    -21.1187564 -0.920076E-06  0.781E-03    6.84       3.1  T
   6    -21.1187570 -0.607409E-06  0.203E-03    6.84      11.9  T
   7    -21.1187570 -0.157733E-07  0.658E-04    6.84      36.9  T
   8    -21.1187570 -0.113558E-08  0.132E-04    6.84     183.2  T
     SCC iter.                  ...        0 min,  0.003 sec
     gradient                   ...        0 min,  0.004 sec
 * total energy  :   -20.8730294 Eh     change       -0.2155591E-03 Eh
   gradient norm :     0.0047662 Eh/α   predicted    -0.1829038E-03 ( -15.15%)
   displ. norm   :     0.0428104 α      lambda       -0.5835590E-04
   maximum displ.:     0.0388527 α      in ANC's #1, #4, #35, ...

........................................................................
.............................. CYCLE    4 ..............................
........................................................................

 iter      E             dE          RMSdq      gap      omega  full diag
   1    -21.1182955 -0.211183E+02  0.236E-02    6.90       0.0  T
   2    -21.1182958 -0.289077E-06  0.150E-02    6.90       1.6  T
   3    -21.1182961 -0.304950E-06  0.532E-03    6.90       4.6  T
   4    -21.1182962 -0.889752E-07  0.438E-03    6.90       5.5  T
   5    -21.1182964 -0.159484E-06  0.196E-03    6.90      12.4  T
   6    -21.1182964 -0.367371E-07  0.777E-04    6.90      31.2  T
   7    -21.1182964 -0.287167E-08  0.119E-04    6.90     204.6  T
     SCC iter.                  ...        0 min,  0.003 sec
     gradient                   ...        0 min,  0.004 sec
 * total energy  :   -20.8730696 Eh     change       -0.4018877E-04 Eh
   gradient norm :     0.0020367 Eh/α   predicted    -0.2923280E-04 ( -27.26%)
   displ. norm   :     0.0460013 α      lambda       -0.2463177E-04
   maximum displ.:     0.0423947 α      in ANC's #1, #4, #5, ...

........................................................................
.............................. CYCLE    5 ..............................
........................................................................

 iter      E             dE          RMSdq      gap      omega  full diag
   1    -21.1173708 -0.211174E+02  0.207E-02    6.92       0.0  T
   2    -21.1173708 -0.683687E-07  0.123E-02    6.92       2.0  T
   3    -21.1173709 -0.561160E-07  0.224E-03    6.92      10.8  T
   4    -21.1173709 -0.144809E-07  0.182E-03    6.92      13.3  T
   5    -21.1173709 -0.271520E-07  0.839E-04    6.92      28.9  T
   6    -21.1173709 -0.539810E-08  0.466E-04    6.92      52.1  T
     SCC iter.                  ...        0 min,  0.002 sec
     gradient                   ...        0 min,  0.004 sec
 * total energy  :   -20.8730859 Eh     change       -0.1637518E-04 Eh
   gradient norm :     0.0010570 Eh/α   predicted    -0.1234256E-04 ( -24.63%)
   displ. norm   :     0.0490345 α      lambda       -0.8363701E-05
   maximum displ.:     0.0449847 α      in ANC's #1, #4, #5, ...

........................................................................
.............................. CYCLE    6 ..............................
........................................................................

 iter      E             dE          RMSdq      gap      omega  full diag
   1    -21.1168385 -0.211168E+02  0.194E-02    6.92       0.0  T
   2    -21.1168385 -0.341923E-07  0.113E-02    6.92       2.1  T
   3    -21.1168385 -0.412827E-08  0.521E-04    6.92      46.6  T
   4    -21.1168385 -0.806267E-09  0.304E-04    6.92      79.9  T
     SCC iter.                  ...        0 min,  0.002 sec
     gradient                   ...        0 min,  0.004 sec
 * total energy  :   -20.8730957 Eh     change       -0.9772185E-05 Eh
   gradient norm :     0.0013413 Eh/α   predicted    -0.4184949E-05 ( -57.17%)
   displ. norm   :     0.0388997 α      lambda       -0.6845863E-05
   maximum displ.:     0.0349732 α      in ANC's #1, #4, #5, ...

........................................................................
.............................. CYCLE    7 ..............................
........................................................................

 iter      E             dE          RMSdq      gap      omega  full diag
   1    -21.1169925 -0.211170E+02  0.163E-02    6.91       0.0  T
   2    -21.1169925 -0.122616E-07  0.957E-03    6.91       2.5  T
   3    -21.1169925 -0.770897E-08  0.771E-04    6.91      31.4  T
   4    -21.1169925 -0.153355E-08  0.626E-04    6.91      38.7  T
     SCC iter.                  ...        0 min,  0.002 sec
     gradient                   ...        0 min,  0.004 sec
 * total energy  :   -20.8731045 Eh     change       -0.8784433E-05 Eh
   gradient norm :     0.0009519 Eh/α   predicted    -0.3426676E-05 ( -60.99%)
   displ. norm   :     0.0454150 α      lambda       -0.6363832E-05
   maximum displ.:     0.0412798 α      in ANC's #1, #4, #2, ...

........................................................................
.............................. CYCLE    8 ..............................
........................................................................

 iter      E             dE          RMSdq      gap      omega  full diag
   1    -21.1173283 -0.211173E+02  0.192E-02    6.91       0.0  T
   2    -21.1173283 -0.108587E-07  0.112E-02    6.91       2.2  T
   3    -21.1173283 -0.621361E-08  0.626E-04    6.91      38.8  T
   4    -21.1173283 -0.968630E-09  0.499E-04    6.91      48.6  T
     SCC iter.                  ...        0 min,  0.002 sec
     gradient                   ...        0 min,  0.004 sec
 * total energy  :   -20.8731125 Eh     change       -0.7979421E-05 Eh
   gradient norm :     0.0003613 Eh/α   predicted    -0.3185205E-05 ( -60.08%)
   displ. norm   :     0.0381860 α      lambda       -0.3898310E-05
   maximum displ.:     0.0358636 α      in ANC's #1, #4, #2, ...

........................................................................
.............................. CYCLE    9 ..............................
........................................................................

 iter      E             dE          RMSdq      gap      omega  full diag
   1    -21.1174823 -0.211175E+02  0.150E-02    6.90       0.0  T
   2    -21.1174823 -0.839529E-08  0.876E-03    6.90       2.8  T
   3    -21.1174823 -0.559546E-08  0.639E-04    6.90      37.9  T
   4    -21.1174823 -0.111857E-08  0.532E-04    6.90      45.6  T
     SCC iter.                  ...        0 min,  0.002 sec
     gradient                   ...        0 min,  0.004 sec
 * total energy  :   -20.8731174 Eh     change       -0.4982542E-05 Eh
   gradient norm :     0.0002845 Eh/α   predicted    -0.1950029E-05 ( -60.86%)
   displ. norm   :     0.0259684 α      lambda       -0.2314434E-05
   maximum displ.:     0.0252793 α      in ANC's #1, #4, #2, ...

........................................................................
.............................. CYCLE   10 ..............................
........................................................................

 iter      E             dE          RMSdq      gap      omega  full diag
   1    -21.1174998 -0.211175E+02  0.889E-03    6.90       0.0  T
   2    -21.1174998 -0.262434E-08  0.520E-03    6.90       4.7  T
   3    -21.1174998 -0.596167E-09  0.215E-04    6.90     112.6  T
   4    -21.1174998 -0.254087E-09  0.122E-04    6.90     198.8  T
     SCC iter.                  ...        0 min,  0.002 sec
     gradient                   ...        0 min,  0.004 sec
 * total energy  :   -20.8731205 Eh     change       -0.3082736E-05 Eh
   gradient norm :     0.0003382 Eh/α   predicted    -0.1156173E-05 ( -62.50%)
   displ. norm   :     0.0192936 α      lambda       -0.1647417E-05
   maximum displ.:     0.0190744 α      in ANC's #1, #3, #5, ...

........................................................................
.............................. CYCLE   11 ..............................
........................................................................

 iter      E             dE          RMSdq      gap      omega  full diag
   1    -21.1174673 -0.211175E+02  0.496E-03    6.90       0.0  T
   2    -21.1174673 -0.110889E-08  0.291E-03    6.90       8.3  T
   3    -21.1174673 -0.352589E-09  0.150E-04    6.90     161.4  T
   4    -21.1174673 -0.639986E-10  0.103E-04    6.90     235.6  T
     SCC iter.                  ...        0 min,  0.002 sec
     gradient                   ...        0 min,  0.004 sec
 * total energy  :   -20.8731229 Eh     change       -0.2333159E-05 Eh
   gradient norm :     0.0002262 Eh/α   predicted    -0.8230553E-06 ( -64.72%)
   displ. norm   :     0.0194881 α      lambda       -0.1564156E-05
   maximum displ.:     0.0183337 α      in ANC's #1, #3, #5, ...

........................................................................
.............................. CYCLE   12 ..............................
........................................................................

 iter      E             dE          RMSdq      gap      omega  full diag
   1    -21.1174135 -0.211174E+02  0.470E-03    6.90       0.0  T
   2    -21.1174135 -0.115817E-08  0.278E-03    6.90       8.7  T
   3    -21.1174135 -0.303093E-09  0.149E-04    6.90     162.6  T
   4    -21.1174135 -0.706599E-10  0.939E-05    6.90     258.3  T
     SCC iter.                  ...        0 min,  0.002 sec
     gradient                   ...        0 min,  0.004 sec
 * total energy  :   -20.8731251 Eh     change       -0.2213957E-05 Eh
   gradient norm :     0.0001246 Eh/α   predicted    -0.7821033E-06 ( -64.67%)
   displ. norm   :     0.0230954 α      lambda       -0.1641303E-05
   maximum displ.:     0.0202595 α      in ANC's #1, #3, #2, ...

........................................................................
.............................. CYCLE   13 ..............................
........................................................................

 iter      E             dE          RMSdq      gap      omega  full diag
   1    -21.1173708 -0.211174E+02  0.587E-03    6.90       0.0  T
   2    -21.1173708 -0.139054E-08  0.348E-03    6.90       7.0  T
   3    -21.1173708 -0.538876E-09  0.188E-04    6.90     129.2  T
   4    -21.1173708 -0.773390E-10  0.128E-04    6.90     189.8  T
     SCC iter.                  ...        0 min,  0.002 sec
     gradient                   ...        0 min,  0.004 sec
 * total energy  :   -20.8731274 Eh     change       -0.2272734E-05 Eh
   gradient norm :     0.0001310 Eh/α   predicted    -0.8204633E-06 ( -63.90%)
   displ. norm   :     0.0261486 α      lambda       -0.1610986E-05
   maximum displ.:     0.0222993 α      in ANC's #1, #3, #2, ...

........................................................................
.............................. CYCLE   14 ..............................
........................................................................

 iter      E             dE          RMSdq      gap      omega  full diag
   1    -21.1173659 -0.211174E+02  0.764E-03    6.90       0.0  T
   2    -21.1173659 -0.146786E-08  0.452E-03    6.90       5.4  T
   3    -21.1173659 -0.665217E-09  0.188E-04    6.90     128.9  T
   4    -21.1173659 -0.566693E-10  0.116E-04    6.90     209.8  T
     SCC iter.                  ...        0 min,  0.002 sec
     gradient                   ...        0 min,  0.004 sec
 * total energy  :   -20.8731295 Eh     change       -0.2172106E-05 Eh
   gradient norm :     0.0001577 Eh/α   predicted    -0.8068102E-06 ( -62.86%)
   displ. norm   :     0.0250950 α      lambda       -0.1309344E-05
   maximum displ.:     0.0215938 α      in ANC's #1, #3, #2, ...

........................................................................
.............................. CYCLE   15 ..............................
........................................................................

 iter      E             dE          RMSdq      gap      omega  full diag
   1    -21.1173709 -0.211174E+02  0.691E-03    6.90       0.0  T
   2    -21.1173709 -0.151793E-08  0.409E-03    6.90       5.9  T
   3    -21.1173709 -0.493994E-09  0.177E-04    6.90     136.7  T
   4    -21.1173709 -0.846399E-10  0.101E-04    6.90     239.7  T
     SCC iter.                  ...        0 min,  0.002 sec
     gradient                   ...        0 min,  0.004 sec
 * total energy  :   -20.8731313 Eh     change       -0.1753274E-05 Eh
   gradient norm :     0.0001262 Eh/α   predicted    -0.6538008E-06 ( -62.71%)
   displ. norm   :     0.0200655 α      lambda       -0.9023636E-06
   maximum displ.:     0.0180026 α      in ANC's #1, #3, #2, ...

........................................................................
.............................. CYCLE   16 ..............................
........................................................................

 iter      E             dE          RMSdq      gap      omega  full diag
   1    -21.1173884 -0.211174E+02  0.546E-03    6.90       0.0  T
   2    -21.1173884 -0.718256E-09  0.323E-03    6.90       7.5  T
   3    -21.1173884 -0.355463E-09  0.128E-04    6.90     189.9  T
   4    -21.1173884 -0.123528E-10  0.684E-05    6.90     354.7  T
     SCC iter.                  ...        0 min,  0.002 sec
     gradient                   ...        0 min,  0.004 sec
 * total energy  :   -20.8731325 Eh     change       -0.1238164E-05 Eh
   gradient norm :     0.0000976 Eh/α   predicted    -0.4515304E-06 ( -63.53%)
   displ. norm   :     0.0149452 α      lambda       -0.6319322E-06
   maximum displ.:     0.0141127 α      in ANC's #1, #2, #3, ...

........................................................................
.............................. CYCLE   17 ..............................
........................................................................

 iter      E             dE          RMSdq      gap      omega  full diag
   1    -21.1174126 -0.211174E+02  0.382E-03    6.90       0.0  T
   2    -21.1174126 -0.582112E-09  0.226E-03    6.90      10.7  T
   3    -21.1174126 -0.177565E-09  0.114E-04    6.90     212.2  T
   4    -21.1174126 -0.454463E-10  0.717E-05    6.90     338.4  T
     SCC iter.                  ...        0 min,  0.002 sec
     gradient                   ...        0 min,  0.004 sec
 * total energy  :   -20.8731334 Eh     change       -0.8883701E-06 Eh
   gradient norm :     0.0000823 Eh/α   predicted    -0.3181143E-06 ( -64.19%)
   displ. norm   :     0.0118304 α      lambda       -0.4996989E-06
   maximum displ.:     0.0114640 α      in ANC's #1, #2, #7, ...

........................................................................
.............................. CYCLE   18 ..............................
........................................................................

 iter      E             dE          RMSdq      gap      omega  full diag
   1    -21.1174193 -0.211174E+02  0.270E-03    6.90       0.0  T
   2    -21.1174193 -0.203659E-09  0.160E-03    6.90      15.2  T
   3    -21.1174193 -0.886295E-10  0.639E-05    6.90     379.6  T
   4    -21.1174193 -0.693134E-11  0.375E-05    6.90     647.5  T
     SCC iter.                  ...        0 min,  0.002 sec
     gradient                   ...        0 min,  0.004 sec
 * total energy  :   -20.8731341 Eh     change       -0.7076823E-06 Eh
   gradient norm :     0.0000667 Eh/α   predicted    -0.2485387E-06 ( -64.88%)
   displ. norm   :     0.0108402 α      lambda       -0.4361519E-06
   maximum displ.:     0.0104182 α      in ANC's #1, #2, #5, ...

........................................................................
.............................. CYCLE   19 ..............................
........................................................................

 iter      E             dE          RMSdq      gap      omega  full diag
   1    -21.1174207 -0.211174E+02  0.272E-03    6.90       0.0  T
   2    -21.1174207 -0.207276E-09  0.160E-03    6.90      15.1  T
   3    -21.1174207 -0.817764E-10  0.569E-05    6.90     426.0  T
   4    -21.1174207 -0.582645E-11  0.336E-05    6.90     722.6  T
     SCC iter.                  ...        0 min,  0.002 sec
     gradient                   ...        0 min,  0.004 sec
 * total energy  :   -20.8731347 Eh     change       -0.6243109E-06 Eh
   gradient norm :     0.0000584 Eh/α   predicted    -0.2186341E-06 ( -64.98%)
   displ. norm   :     0.0108721 α      lambda       -0.4055916E-06
   maximum displ.:     0.0102223 α      in ANC's #1, #5, #3, ...

........................................................................
.............................. CYCLE   20 ..............................
........................................................................

 iter      E             dE          RMSdq      gap      omega  full diag
   1    -21.1174241 -0.211174E+02  0.266E-03    6.90       0.0  T
   2    -21.1174242 -0.221650E-09  0.157E-03    6.90      15.4  T
   3    -21.1174242 -0.722231E-10  0.648E-05    6.90     374.1  T
   4    -21.1174242 -0.138911E-10  0.387E-05    6.90     627.5  T
     SCC iter.                  ...        0 min,  0.002 sec
     gradient                   ...        0 min,  0.004 sec
 * total energy  :   -20.8731353 Eh     change       -0.5654822E-06 Eh
   gradient norm :     0.0000536 Eh/α   predicted    -0.2010613E-06 ( -64.44%)
   displ. norm   :     0.0105502 α      lambda       -0.3411257E-06
   maximum displ.:     0.0098544 α      in ANC's #1, #5, #3, ...
 * RMSD in coord.:     0.1296769 α      energy gain  -0.1161888E-02 Eh

generating ANC from exact Hessian ...
Using Lindh-Hessian (1995)
 Shifting diagonal of input Hessian by   7.904478987997881E-003
 Lowest  eigenvalues of input Hessian
    0.000000    0.000000    0.000000    0.000000    0.000000    0.000000
    0.010000    0.011991    0.012607    0.016517    0.018342    0.022689
    0.030112    0.039585    0.048465    0.052857    0.058877    0.060272
 Highest eigenvalues
    1.147691    1.171477    1.190575    1.237042    1.256109    1.280230
 

........................................................................
.............................. CYCLE   21 ..............................
........................................................................

 iter      E             dE          RMSdq      gap      omega  full diag
   1    -21.1174158 -0.211174E+02  0.295E-03    6.90       0.0  T
   2    -21.1174158 -0.240455E-09  0.174E-03    6.90      14.0  T
   3    -21.1174158 -0.105182E-09  0.668E-05    6.90     363.0  T
   4    -21.1174158 -0.752820E-11  0.445E-05    6.90     544.9  T
     SCC iter.                  ...        0 min,  0.002 sec
     gradient                   ...        0 min,  0.004 sec
 * total energy  :   -20.8731358 Eh     change       -0.4781674E-06 Eh
   gradient norm :     0.0000482 Eh/α   predicted     0.0000000E+00 (-100.00%)
   displ. norm   :     0.0066938 α      lambda       -0.2045273E-06
   maximum displ.:     0.0066826 α      in ANC's #1, #2, #22, ...

........................................................................
.............................. CYCLE   22 ..............................
........................................................................

 iter      E             dE          RMSdq      gap      omega  full diag
   1    -21.1174185 -0.211174E+02  0.144E-03    6.90       0.0  T
   2    -21.1174185 -0.872724E-10  0.845E-04    6.90      28.7  T
   3    -21.1174185 -0.237961E-10  0.435E-05    6.90     558.2  T
     SCC iter.                  ...        0 min,  0.001 sec
     gradient                   ...        0 min,  0.004 sec
 * total energy  :   -20.8731361 Eh     change       -0.2834305E-06 Eh
   gradient norm :     0.0000451 Eh/α   predicted    -0.1007049E-06 ( -64.47%)
   displ. norm   :     0.0063103 α      lambda       -0.1752358E-06
   maximum displ.:     0.0062404 α      in ANC's #1, #3, #7, ...

........................................................................
.............................. CYCLE   23 ..............................
........................................................................

 iter      E             dE          RMSdq      gap      omega  full diag
   1    -21.1174177 -0.211174E+02  0.182E-03    6.90       0.0  T
   2    -21.1174177 -0.793996E-10  0.107E-03    6.90      22.7  T
   3    -21.1174177 -0.337117E-10  0.330E-05    6.90     734.7  T
   4    -21.1174177 -0.168399E-11  0.191E-05    6.90    1267.9  T
     SCC iter.                  ...        0 min,  0.002 sec
     gradient                   ...        0 min,  0.004 sec
 * total energy  :   -20.8731363 Eh     change       -0.2529311E-06 Eh
   gradient norm :     0.0000403 Eh/α   predicted    -0.8768487E-07 ( -65.33%)
   displ. norm   :     0.0064157 α      lambda       -0.1643588E-06
   maximum displ.:     0.0062416 α      in ANC's #1, #3, #4, ...

........................................................................
.............................. CYCLE   24 ..............................
........................................................................

 iter      E             dE          RMSdq      gap      omega  full diag
   1    -21.1174181 -0.211174E+02  0.159E-03    6.90       0.0  T
   2    -21.1174181 -0.649187E-10  0.938E-04    6.90      25.9  T
   3    -21.1174181 -0.271996E-10  0.335E-05    6.90     724.4  T
     SCC iter.                  ...        0 min,  0.001 sec
     gradient                   ...        0 min,  0.004 sec
 * total energy  :   -20.8731366 Eh     change       -0.2381341E-06 Eh
   gradient norm :     0.0000367 Eh/α   predicted    -0.8288108E-07 ( -65.20%)
   displ. norm   :     0.0062563 α      lambda       -0.1455233E-06
   maximum displ.:     0.0060812 α      in ANC's #1, #3, #4, ...

........................................................................
.............................. CYCLE   25 ..............................
........................................................................

 iter      E             dE          RMSdq      gap      omega  full diag
   1    -21.1174195 -0.211174E+02  0.166E-03    6.90       0.0  T
   2    -21.1174195 -0.670219E-10  0.981E-04    6.90      24.7  T
   3    -21.1174195 -0.286491E-10  0.330E-05    6.90     735.6  T
     SCC iter.                  ...        0 min,  0.001 sec
     gradient                   ...        0 min,  0.004 sec
 * total energy  :   -20.8731368 Eh     change       -0.2139503E-06 Eh
   gradient norm :     0.0000349 Eh/α   predicted    -0.7442196E-07 ( -65.22%)
   displ. norm   :     0.0057868 α      lambda       -0.1318903E-06
   maximum displ.:     0.0056583 α      in ANC's #1, #3, #4, ...

........................................................................
.............................. CYCLE   26 ..............................
........................................................................

 iter      E             dE          RMSdq      gap      omega  full diag
   1    -21.1174191 -0.211174E+02  0.140E-03    6.90       0.0  T
   2    -21.1174191 -0.580194E-10  0.827E-04    6.90      29.3  T
   3    -21.1174191 -0.242757E-10  0.361E-05    6.90     671.3  T
     SCC iter.                  ...        0 min,  0.001 sec
     gradient                   ...        0 min,  0.004 sec
 * total energy  :   -20.8731370 Eh     change       -0.1851561E-06 Eh
   gradient norm :     0.0000338 Eh/α   predicted    -0.6422699E-07 ( -65.31%)
   displ. norm   :     0.0053256 α      lambda       -0.1065123E-06
   maximum displ.:     0.0052158 α      in ANC's #1, #3, #5, ...

........................................................................
.............................. CYCLE   27 ..............................
........................................................................

 iter      E             dE          RMSdq      gap      omega  full diag
   1    -21.1174206 -0.211174E+02  0.127E-03    6.90       0.0  T
   2    -21.1174206 -0.520188E-10  0.751E-04    6.90      32.3  T
   3    -21.1174206 -0.170601E-10  0.301E-05    6.90     805.1  T
     SCC iter.                  ...        0 min,  0.001 sec
     gradient                   ...        0 min,  0.004 sec
 * total energy  :   -20.8731371 Eh     change       -0.1603747E-06 Eh
   gradient norm :     0.0000319 Eh/α   predicted    -0.5565184E-07 ( -65.30%)
   displ. norm   :     0.0049605 α      lambda       -0.1004485E-06
   maximum displ.:     0.0048514 α      in ANC's #1, #3, #5, ...

........................................................................
.............................. CYCLE   28 ..............................
........................................................................

 iter      E             dE          RMSdq      gap      omega  full diag
   1    -21.1174201 -0.211174E+02  0.115E-03    6.90       0.0  T
   2    -21.1174201 -0.478018E-10  0.683E-04    6.90      35.5  T
   3    -21.1174201 -0.155076E-10  0.317E-05    6.90     764.1  T
     SCC iter.                  ...        0 min,  0.001 sec
     gradient                   ...        0 min,  0.004 sec
 * total energy  :   -20.8731373 Eh     change       -0.1403001E-06 Eh
   gradient norm :     0.0000292 Eh/α   predicted    -0.4867298E-07 ( -65.31%)
   displ. norm   :     0.0047283 α      lambda       -0.8732731E-07
   maximum displ.:     0.0045901 α      in ANC's #1, #3, #2, ...

........................................................................
.............................. CYCLE   29 ..............................
........................................................................

 iter      E             dE          RMSdq      gap      omega  full diag
   1    -21.1174200 -0.211174E+02  0.106E-03    6.90       0.0  T
   2    -21.1174200 -0.405791E-10  0.626E-04    6.90      38.7  T
   3    -21.1174200 -0.132445E-10  0.276E-05    6.90     878.0  T
     SCC iter.                  ...        0 min,  0.001 sec
     gradient                   ...        0 min,  0.004 sec
 * total energy  :   -20.8731374 Eh     change       -0.1243502E-06 Eh
   gradient norm :     0.0000267 Eh/α   predicted    -0.4305449E-07 ( -65.38%)
   displ. norm   :     0.0045307 α      lambda       -0.7837662E-07
   maximum displ.:     0.0043714 α      in ANC's #1, #3, #2, ...

........................................................................
.............................. CYCLE   30 ..............................
........................................................................

 iter      E             dE          RMSdq      gap      omega  full diag
   1    -21.1174208 -0.211174E+02  0.108E-03    6.90       0.0  T
   2    -21.1174208 -0.344507E-10  0.643E-04    6.90      37.7  T
   3    -21.1174208 -0.130171E-10  0.256E-05    6.90     945.6  T
     SCC iter.                  ...        0 min,  0.001 sec
     gradient                   ...        0 min,  0.004 sec
 * total energy  :   -20.8731375 Eh     change       -0.1107260E-06 Eh
   gradient norm :     0.0000248 Eh/α   predicted    -0.3831417E-07 ( -65.40%)
   displ. norm   :     0.0043412 α      lambda       -0.7007520E-07
   maximum displ.:     0.0041650 α      in ANC's #1, #3, #2, ...

........................................................................
.............................. CYCLE   31 ..............................
........................................................................

 iter      E             dE          RMSdq      gap      omega  full diag
   1    -21.1174204 -0.211174E+02  0.102E-03    6.90       0.0  T
   2    -21.1174204 -0.323865E-10  0.603E-04    6.90      40.2  T
   3    -21.1174204 -0.124700E-10  0.249E-05    6.90     973.4  T
     SCC iter.                  ...        0 min,  0.001 sec
     gradient                   ...        0 min,  0.004 sec
 * total energy  :   -20.8731376 Eh     change       -0.9855470E-07 Eh
   gradient norm :     0.0000237 Eh/α   predicted    -0.3413450E-07 ( -65.36%)
   displ. norm   :     0.0040959 α      lambda       -0.5799807E-07
   maximum displ.:     0.0039337 α      in ANC's #1, #3, #2, ...

   *** GEOMETRY OPTIMIZATION CONVERGED AFTER 31 ITERATIONS ***

------------------------------------------------------------------------
 total energy gain   :        -0.0011642 Eh       -0.7305 kcal/mol
 total RMSD          :         0.1423014 a0        0.0753 Å
 total power (kW/mol):        -0.0985980 (step)  -11.2372 (real)
------------------------------------------------------------------------

 ANCopt (total)                0 d,  0 h,  0 min,  0.272 sec
 optimizer setup                ...        0 min,  0.000 sec (  0.117%)
 model hessian                  ...        0 min,  0.014 sec (  5.157%)
 ANC generation                 ...        0 min,  0.001 sec (  0.264%)
 coordinate transformation      ...        0 min,  0.000 sec (  0.079%)
 single point calculation       ...        0 min,  0.244 sec ( 89.524%)
 optimization log               ...        0 min,  0.008 sec (  2.794%)
 hessian update                 ...        0 min,  0.000 sec (  0.075%)
 rational function              ...        0 min,  0.004 sec (  1.464%)

================
 final structure:
================
$coord
        5.20066817255456       -1.82786016887245       -0.19792932731296      C
        4.37225648030585        0.58630770835581        1.13883276572897      C
        2.63706883870156        2.24680708275983       -0.47137722710471      C
        0.15802482533462        0.99470080238515       -1.28709030384767      C
       -1.48097850351896        0.28418832387653        0.95848651643958      C
       -4.49464328626459       -0.88976204503900       -0.09454392855623      Cl
        3.61081027952089       -3.09064973016309       -0.50530287103286      H
        6.59339735853492       -2.82482982349440        0.93703679114715      H
        6.04549871297446       -1.38681640711494       -2.01886479458502      H
        3.43815393259316        0.10768810680643        2.91301036291531      H
        6.04926083784608        1.69421496930361        1.60800060523799      H
        3.65345170127260        2.80422085480860       -2.17758469665994      H
        2.19907100738470        3.96320764083473        0.58654336702737      H
        0.54785680929707       -0.68462464155224       -2.41452653694452      H
       -0.88282841156142        2.31884234448017       -2.47838872829837      H
       -0.65262740825400       -1.22772860015420        2.07750526679892      H
       -1.88227066344094        1.91422955866951        2.14822095280939      H
$end
 
 Bond Distances (Angstroems)
 ---------------------------
C1-C2=1.5247         C1-H7=1.0867         C1-H8=1.0873         C1-H9=1.0876         C2-C1=1.5247         C2-C3=1.5301         
C2-H10=1.0908        C2-H11=1.0922        C3-C2=1.5301         C3-C4=1.5318         C3-H12=1.0916        C3-H13=1.0918        
C4-C3=1.5318         C4-C5=1.5185         C4-H14=1.0901        C4-H15=1.0917        C5-C4=1.5185         C5-Cl6=1.7999        
C5-H16=1.0876        C5-H17=1.0888        Cl6-C5=1.7999        H7-C1=1.0867         H8-C1=1.0873         H9-C1=1.0876         
H10-C2=1.0908        H11-C2=1.0922        H12-C3=1.0916        H13-C3=1.0918        H14-C4=1.0901        H15-C4=1.0917        
H16-C5=1.0876        H17-C5=1.0888        
 C  H  Rav=1.0896 sigma=0.0020  Rmin=1.0867  Rmax=1.0922    11
 C  C  Rav=1.5263 sigma=0.0052  Rmin=1.5185  Rmax=1.5318     4
 Cl C  Rav=1.7999 sigma=0.0000  Rmin=1.7999  Rmax=1.7999     1
 
 selected bond angles (degree)
 --------------------
H7-C1-C2=111.23                H8-C1-C2=110.19                H8-C1-H7=108.00                H9-C1-C2=110.45                
H9-C1-H7=108.52                H9-C1-H8=108.35                C3-C2-C1=113.29                H10-C2-C1=109.58               
H10-C2-C3=109.92               H11-C2-C1=108.76               H11-C2-C3=107.81               H11-C2-H10=107.29              
C4-C3-C2=114.99                H12-C3-C2=108.67               H12-C3-C4=107.81               H13-C3-C2=108.64               
H13-C3-C4=108.82               H13-C3-H12=107.69              C5-C4-C3=112.07                H14-C4-C3=110.17               
H14-C4-C5=109.55               H15-C4-C3=108.49               H15-C4-C5=108.82               H15-C4-H14=107.62              
Cl6-C5-C4=110.44               H16-C5-C4=112.21               H16-C5-Cl6=105.77              H17-C5-C4=111.58               
H17-C5-Cl6=106.24              H17-C5-H16=110.28              
 
 selected dihedral angles (degree)
 ---------------------------------
C3-C2-C1-H7=293.25            C3-C2-C1-H8=173.50            C3-C2-C1-H9= 53.82            H10-C2-C1-H7= 56.39           
H10-C2-C1-H8=296.65           H10-C2-C1-H9=176.96           H11-C2-C1-H7=173.39           H11-C2-C1-H8= 53.64           
H11-C2-C1-H9=293.95           C4-C3-C2-C1= 60.18            C4-C3-C2-H10=297.23           C4-C3-C2-H11=180.59           
H12-C3-C2-C1=299.28           H12-C3-C2-H10=176.32          H12-C3-C2-H11= 59.68          H13-C3-C2-C1=182.37           
H13-C3-C2-H10= 59.42          H13-C3-C2-H11=302.78          C5-C4-C3-C2= 62.03            C5-C4-C3-H12=183.40           
C5-C4-C3-H13=299.93           H14-C4-C3-C2=299.78           H14-C4-C3-H12= 61.16          H14-C4-C3-H13=177.69          
H15-C4-C3-C2=182.21           H15-C4-C3-H12=303.59          H15-C4-C3-H13= 60.12          Cl6-C5-C4-C3=174.34           
Cl6-C5-C4-H14=296.94          Cl6-C5-C4-H15= 54.35          H16-C5-C4-C3=292.08           H16-C5-C4-H14= 54.68          
H16-C5-C4-H15=172.09          H17-C5-C4-C3= 56.41           H17-C5-C4-H14=179.01          H17-C5-C4-H15=296.42          
           -------------------------------------------------
          |                Final Singlepoint                |
           -------------------------------------------------

          ...................................................
          :                      SETUP                      :
          :.................................................:
          :  # basis functions                  41          :
          :  # atomic orbitals                  40          :
          :  # shells                           24          :
          :  # electrons                        38          :
          :  max. iterations                   250          :
          :  Hamiltonian                  GFN2-xTB          :
          :  restarted?                      false          :
          :  GBSA solvation                   true          :
          :  PC potential                    false          :
          :  electronic temp.          300.0000000     K    :
          :  accuracy                    1.0000000          :
          :  -> integral cutoff          0.2500000E+02      :
          :  -> integral neglect         0.1000000E-07      :
          :  -> SCF convergence          0.1000000E-05 Eh   :
          :  -> wf. convergence          0.1000000E-03 e    :
          :  Broyden damping             0.4000000          :
          :  net charge                          0          :
          :  unpaired electrons                  0          :
          ...................................................

 iter      E             dE          RMSdq      gap      omega  full diag
   1    -21.1174204 -0.211174E+02  0.144E-05    6.90       0.0  T
   2    -21.1174204 -0.817124E-13  0.882E-06    6.90    2750.0  T
   3    -21.1174204 -0.461853E-13  0.244E-06    6.90    9945.2  T

   *** convergence criteria satisfied after 3 iterations ***

         #    Occupation            Energy/Eh            Energy/eV
      -------------------------------------------------------------
         1        2.0000           -1.0567794             -28.7564
       ...           ...                  ...                  ...
        13        2.0000           -0.4572967             -12.4437
        14        2.0000           -0.4569961             -12.4355
        15        2.0000           -0.4300143             -11.7013
        16        2.0000           -0.4277380             -11.6393
        17        2.0000           -0.4255443             -11.5797
        18        2.0000           -0.4149616             -11.2917
        19        2.0000           -0.4125840             -11.2270 (HOMO)
        20                         -0.1589791              -4.3260 (LUMO)
        21                          0.0151850               0.4132
        22                          0.0202832               0.5519
        23                          0.0243254               0.6619
        24                          0.0245881               0.6691
       ...                                ...                  ...
        40                          0.3020209               8.2184
      -------------------------------------------------------------
                  HL-Gap            0.2536049 Eh            6.9009 eV
             Fermi-level           -0.2857816 Eh           -7.7765 eV

 SCC (total)                   0 d,  0 h,  0 min,  0.008 sec
 SCC setup                      ...        0 min,  0.001 sec ( 12.876%)
 Dispersion                     ...        0 min,  0.000 sec (  0.665%)
 classical contributions        ...        0 min,  0.000 sec (  0.212%)
 integral evaluation            ...        0 min,  0.001 sec ( 17.574%)
 iterations                     ...        0 min,  0.001 sec ( 16.607%)
 molecular gradient             ...        0 min,  0.004 sec ( 50.211%)
 printout                       ...        0 min,  0.000 sec (  1.663%)

         :::::::::::::::::::::::::::::::::::::::::::::::::::::
         ::                     SUMMARY                     ::
         :::::::::::::::::::::::::::::::::::::::::::::::::::::
         :: total energy             -20.873137587830 Eh    ::
         :: total w/o Gsasa/hb       -20.872632509093 Eh    ::
         :: gradient norm              0.000023743387 Eh/a0 ::
         :: HOMO-LUMO gap              6.900941482104 eV    ::
         ::.................................................::
         :: SCC energy               -21.117389286651 Eh    ::
         :: -> isotropic ES            0.011231176461 Eh    ::
         :: -> anisotropic ES          0.002001681884 Eh    ::
         :: -> anisotropic XC          0.011435735347 Eh    ::
         :: -> dispersion             -0.010134839524 Eh    ::
         :: -> Gsolv                  -0.003832489809 Eh    ::
         ::    -> Gelec               -0.003327411071 Eh    ::
         ::    -> Gsasa               -0.000775673427 Eh    ::
         ::    -> Ghb                 -0.000810165008 Eh    ::
         ::    -> Gshift               0.001080759698 Eh    ::
         :: repulsion energy           0.244251698821 Eh    ::
         :: add. restraining           0.000000000000 Eh    ::
         :: total charge              -0.000000000000 e     ::
         :::::::::::::::::::::::::::::::::::::::::::::::::::::

           ------------------------------------------------- 
          |                Numerical Hessian                |
           ------------------------------------------------- 
step length          :   0.00500
SCC accuracy         :   0.30000
Hessian scale factor :   1.00000
frozen atoms in %    :   0.00000    0
RMS gradient         :   0.00002
estimated CPU  time      0.01 min
estimated wall time      0.01 min

writing file <hessian>.

 projected vibrational frequencies (cm⁻¹)
eigval :       -0.00    -0.00    -0.00     0.00     0.00     0.00
eigval :       52.69    73.83   146.98   216.40   255.75   268.11
eigval :      366.65   470.06   716.37   762.15   809.59   876.57
eigval :      890.50   998.70  1004.36  1043.97  1081.22  1130.61
eigval :     1145.74  1154.55  1220.22  1238.71  1249.41  1276.97
eigval :     1330.66  1349.12  1355.12  1412.11  1431.04  1477.71
eigval :     1484.93  1496.33  1501.25  1511.66  2967.12  2970.32
eigval :     2978.60  2987.54  2989.32  2992.76  3003.94  3007.58
eigval :     3029.78  3033.19  3045.32
           -------------------------------------------------
          |                Property Printout                |
           -------------------------------------------------

    * Orbital Energies and Occupations

         #    Occupation            Energy/Eh            Energy/eV
      -------------------------------------------------------------
         1        2.0000           -1.0567794             -28.7564
       ...           ...                  ...                  ...
         7        2.0000           -0.5289148             -14.3925
         8        2.0000           -0.5196092             -14.1393
         9        2.0000           -0.5001096             -13.6087
        10        2.0000           -0.4957099             -13.4890
        11        2.0000           -0.4916787             -13.3793
        12        2.0000           -0.4665625             -12.6958
        13        2.0000           -0.4572967             -12.4437
        14        2.0000           -0.4569961             -12.4355
        15        2.0000           -0.4300143             -11.7013
        16        2.0000           -0.4277380             -11.6393
        17        2.0000           -0.4255444             -11.5797
        18        2.0000           -0.4149617             -11.2917
        19        2.0000           -0.4125841             -11.2270 (HOMO)
        20                         -0.1589792              -4.3260 (LUMO)
        21                          0.0151850               0.4132
        22                          0.0202832               0.5519
        23                          0.0243254               0.6619
        24                          0.0245881               0.6691
        25                          0.0797021               2.1688
        26                          0.0986704               2.6850
        27                          0.1130401               3.0760
        28                          0.1261183               3.4319
        29                          0.1338397               3.6420
        30                          0.1372802               3.7356
       ...                                ...                  ...
        40                          0.3020208               8.2184
      -------------------------------------------------------------
                  HL-Gap            0.2536049 Eh            6.9009 eV
             Fermi-level           -0.2857816 Eh           -7.7765 eV

     #   Z          covCN         q      C6AA      α(0)
     1   6 C        3.751    -0.112    22.713     6.797
     2   6 C        3.799    -0.062    21.693     6.632
     3   6 C        3.802    -0.068    21.806     6.648
     4   6 C        3.827    -0.067    21.762     6.638
     5   6 C        3.714     0.029    20.203     6.422
     6  17 Cl       0.913    -0.269   107.714    15.878
     7   1 H        0.925     0.038     2.476     2.461
     8   1 H        0.925     0.037     2.486     2.466
     9   1 H        0.925     0.040     2.453     2.449
    10   1 H        0.924     0.034     2.532     2.489
    11   1 H        0.924     0.039     2.466     2.456
    12   1 H        0.924     0.050     2.322     2.383
    13   1 H        0.924     0.041     2.436     2.441
    14   1 H        0.925     0.058     2.224     2.332
    15   1 H        0.924     0.054     2.273     2.358
    16   1 H        0.925     0.080     1.975     2.198
    17   1 H        0.925     0.079     1.986     2.204

 Mol. C6AA /au·bohr⁶  :       2534.392793
 Mol. C8AA /au·bohr⁸  :      62563.885575
 Mol. α(0) /au        :         75.249591


Wiberg/Mayer (AO) data.
largest (>0.10) Wiberg bond orders for each atom

 ---------------------------------------------------------------------------
     #   Z sym  total        # sym  WBO       # sym  WBO       # sym  WBO
 ---------------------------------------------------------------------------
     1   6 C    3.996 --     2 C    1.020     9 H    0.987     8 H    0.987
                             7 H    0.986
     2   6 C    3.997 --     1 C    1.020     3 C    1.008    11 H    0.977
                            10 H    0.977
     3   6 C    3.995 --     2 C    1.008     4 C    0.999    13 H    0.977
                            12 H    0.975
     4   6 C    3.990 --     5 C    1.017     3 C    0.999    15 H    0.974
                            14 H    0.973
     5   6 C    3.907 --     4 C    1.017    17 H    0.977    16 H    0.976
                             6 Cl   0.917
     6  17 Cl   0.958 --     5 C    0.917
     7   1 H    0.999 --     1 C    0.986
     8   1 H    0.999 --     1 C    0.987
     9   1 H    0.998 --     1 C    0.987
    10   1 H    0.999 --     2 C    0.977
    11   1 H    0.998 --     2 C    0.977
    12   1 H    0.998 --     3 C    0.975
    13   1 H    0.998 --     3 C    0.977
    14   1 H    0.997 --     4 C    0.973
    15   1 H    0.997 --     4 C    0.974
    16   1 H    0.994 --     5 C    0.976
    17   1 H    0.994 --     5 C    0.977
 ---------------------------------------------------------------------------

Topologies differ in total number of bonds
Writing topology from bond orders to xtbtopo.mol

molecular dipole:
                 x           y           z       tot (Debye)
 q only:        1.148       0.429       0.200
   full:        0.980       0.375       0.202       2.716
molecular quadrupole (traceless):
                xx          xy          yy          xz          yz          zz
 q only:       -5.276      -1.681       2.305      -0.886      -0.078       2.971
  q+dip:       -5.620      -2.041       2.503      -1.223      -0.212       3.117
   full:       -4.786      -1.578       2.097      -0.769      -0.046       2.689

           -------------------------------------------------
          |                Geometry Summary                 |
           -------------------------------------------------

      molecular mass/u    :      106.5939653
   center of mass at/Å    :        0.0017915      -0.0024534      -0.0048565
  moments of inertia/u·Å² :        0.8005179E+02   0.4612147E+03   0.4906935E+03
rotational constants/cm⁻¹ :        0.2105841E+00   0.3655051E-01   0.3435471E-01

 * 16 selected distances

     #   Z          #   Z                                           value/Å
     1   6 C        2   6 C                                       1.5246740
     2   6 C        3   6 C                                       1.5301287
     3   6 C        4   6 C                                       1.5317664
     4   6 C        5   6 C                                       1.5184506
     5   6 C        6  17 Cl                                      1.7999191 (max)
     1   6 C        7   1 H                                       1.0866529 (min)
     1   6 C        8   1 H                                       1.0873004
     1   6 C        9   1 H                                       1.0875931
     2   6 C       10   1 H                                       1.0908409
     2   6 C       11   1 H                                       1.0921994
     3   6 C       12   1 H                                       1.0915541
     3   6 C       13   1 H                                       1.0918338
     4   6 C       14   1 H                                       1.0900558
     4   6 C       15   1 H                                       1.0916862
     5   6 C       16   1 H                                       1.0876184
     5   6 C       17   1 H                                       1.0888120

 * 3 distinct bonds (by element types)

   Z      Z             #   av. dist./Å        max./Å        min./Å
   1 H    6 C          11     1.0896497     1.0921994     1.0866529
   6 C    6 C           4     1.5262549     1.5317664     1.5184506
   6 C   17 Cl          1     1.7999191     1.7999191     1.7999191

           -------------------------------------------------
          |               Frequency Printout                |
           -------------------------------------------------
 projected vibrational frequencies (cm⁻¹)
eigval :       -0.00    -0.00    -0.00     0.00     0.00     0.00
eigval :       52.69    73.83   146.98   216.40   255.75   268.11
eigval :      366.65   470.06   716.37   762.15   809.59   876.57
eigval :      890.50   998.70  1004.36  1043.97  1081.22  1130.61
eigval :     1145.74  1154.55  1220.22  1238.71  1249.41  1276.97
eigval :     1330.66  1349.12  1355.12  1412.11  1431.04  1477.71
eigval :     1484.93  1496.33  1501.25  1511.66  2967.12  2970.32
eigval :     2978.60  2987.54  2989.32  2992.76  3003.94  3007.58
eigval :     3029.78  3033.19  3045.32
 reduced masses (amu)
   1: 12.66   2: 10.58   3: 12.49   4: 24.24   5: 25.80   6: 20.71   7: 13.78   8:  9.90
   9:  6.78  10:  9.15  11: 14.19  12:  7.66  13: 10.36  14:  9.35  15: 13.65  16:  3.40
  17:  3.21  18:  6.01  19:  5.71  20:  6.46  21:  5.23  22:  6.29  23:  3.73  24:  6.52
  25:  7.61  26:  5.88  27:  3.49  28:  3.25  29:  2.78  30:  2.12  31:  4.44  32:  4.37
  33:  4.79  34:  3.21  35:  2.06  36:  1.86  37:  1.93  38:  1.81  39:  1.64  40:  1.62
  41:  1.91  42:  1.91  43:  1.84  44:  1.65  45:  1.58  46:  1.57  47:  1.83  48:  1.63
  49:  1.92  50:  1.87  51:  1.35
 IR intensities (km·mol⁻¹)
   1:  0.07   2:  0.05   3:  0.29   4:  0.45   5:  0.43   6:  0.47   7:  0.52   8:  2.67
   9:  0.34  10:  1.92  11:  1.11  12:  0.34  13:  1.37  14:  1.12  15:  1.66  16: 17.76
  17:  7.49  18:  0.62  19:  0.77  20:  5.28  21:  0.47  22:  3.73  23:  0.76  24:  0.83
  25:  0.87  26:  1.79  27:  4.95  28:  5.22  29:  0.91  30:  4.48  31:  2.86  32:  7.61
  33:  4.02  34:  2.26  35:  0.55  36:  0.21  37:  1.19  38:  0.11  39:  1.42  40:  0.43
  41: 49.53  42: 42.35  43: 31.73  44: 39.08  45: 54.83  46: 66.91  47: 23.71  48: 44.54
  49: 83.86  50: 84.72  51: 45.39
 Raman intensities (Ä⁴*amu⁻¹)
   1:  0.00   2:  0.00   3:  0.00   4:  0.00   5:  0.00   6:  0.00   7:  0.00   8:  0.00
   9:  0.00  10:  0.00  11:  0.00  12:  0.00  13:  0.00  14:  0.00  15:  0.00  16:  0.00
  17:  0.00  18:  0.00  19:  0.00  20:  0.00  21:  0.00  22:  0.00  23:  0.00  24:  0.00
  25:  0.00  26:  0.00  27:  0.00  28:  0.00  29:  0.00  30:  0.00  31:  0.00  32:  0.00
  33:  0.00  34:  0.00  35:  0.00  36:  0.00  37:  0.00  38:  0.00  39:  0.00  40:  0.00
  41:  0.00  42:  0.00  43:  0.00  44:  0.00  45:  0.00  46:  0.00  47:  0.00  48:  0.00
  49:  0.00  50:  0.00  51:  0.00
 output can be read by thermo (or use thermo option).
 writing <g98.out> molden fake output.
 recommended (thermochemical) frequency scaling factor: 1.0
           -------------------------------------------------
          |             Thermodynamic Functions             |
           -------------------------------------------------

Molecule has no symmetry elements
It seems to be the C1 point group
c1  symmetry found (for desy threshold:  0.10E+00) used in thermo

          ...................................................
          :                      SETUP                      :
          :.................................................:
          :  # frequencies                          45      :
          :  # imaginary freq.                       0      :
          :  linear?                             false      :
          :  only rotor calc.                    false      :
          :  symmetry                               c1      :
          :  rotational number                       1      :
          :  scaling factor                  1.0000000      :
          :  rotor cutoff                    0.0000000 cm⁻¹ :
          :  imag. cutoff                 -100.0000000 cm⁻¹ :
          :.................................................:

    mode    ω/cm⁻¹     T·S(HO)/kcal·mol⁻¹    T·S(FR)/kcal·mol⁻¹   T·S(vib)
   ------------------------------------------------------------------------
       1     52.69    -1.40546 (100.00%)    -1.04077 (  0.00%)    -1.40546
       2     73.83    -1.20710 (100.00%)    -0.94091 (  0.00%)    -1.20710
       3    146.98    -0.80827 (100.00%)    -0.73702 (  0.00%)    -0.80827
       4    216.40    -0.59302 (100.00%)    -0.62246 (  0.00%)    -0.59302
       5    255.75    -0.50404 (100.00%)    -0.57297 (  0.00%)    -0.50404
       6    268.11    -0.47952 (100.00%)    -0.55899 (  0.00%)    -0.47952
   ------------------------------------------------------------------------

   temp. (K)  partition function   enthalpy   heat capacity  entropy
                                   cal/mol     cal/K/mol   cal/K/mol   J/K/mol
 298.15  VIB   139.                 3158.634     20.987     20.405
         ROT  0.325E+06              888.752      2.981     28.203
         INT  0.453E+08             4047.387     23.968     48.608
         TR   0.106E+28             1481.254      4.968     39.890
         TOT                        5528.6408    28.9357    88.4987   370.2784

       T/K    H(0)-H(T)+PV         H(T)/Eh          T*S/Eh         G(T)/Eh
   ------------------------------------------------------------------------
    298.15    0.881045E-02    0.158726E+00    0.420486E-01    0.116678E+00
   ------------------------------------------------------------------------

         :::::::::::::::::::::::::::::::::::::::::::::::::::::
         ::                  THERMODYNAMIC                  ::
         :::::::::::::::::::::::::::::::::::::::::::::::::::::
         :: total free energy         -20.756459680656 Eh   ::
         ::.................................................::
         :: total energy              -20.873137587796 Eh   ::
         :: zero point energy           0.149916030835 Eh   ::
         :: G(RRHO) w/o ZPVE           -0.033238123694 Eh   ::
         :: G(RRHO) contrib.            0.116677907141 Eh   ::
         :::::::::::::::::::::::::::::::::::::::::::::::::::::

optimized geometry written to: xtbopt.coord


           -------------------------------------------------
          | TOTAL ENERGY              -20.873137587796 Eh   |
          | TOTAL ENTHALPY            -20.714411107083 Eh   |
          | TOTAL FREE ENERGY         -20.756459680656 Eh   |
          | GRADIENT NORM               0.000023743625 Eh/α |
          | HOMO-LUMO GAP               6.900940556480 eV   |
           -------------------------------------------------

------------------------------------------------------------------------
 * finished run on 2025/04/11 at 16:00:45.802     
------------------------------------------------------------------------
 total:
 * wall-time:     0 d,  0 h,  0 min,  1.227 sec
 *  cpu-time:     0 d,  0 h,  0 min,  1.133 sec
 * ratio c/w:     0.924 speedup
 SCF:
 * wall-time:     0 d,  0 h,  0 min,  0.020 sec
 *  cpu-time:     0 d,  0 h,  0 min,  0.013 sec
 * ratio c/w:     0.638 speedup
 ANC optimizer:
 * wall-time:     0 d,  0 h,  0 min,  0.291 sec
 *  cpu-time:     0 d,  0 h,  0 min,  0.276 sec
 * ratio c/w:     0.949 speedup
 analytical hessian:
 * wall-time:     0 d,  0 h,  0 min,  0.845 sec
 *  cpu-time:     0 d,  0 h,  0 min,  0.834 sec
 * ratio c/w:     0.987 speedup

