      -----------------------------------------------------------      
     |                   =====================                   |     
     |                           x T B                           |     
     |                   =====================                   |     
     |                         S. Grimme                         |     
     |          Mulliken Center for Theoretical Chemistry        |     
     |                    University of Bonn                     |     
      -----------------------------------------------------------      

   * xtb version 6.7.1 (edcfbbe) compiled by 'albert@albert-system' on 2024-07-22

   xtb is free software: you can redistribute it and/or modify it under
   the terms of the GNU Lesser General Public License as published by
   the Free Software Foundation, either version 3 of the License, or
   (at your option) any later version.
   
   xtb is distributed in the hope that it will be useful,
   but WITHOUT ANY WARRANTY; without even the implied warranty of
   MERCHANTABILITY or FITNESS FOR A PARTICULAR PURPOSE.  See the
   GNU Lesser General Public License for more details.
   
   Cite this work as:
   * C. Bannwarth, E. Caldeweyher, S. Ehlert, A. Hansen, P. Pracht,
     J. Seibert, S. Spicher, S. Grimme, WIREs Comput. Mol. Sci., 2020, 11,
     e01493. DOI: 10.1002/wcms.1493
   
   for GFN2-xTB:
   * C. Bannwarth, S. Ehlert and S. Grimme., J. Chem. Theory Comput., 2019,
     15, 1652-1671. DOI: 10.1021/acs.jctc.8b01176
   for GFN1-xTB:
   * S. Grimme, C. Bannwarth, P. Shushkov, J. Chem. Theory Comput., 2017,
     13, 1989-2009. DOI: 10.1021/acs.jctc.7b00118
   for GFN0-xTB:
   * P. Pracht, E. Caldeweyher, S. Ehlert, S. Grimme, ChemRxiv, 2019, preprint.
     DOI: 10.26434/chemrxiv.8326202.v1
   for GFN-FF:
   * S. Spicher and S. Grimme, Angew. Chem. Int. Ed., 2020, 59, 15665-15673.
     DOI: 10.1002/anie.202004239
   
   for ALPB and GBSA implicit solvation:
   * S. Ehlert, M. Stahn, S. Spicher, S. Grimme, J. Chem. Theory Comput.,
     2021, 17, 4250-4261. DOI: 10.1021/acs.jctc.1c00471
   
   for ddCOSMO and CPCM-X implicit solvation:
   * M. Stahn, S. Ehlert, S. Grimme, J. Phys. Chem. A,
     2023, XX, XXXX-XXXX. DOI: 10.1021/acs.jpca.3c04382
   
   for DFT-D4:
   * E. Caldeweyher, C. Bannwarth and S. Grimme, J. Chem. Phys., 2017,
     147, 034112. DOI: 10.1063/1.4993215
   * E. Caldeweyher, S. Ehlert, A. Hansen, H. Neugebauer, S. Spicher,
     C. Bannwarth and S. Grimme, J. Chem. Phys., 2019, 150, 154122.
     DOI: 10.1063/1.5090222
   * E. Caldeweyher, J.-M. Mewes, S. Ehlert and S. Grimme, Phys. Chem. Chem. Phys.
     2020, 22, 8499-8512. DOI: 10.1039/D0CP00502A
   
   for sTDA-xTB:
   * S. Grimme and C. Bannwarth, J. Chem. Phys., 2016, 145, 054103.
     DOI: 10.1063/1.4959605
   
   in the mass-spec context:
   * V. Asgeirsson, C. Bauer and S. Grimme, Chem. Sci., 2017, 8, 4879.
     DOI: 10.1039/c7sc00601b
   * J. Koopman and S. Grimme, ACS Omega 2019, 4, 12, 15120-15133.
     DOI: 10.1021/acsomega.9b02011
   
   for metadynamics refer to:
   * S. Grimme, J. Chem. Theory Comput., 2019, 155, 2847-2862
     DOI: 10.1021/acs.jctc.9b00143
   
   for SPH calculations refer to:
   * S. Spicher and S. Grimme, J. Chem. Theory Comput., 2021, 17, 1701-1714
     DOI: 10.1021/acs.jctc.0c01306
   
   for ONIOM refer to:
   * C. Plett, A. Katbashev, S. Ehlert, S. Grimme, M. Bursch,
     Phys. Chem. Chem. Phys., 2023, 25, 17860-17868. DOI: 10.1039/D3CP02178E
   
   for DIPRO refer to:
   * J. Kohn, N. Gildemeister, S. Grimme, D. Fazzi, A. Hansen,
     J. Chem. Phys., 2023, just accepted.
   
   for PTB refer to:
   * S. Grimme, M. Mueller, A. Hansen, J. Chem. Phys., 2023, 158, 124111.
     DOI: 10.1063/5.0137838
   
   with help from (in alphabetical order)
   P. Atkinson, C. Bannwarth, F. Bohle, G. Brandenburg, E. Caldeweyher
   M. Checinski, S. Dohm, S. Ehlert, S. Ehrlich, I. Gerasimov, C. Hölzer
   A. Katbashev, J. Kohn, J. Koopman, C. Lavigne, S. Lehtola, F. März, M. Müller,
   F. Musil, H. Neugebauer, J. Pisarek, C. Plett, P. Pracht, F. Pultar,
   J. Seibert, P. Shushkov, S. Spicher, M. Stahn, M. Steiner, T. Strunk,
   J. Stückrath, T. Rose, and J. Unsleber
   
 * started run on 2025/04/11 at 13:31:10.374     
   ID    Z sym.   atoms
    1    6 C      1, 2, 4-9, 11-17
    2    1 H      3, 20-31
    3    9 F      10
    4    8 O      18, 19

           -------------------------------------------------
          |                Calculation Setup                |
           -------------------------------------------------

          program call               : /software/projects/pawsey0265/mwang1/xtb/bin/xtb gas.coord --gfn2 --sp --chrg 0 --norestart --parallel 1
          hostname                   : nid002050
          coordinate file            : gas.coord
          omp threads                :                     1


           -------------------------------------------------
          |                 G F N 2 - x T B                 |
           -------------------------------------------------

        Reference                      10.1021/acs.jctc.8b01176
      * Hamiltonian:
        H0-scaling (s, p, d)           1.850000    2.230000    2.230000
        zeta-weighting                 0.500000
      * Dispersion:
        s8                             2.700000
        a1                             0.520000
        a2                             5.000000
        s9                             5.000000
      * Repulsion:
        kExp                           1.500000    1.000000
        rExp                           1.000000
      * Coulomb:
        alpha                          2.000000
        third order                    shell-resolved
        anisotropic                    true
        a3                             3.000000
        a5                             4.000000
        cn-shift                       1.200000
        cn-exp                         4.000000
        max-rad                        5.000000


          ...................................................
          :                      SETUP                      :
          :.................................................:
          :  # basis functions                  85          :
          :  # atomic orbitals                  85          :
          :  # shells                           49          :
          :  # electrons                        92          :
          :  max. iterations                   250          :
          :  Hamiltonian                  GFN2-xTB          :
          :  restarted?                      false          :
          :  GBSA solvation                  false          :
          :  PC potential                    false          :
          :  electronic temp.          300.0000000     K    :
          :  accuracy                    1.0000000          :
          :  -> integral cutoff          0.2500000E+02      :
          :  -> integral neglect         0.1000000E-07      :
          :  -> SCF convergence          0.1000000E-05 Eh   :
          :  -> wf. convergence          0.1000000E-03 e    :
          :  Broyden damping             0.4000000          :
          :  net charge                          0          :
          :  unpaired electrons                  0          :
          ...................................................

 iter      E             dE          RMSdq      gap      omega  full diag
   1    -52.3114686 -0.523115E+02  0.453E+00    3.67       0.0  T
   2    -52.3697351 -0.582665E-01  0.262E+00    3.63       1.0  T
   3    -52.3646443  0.509080E-02  0.130E+00    3.64       1.0  T
   4    -52.3795715 -0.149272E-01  0.279E-01    3.59       1.0  T
   5    -52.3808569 -0.128539E-02  0.974E-02    3.58       1.0  T
   6    -52.3810130 -0.156121E-03  0.413E-02    3.58       1.0  T
   7    -52.3810249 -0.119167E-04  0.202E-02    3.59       1.0  T
   8    -52.3810329 -0.799238E-05  0.658E-03    3.59       2.7  T
   9    -52.3810333 -0.413975E-06  0.223E-03    3.59       8.1  T
  10    -52.3810334 -0.342661E-07  0.991E-04    3.59      18.1  T
  11    -52.3810334 -0.110497E-07  0.447E-04    3.59      40.2  T

   *** convergence criteria satisfied after 11 iterations ***

         #    Occupation            Energy/Eh            Energy/eV
      -------------------------------------------------------------
         1        2.0000           -0.8097457             -22.0343
       ...           ...                  ...                  ...
        40        2.0000           -0.4354619             -11.8495
        41        2.0000           -0.4241128             -11.5407
        42        2.0000           -0.4237030             -11.5295
        43        2.0000           -0.4151226             -11.2961
        44        2.0000           -0.4132171             -11.2442
        45        2.0000           -0.4062659             -11.0551
        46        2.0000           -0.3912756             -10.6472 (HOMO)
        47                         -0.2593511              -7.0573 (LUMO)
        48                         -0.2364543              -6.4342
        49                         -0.2356990              -6.4137
        50                         -0.2243942              -6.1061
        51                         -0.2063056              -5.6139
       ...                                ...                  ...
        85                          0.6810362              18.5319
      -------------------------------------------------------------
                  HL-Gap            0.1319245 Eh            3.5898 eV
             Fermi-level           -0.3253134 Eh           -8.8522 eV

 SCC (total)                   0 d,  0 h,  0 min,  0.068 sec
 SCC setup                      ...        0 min,  0.001 sec (  0.978%)
 Dispersion                     ...        0 min,  0.001 sec (  1.103%)
 classical contributions        ...        0 min,  0.000 sec (  0.207%)
 integral evaluation            ...        0 min,  0.014 sec ( 19.880%)
 iterations                     ...        0 min,  0.032 sec ( 46.813%)
 molecular gradient             ...        0 min,  0.021 sec ( 30.631%)
 printout                       ...        0 min,  0.000 sec (  0.345%)

         :::::::::::::::::::::::::::::::::::::::::::::::::::::
         ::                     SUMMARY                     ::
         :::::::::::::::::::::::::::::::::::::::::::::::::::::
         :: total energy             -51.618615007335 Eh    ::
         :: gradient norm              0.032333198722 Eh/a0 ::
         :: HOMO-LUMO gap              3.589847514425 eV    ::
         ::.................................................::
         :: SCC energy               -52.381065615307 Eh    ::
         :: -> isotropic ES            0.062326836493 Eh    ::
         :: -> anisotropic ES          0.002123634936 Eh    ::
         :: -> anisotropic XC          0.015635732937 Eh    ::
         :: -> dispersion             -0.031566432066 Eh    ::
         :: repulsion energy           0.762450607972 Eh    ::
         :: add. restraining           0.000000000000 Eh    ::
         :: total charge              -0.000000000000 e     ::
         :::::::::::::::::::::::::::::::::::::::::::::::::::::

           -------------------------------------------------
          |                Property Printout                |
           -------------------------------------------------

    * Orbital Energies and Occupations

         #    Occupation            Energy/Eh            Energy/eV
      -------------------------------------------------------------
         1        2.0000           -0.8097457             -22.0343
       ...           ...                  ...                  ...
        34        2.0000           -0.4750475             -12.9267
        35        2.0000           -0.4721235             -12.8471
        36        2.0000           -0.4708970             -12.8138
        37        2.0000           -0.4594506             -12.5023
        38        2.0000           -0.4518251             -12.2948
        39        2.0000           -0.4407251             -11.9927
        40        2.0000           -0.4354619             -11.8495
        41        2.0000           -0.4241128             -11.5407
        42        2.0000           -0.4237030             -11.5295
        43        2.0000           -0.4151226             -11.2961
        44        2.0000           -0.4132171             -11.2442
        45        2.0000           -0.4062659             -11.0551
        46        2.0000           -0.3912756             -10.6472 (HOMO)
        47                         -0.2593511              -7.0573 (LUMO)
        48                         -0.2364543              -6.4342
        49                         -0.2356990              -6.4137
        50                         -0.2243942              -6.1061
        51                         -0.2063056              -5.6139
        52                         -0.1133230              -3.0837
        53                         -0.0837980              -2.2803
        54                          0.0255374               0.6949
        55                          0.0364161               0.9909
        56                          0.0793136               2.1582
        57                          0.0939159               2.5556
       ...                                ...                  ...
        85                          0.6810362              18.5319
      -------------------------------------------------------------
                  HL-Gap            0.1319245 Eh            3.5898 eV
             Fermi-level           -0.3253134 Eh           -8.8522 eV

     #   Z          covCN         q      C6AA      α(0)
     1   6 C        3.755    -0.108    22.629     6.783
     2   6 C        3.858    -0.042    21.279     6.560
     3   1 H        0.924     0.065     2.146     2.291
     4   6 C        2.988     0.014    27.687     8.631
     5   6 C        2.919    -0.041    29.027     8.835
     6   6 C        2.931    -0.036    28.900     8.816
     7   6 C        2.972    -0.005    28.148     8.703
     8   6 C        2.791     0.162    24.498     8.108
     9   6 C        2.921    -0.058    29.452     8.900
    10   9 F        0.786    -0.233    11.584     4.020
    11   6 C        2.976     0.018    27.604     8.618
    12   6 C        2.924    -0.027    28.675     8.782
    13   6 C        2.919    -0.028    28.704     8.786
    14   6 C        2.920    -0.029    28.727     8.789
    15   6 C        2.919    -0.029    28.719     8.788
    16   6 C        2.925    -0.034    28.843     8.807
    17   6 C        2.706     0.364    20.829     7.470
    18   8 O        0.856    -0.414    21.968     6.284
    19   8 O        1.659    -0.367    20.220     6.070
    20   1 H        0.925     0.046     2.365     2.405
    21   1 H        0.925     0.064     2.155     2.295
    22   1 H        0.925     0.050     2.317     2.380
    23   1 H        0.926     0.057     2.237     2.339
    24   1 H        0.926     0.049     2.334     2.389
    25   1 H        0.926     0.062     2.180     2.309
    26   1 H        0.926     0.042     2.426     2.436
    27   1 H        0.926     0.034     2.534     2.489
    28   1 H        0.926     0.032     2.559     2.501
    29   1 H        0.926     0.032     2.562     2.503
    30   1 H        0.926     0.032     2.559     2.502
    31   1 H        0.803     0.331     0.634     1.251

 Mol. C6AA /au·bohr⁶  :      11932.045607
 Mol. C8AA /au·bohr⁸  :     290298.084988
 Mol. α(0) /au        :        171.840388


Wiberg/Mayer (AO) data.
largest (>0.10) Wiberg bond orders for each atom

 ---------------------------------------------------------------------------
     #   Z sym  total        # sym  WBO       # sym  WBO       # sym  WBO
 ---------------------------------------------------------------------------
     1   6 C    3.991 --     2 C    1.001    20 H    0.986    22 H    0.985
                            21 H    0.981
     2   6 C    3.991 --     1 C    1.001     4 C    0.971     3 H    0.958
                            17 C    0.939
     3   1 H    0.995 --     2 C    0.958
     4   6 C    3.981 --     5 C    1.402     9 C    1.402     2 C    0.971
     5   6 C    3.990 --     6 C    1.455     4 C    1.402    23 H    0.965
     6   6 C    3.990 --     5 C    1.455     7 C    1.384    24 H    0.967
                             9 C    0.105
     7   6 C    3.984 --     6 C    1.384     8 C    1.350    11 C    1.043
     8   6 C    3.884 --     9 C    1.416     7 C    1.350    10 F    0.949
     9   6 C    3.988 --     8 C    1.416     4 C    1.402    25 H    0.964
                             6 C    0.105
    10   9 F    1.078 --     8 C    0.949
    11   6 C    3.989 --    12 C    1.393    16 C    1.388     7 C    1.043
                            14 C    0.106
    12   6 C    3.990 --    13 C    1.448    11 C    1.393    26 H    0.970
                            15 C    0.109
    13   6 C    3.992 --    12 C    1.448    14 C    1.437    27 H    0.971
                            16 C    0.109
    14   6 C    3.987 --    13 C    1.437    15 C    1.433    28 H    0.972
                            11 C    0.106
    15   6 C    3.992 --    16 C    1.452    14 C    1.433    29 H    0.971
                            12 C    0.109
    16   6 C    3.991 --    15 C    1.452    11 C    1.388    30 H    0.969
                            13 C    0.109
    17   6 C    3.910 --    18 O    1.754    19 O    1.150     2 C    0.939
    18   8 O    2.032 --    17 C    1.754    19 O    0.173
    19   8 O    2.214 --    17 C    1.150    31 H    0.861    18 O    0.173
    20   1 H    0.997 --     1 C    0.986
    21   1 H    0.996 --     1 C    0.981
    22   1 H    0.997 --     1 C    0.985
    23   1 H    0.996 --     5 C    0.965
    24   1 H    0.997 --     6 C    0.967
    25   1 H    0.996 --     9 C    0.964
    26   1 H    0.998 --    12 C    0.970
    27   1 H    0.998 --    13 C    0.971
    28   1 H    0.999 --    14 C    0.972
    29   1 H    0.998 --    15 C    0.971
    30   1 H    0.999 --    16 C    0.969
    31   1 H    0.889 --    19 O    0.861
 ---------------------------------------------------------------------------

Topologies differ in total number of bonds
Writing topology from bond orders to xtbtopo.mol

molecular dipole:
                 x           y           z       tot (Debye)
 q only:       -0.112      -0.031      -0.384
   full:       -0.192      -0.064      -0.222       0.764
molecular quadrupole (traceless):
                xx          xy          yy          xz          yz          zz
 q only:        2.707      11.009      -9.093      -1.780       0.387       6.385
  q+dip:        6.376      13.768     -13.814      -4.444      -0.790       7.438
   full:        4.595      12.914     -12.046      -4.330       1.216       7.451


           -------------------------------------------------
          | TOTAL ENERGY              -51.618615007335 Eh   |
          | GRADIENT NORM               0.032333198722 Eh/α |
          | HOMO-LUMO GAP               3.589847514425 eV   |
           -------------------------------------------------

------------------------------------------------------------------------
 * finished run on 2025/04/11 at 13:31:10.479     
------------------------------------------------------------------------
 total:
 * wall-time:     0 d,  0 h,  0 min,  0.103 sec
 *  cpu-time:     0 d,  0 h,  0 min,  0.092 sec
 * ratio c/w:     0.896 speedup
 SCF:
 * wall-time:     0 d,  0 h,  0 min,  0.068 sec
 *  cpu-time:     0 d,  0 h,  0 min,  0.068 sec
 * ratio c/w:     0.999 speedup

