
                                 *****************
                                 * O   R   C   A *
                                 *****************

                                            #,                                       
                                            ###                                      
                                            ####                                     
                                            #####                                    
                                            ######                                   
                                           ########,                                 
                                     ,,################,,,,,                         
                               ,,#################################,,                 
                          ,,##########################################,,             
                       ,#########################################, ''#####,          
                    ,#############################################,,   '####,        
                  ,##################################################,,,,####,       
                ,###########''''           ''''###############################       
              ,#####''   ,,,,##########,,,,          '''####'''          '####       
            ,##' ,,,,###########################,,,                        '##       
           ' ,,###''''                  '''############,,,                           
         ,,##''                                '''############,,,,        ,,,,,,###''
      ,#''                                            '''#######################'''  
     '                                                          ''''####''''         
             ,#######,   #######,   ,#######,      ##                                
            ,#'     '#,  ##    ##  ,#'     '#,    #''#        ,####,   ,####,        
            ##       ##  ##   ,#'  ##            #'  '#       #'       #'  '#        
            ##       ##  #######   ##           ,######,      #####,   #    #        
            '#,     ,#'  ##    ##  '#,     ,#' ,#      #,     #,   #   #,  ,#        
             '#######'   ##     ##  '#######'  #'      '#     '####' # '####'        



                #########################################################
                #                        -***-                          #
                #          Department of theory and spectroscopy        #
                #                                                       #
                #                      Frank Neese                      #
                #                                                       #
                #     Directorship, Architecture, Infrastructure        #
                #                    SHARK, DRIVERS                     #
                #        Core code/Algorithms in most modules           #
                #                                                       #
                #        Max Planck Institute fuer Kohlenforschung      #
                #                Kaiser Wilhelm Platz 1                 #
                #                 D-45470 Muelheim/Ruhr                 #
                #                      Germany                          #
                #                                                       #
                #                  All rights reserved                  #
                #                        -***-                          #
                #########################################################


                         Program Version 6.0.0  -   RELEASE  -


 With contributions from (in alphabetic order):
   Daniel Aravena         : Magnetic Suceptibility
   Michael Atanasov       : Ab Initio Ligand Field Theory (pilot matlab implementation)
   Alexander A. Auer      : GIAO ZORA, VPT2 properties, NMR spectrum
   Ute Becker             : All parallelization in ORCA, NUMFREQ, NUMCALC
   Giovanni Bistoni       : ED, misc. LED, open-shell LED, HFLD
   Martin Brehm           : Molecular dynamics
   Dmytro Bykov           : pre 5.0 version of the SCF Hessian
   Marcos Casanova-Páez   : Triplet and SCS-CIS(D). UHF-(DLPNO)-IP/EA/STEOM-CCSD. UHF-CVS-IP/STEOM-CCSD
   Vijay G. Chilkuri      : MRCI spin determinant printing, contributions to CSF-ICE
   Pauline Colinet        : FMM embedding
   Dipayan Datta          : RHF DLPNO-CCSD density
   Achintya Kumar Dutta   : EOM-CC, STEOM-CC
   Nicolas Foglia         : Exact transition moments, OPA infrastructure, MCD improvements
   Dmitry Ganyushin       : Spin-Orbit,Spin-Spin,Magnetic field MRCI
   Miquel Garcia          : C-PCM and meta-GGA Hessian, CCSD/C-PCM, Gaussian charge scheme
   Tiago L. C. Gouveia    : GS-ROHF, GS-ROCIS
   Yang Guo               : DLPNO-NEVPT2, F12-NEVPT2, CIM, IAO-localization
   Andreas Hansen         : Spin unrestricted coupled pair/coupled cluster methods
   Ingolf Harden          : AUTO-CI MPn and infrastructure 
   Benjamin Helmich-Paris : MC-RPA, TRAH-(SCF,CASSCF), AVAS, COSX integrals, SCF dyn. polar.
   Lee Huntington         : MR-EOM, pCC
   Robert Izsak           : Overlap fitted RIJCOSX, COSX-SCS-MP3, EOM
   Riya Kayal             : Wick's Theorem for AUTO-CI, AUTO-CI UHF-CCSDT
   Emily Kempfer          : AUTO-CI, RHF CISDT and CCSDT
   Christian Kollmar      : KDIIS, OOCD, Brueckner-CCSD(T), CCSD density, CASPT2, CASPT2-K, improved NEVPT2
   Axel Koslowski         : Symmetry handling
   Simone Kossmann        : Meta GGA functionals, TD-DFT gradient, OOMP2, (MP2 Hessian; deprecated post 5.0)
   Lucas Lang             : DCDCAS
   Marvin Lechner         : AUTO-CI (C++ implementation), FIC-MRCC
   Spencer Leger          : CASSCF response
   Dagmar Lenk            : GEPOL surface, SMD, ORCA-2-JSON
   Dimitrios Liakos       : Extrapolation schemes; Compound Job, initial MDCI parallelization
   Dimitrios Manganas     : Further ROCIS development; embedding schemes. LFT, Crystal Embedding
   Dimitrios Pantazis     : SARC Basis sets
   Anastasios Papadopoulos: AUTO-CI, single reference methods and gradients
   Taras Petrenko         : pre 6.0 DFT Hessian and TD-DFT gradient, (ASA, deprecated), ECA, 1-Electron XAS/XES, NRVS
   Peter Pinski           : DLPNO-MP2, DLPNO-MP2 Gradient
   Christoph Reimann      : Effective Core Potentials
   Marius Retegan         : Local ZFS, SOC
   Christoph Riplinger    : Optimizer, TS searches, QM/MM, DLPNO-CCSD(T), (RO)-DLPNO pert. Triples
   Michael Roemelt        : Original ROCIS implementation
   Masaaki Saitow         : Open-shell DLPNO-CCSD energy and density
   Barbara Sandhoefer     : DKH picture change effects
   Kantharuban Sivalingam : CASSCF convergence/infrastructure, NEVPT2 and variants, FIC-MRCI
   Bernardo de Souza      : ESD, SOC TD-DFT
   Georgi Stoychev        : AutoAux, RI-MP2 NMR, DLPNO-MP2 response, X2C
   Van Anh Tran           : RI-MP2 g-tensors
   Willem Van den Heuvel  : Paramagnetic NMR
   Zikuan Wang            : NOTCH, Electric field optimization 
   Frank Wennmohs         : Technical directorship and infrastructure
   Hang Xu                : AUTO-CI-Response properties 


 We gratefully acknowledge several colleagues who have allowed us to
 interface, adapt or use parts of their codes:
   Stefan Grimme, W. Hujo, H. Kruse, P. Pracht,  : VdW corrections, initial TS optimization,
                  C. Bannwarth, S. Ehlert,         DFT functionals, gCP, sTDA/sTD-DF
                  L. Wittmann, M. Mueller
   Ed Valeev, F. Pavosevic, A. Kumar             : LibInt (2-el integral package), F12 methods
   Garnet Chan, S. Sharma, J. Yang, R. Olivares  : DMRG
   Ulf Ekstrom                                   : XCFun DFT Library
   Mihaly Kallay                                 : mrcc  (arbitrary order and MRCC methods)
   Frank Weinhold                                : gennbo (NPA and NBO analysis)
   Simon Mueller                                 : openCOSMO-RS
   Christopher J. Cramer and Donald G. Truhlar   : smd solvation model
   Lars Goerigk                                  : TD-DFT with DH, B97 family of functionals
   V. Asgeirsson, H. Jonsson                     : NEB implementation
   FAccTs GmbH                                   : IRC, NEB, NEB-TS, DLPNO-Multilevel, CI-OPT
                                                   MM, QMMM, 2- and 3-layer-ONIOM, Crystal-QMMM,
                                                   LR-CPCM, SF, NACMEs, symmetry and pop. for TD-DFT,
                                                   nearIR, NL-DFT gradient (VV10), updates on ESD,
                                                   ML-optimized integration grids, MBIS, APM,
                                                   GOAT, DOCKER, SOLVATOR, interface openCOSMO-RS
   S Lehtola, MJT Oliveira, MAL Marques          : LibXC Library
   Liviu Ungur et al                             : ANISO software


 Your calculation uses the libint2 library for the computation of 2-el integrals
 For citations please refer to: http://libint.valeyev.net

 Your ORCA version has been built with support for libXC version: 6.2.2
 For citations please refer to: https://libxc.gitlab.io

 This ORCA versions uses:
   CBLAS   interface :  Fast vector & matrix operations
   LAPACKE interface :  Fast linear algebra routines
   SCALAPACK package :  Parallel linear algebra routines
   Shared memory     :  Shared parallel matrices
   BLAS/LAPACK       :  OpenBLAS 0.3.27  USE64BITINT DYNAMIC_ARCH NO_AFFINITY SkylakeX SINGLE_THREADED
        Core in use  :  SkylakeX
   Copyright (c) 2011-2014, The OpenBLAS Project


Your calculation utilizes the geometrical counterpoise correction gCP
Please cite in your paper:
H.Kruse, S. Grimme J.Chem.Phys., 136, (2012), 154101 
   

Your calculation utilizes the atom-pairwise dispersion correction
based on EEQ partial charges (D4)


Your calculation utilizes the SMD solvation module
Please cite in your paper:
A.V. Marenich, C.J. Cramer, D.G. Truhlar J. Phys. Chem. B, 113, (2009), 6378 

================================================================================

----- Orbital basis set information -----
Your calculation utilizes the basis: def2-mTZVPP
   Stefan Grimme, Andreas Hansen, Sebastian Ehlert, and Jan-Michael Mewes 
   J. Chem. Phys. 154, 064103 (2021). DOI: 10.1063/5.0040021

----- AuxJ basis set information -----
Your calculation utilizes the auxiliary basis: def2/J
   F. Weigend, Phys. Chem. Chem. Phys. 8, 1057 (2006).

================================================================================
                                        WARNINGS
                       Please study these warnings very carefully!
================================================================================

Using LibXC functional ID 497 : Re-regularized SCAN exchange by Furness et al
[ 1]  J. W. Furness, A. D. Kaplan, J. Ning, J. P. Perdew, and J. Sun.,  J. Phys. Chem. Lett. 11, 8208-8215 (2020)
[ 2]  J. W. Furness, A. D. Kaplan, J. Ning, J. P. Perdew, and J. Sun.,  J. Phys. Chem. Lett. 11, 9248-9248 (2020)
Using LibXC functional ID 498 : Re-regularized SCAN correlation by Furness et al
[ 1]  J. W. Furness, A. D. Kaplan, J. Ning, J. P. Perdew, and J. Sun.,  J. Phys. Chem. Lett. 11, 8208-8215 (2020)
[ 2]  J. W. Furness, A. D. Kaplan, J. Ning, J. P. Perdew, and J. Sun.,  J. Phys. Chem. Lett. 11, 9248-9248 (2020)
Using LibXC functional ID 497 : Re-regularized SCAN exchange by Furness et al
[ 1]  J. W. Furness, A. D. Kaplan, J. Ning, J. P. Perdew, and J. Sun.,  J. Phys. Chem. Lett. 11, 8208-8215 (2020)
[ 2]  J. W. Furness, A. D. Kaplan, J. Ning, J. P. Perdew, and J. Sun.,  J. Phys. Chem. Lett. 11, 9248-9248 (2020)
Using LibXC functional ID 498 : Re-regularized SCAN correlation by Furness et al
[ 1]  J. W. Furness, A. D. Kaplan, J. Ning, J. P. Perdew, and J. Sun.,  J. Phys. Chem. Lett. 11, 8208-8215 (2020)
[ 2]  J. W. Furness, A. D. Kaplan, J. Ning, J. P. Perdew, and J. Sun.,  J. Phys. Chem. Lett. 11, 9248-9248 (2020)

================================================================================
                                       INPUT FILE
================================================================================
NAME = sp_solv.inp
|  1> ! r2scan-3c def2/J RI DEFGRID2 scfconv6 printgap
|  2> %output
|  3>     printlevel normal
|  4> end
|  5> %cpcm
|  6>     smd true
|  7>     smdsolvent "water"
|  8> end
|  9> * xyz 0 1
| 10> C -3.6385185758 -0.6185266138 0.2375514181
| 11> C -2.3054495897 -0.3086111021 -0.4308431212
| 12> C -1.1983463514 -0.1031416377 0.6002116888
| 13> C 0.1062073482 0.3009524247 -0.0346700549
| 14> O 0.2344301347 0.7280116929 -1.1622966867
| 15> O 1.1187787885 0.1524090381 0.8146020449
| 16> C 2.4401788961 0.5065705881 0.3719752128
| 17> C 3.1035419681 -0.649926278 -0.3601489421
| 18> H -4.4092352757 -0.7708467987 -0.5128169572
| 19> H -3.5616114076 -1.5197309725 0.8406224613
| 20> H -3.9425697334 0.2029154892 0.8814321737
| 21> H -2.3910130203 0.592655138 -1.0405379977
| 22> H -2.0257001823 -1.1257538789 -1.0983956425
| 23> H -1.0289497765 -1.0050041227 1.1893884402
| 24> H -1.4767985932 0.6938366278 1.2943571698
| 25> H 2.3667893417 1.3826226118 -0.2795780391
| 26> H 2.9769673163 0.7578328906 1.2871343708
| 27> H 4.1202854818 -0.3747270748 -0.620636896
| 28> H 3.1208232404 -1.5329967246 0.2728074781
| 29> H 2.5547342642 -0.8769640235 -1.2714545087
| 30> *
| 31> 
| 32>                          ****END OF INPUT****
================================================================================

                       ****************************
                       * Single Point Calculation *
                       ****************************

---------------------------------
CARTESIAN COORDINATES (ANGSTROEM)
---------------------------------
  C     -3.638519   -0.618527    0.237551
  C     -2.305450   -0.308611   -0.430843
  C     -1.198346   -0.103142    0.600212
  C      0.106207    0.300952   -0.034670
  O      0.234430    0.728012   -1.162297
  O      1.118779    0.152409    0.814602
  C      2.440179    0.506571    0.371975
  C      3.103542   -0.649926   -0.360149
  H     -4.409235   -0.770847   -0.512817
  H     -3.561611   -1.519731    0.840622
  H     -3.942570    0.202915    0.881432
  H     -2.391013    0.592655   -1.040538
  H     -2.025700   -1.125754   -1.098396
  H     -1.028950   -1.005004    1.189388
  H     -1.476799    0.693837    1.294357
  H      2.366789    1.382623   -0.279578
  H      2.976967    0.757833    1.287134
  H      4.120285   -0.374727   -0.620637
  H      3.120823   -1.532997    0.272807
  H      2.554734   -0.876964   -1.271455

----------------------------
CARTESIAN COORDINATES (A.U.)
----------------------------
  NO LB      ZA    FRAG     MASS         X           Y           Z
   0 C     6.0000    0    12.011   -6.875804   -1.168846    0.448907
   1 C     6.0000    0    12.011   -4.356668   -0.583190   -0.814176
   2 C     6.0000    0    12.011   -2.264546   -0.194909    1.134236
   3 C     6.0000    0    12.011    0.200703    0.568718   -0.065517
   4 O     8.0000    0    15.999    0.443009    1.375743   -2.196422
   5 O     8.0000    0    15.999    2.114186    0.288011    1.539375
   6 C     6.0000    0    12.011    4.611270    0.957280    0.702931
   7 C     6.0000    0    12.011    5.864844   -1.228183   -0.680583
   8 H     1.0000    0     1.008   -8.332247   -1.456689   -0.969084
   9 H     1.0000    0     1.008   -6.730470   -2.871875    1.588546
  10 H     1.0000    0     1.008   -7.450377    0.383455    1.665665
  11 H     1.0000    0     1.008   -4.518360    1.119956   -1.966332
  12 H     1.0000    0     1.008   -3.828019   -2.127367   -2.075667
  13 H     1.0000    0     1.008   -1.944433   -1.899183    2.247618
  14 H     1.0000    0     1.008   -2.790745    1.311161    2.445981
  15 H     1.0000    0     1.008    4.472584    2.612778   -0.528326
  16 H     1.0000    0     1.008    5.625653    1.432097    2.432331
  17 H     1.0000    0     1.008    7.786211   -0.708132   -1.172834
  18 H     1.0000    0     1.008    5.897501   -2.896944    0.515531
  19 H     1.0000    0     1.008    4.827748   -1.657222   -2.402701

--------------------------------
INTERNAL COORDINATES (ANGSTROEM)
--------------------------------
 C      0   0   0     0.000000000000     0.00000000     0.00000000
 C      1   0   0     1.523112538935     0.00000000     0.00000000
 C      2   1   0     1.526751224751   111.44981808     0.00000000
 C      3   2   1     1.506063476382   112.30515008   184.07837112
 O      4   3   2     1.212585057750   125.31746288    16.62566715
 O      4   3   2     1.329898176145   111.12144578   195.51394195
 C      6   4   3     1.437862010194   118.39998758   180.58937036
 C      7   6   4     1.521032986092   111.20430824   274.36528494
 H      1   2   3     1.086396966529   110.26333229   180.56835155
 H      1   2   3     1.087096450094   110.50004003   300.49766959
 H      1   2   3     1.087104715495   110.54590973    60.64768825
 H      2   1   3     1.091480544321   110.15340345   239.08197103
 H      2   1   3     1.091608179390   109.89776900   121.12248742
 H      3   2   1     1.090495477216   111.48203699    62.24448894
 H      3   2   1     1.092953775526   110.01692291   303.17170386
 H      7   6   4     1.094246231424   108.59382553    36.24656042
 H      7   6   4     1.090316851741   104.52637664   154.07256768
 H      8   7   6     1.085060343124   109.35251641   183.82897940
 H      8   7   6     1.086621316698   110.14921650   304.00273145
 H      8   7   6     1.087756346549   109.99342654    64.23384734

---------------------------
INTERNAL COORDINATES (A.U.)
---------------------------
 C      0   0   0     0.000000000000     0.00000000     0.00000000
 C      1   0   0     2.878265569728     0.00000000     0.00000000
 C      2   1   0     2.885141689409   111.44981808     0.00000000
 C      3   2   1     2.846047510663   112.30515008   184.07837112
 O      4   3   2     2.291453673232   125.31746288    16.62566715
 O      4   3   2     2.513143338915   111.12144578   195.51394195
 C      6   4   3     2.717165417636   118.39998758   180.58937036
 C      7   6   4     2.874335784375   111.20430824   274.36528494
 H      1   2   3     2.052992739462   110.26333229   180.56835155
 H      1   2   3     2.054314571835   110.50004003   300.49766959
 H      1   2   3     2.054330191180   110.54590973    60.64768825
 H      2   1   3     2.062599309269   110.15340345   239.08197103
 H      2   1   3     2.062840504595   109.89776900   121.12248742
 H      3   2   1     2.060737802218   111.48203699    62.24448894
 H      3   2   1     2.065383312779   110.01692291   303.17170386
 H      7   6   4     2.067825700467   108.59382553    36.24656042
 H      7   6   4     2.060400248989   104.52637664   154.07256768
 H      8   7   6     2.050466887283   109.35251641   183.82897940
 H      8   7   6     2.053416699841   110.14921650   304.00273145
 H      8   7   6     2.055561595413   109.99342654    64.23384734

---------------------
BASIS SET INFORMATION
---------------------
There are 3 groups of distinct atoms

 Group   1 Type C   : 11s6p1d contracted to 5s3p1d pattern {62111/411/1}
 Group   2 Type O   : 11s6p2d contracted to 5s3p2d pattern {62111/411/11}
 Group   3 Type H   : 4s1p contracted to 2s1p pattern {31/1}

Atom   0C    basis set group =>   1
Atom   1C    basis set group =>   1
Atom   2C    basis set group =>   1
Atom   3C    basis set group =>   1
Atom   4O    basis set group =>   2
Atom   5O    basis set group =>   2
Atom   6C    basis set group =>   1
Atom   7C    basis set group =>   1
Atom   8H    basis set group =>   3
Atom   9H    basis set group =>   3
Atom  10H    basis set group =>   3
Atom  11H    basis set group =>   3
Atom  12H    basis set group =>   3
Atom  13H    basis set group =>   3
Atom  14H    basis set group =>   3
Atom  15H    basis set group =>   3
Atom  16H    basis set group =>   3
Atom  17H    basis set group =>   3
Atom  18H    basis set group =>   3
Atom  19H    basis set group =>   3
---------------------------------
AUXILIARY/J BASIS SET INFORMATION
---------------------------------
There are 3 groups of distinct atoms

 Group   1 Type C   : 12s5p4d2f1g contracted to 6s4p3d1f1g pattern {711111/2111/211/2/1}
 Group   2 Type O   : 12s5p4d2f1g contracted to 6s4p3d1f1g pattern {711111/2111/211/2/1}
 Group   3 Type H   : 5s2p1d contracted to 3s1p1d pattern {311/2/1}

Atom   0C    basis set group =>   1
Atom   1C    basis set group =>   1
Atom   2C    basis set group =>   1
Atom   3C    basis set group =>   1
Atom   4O    basis set group =>   2
Atom   5O    basis set group =>   2
Atom   6C    basis set group =>   1
Atom   7C    basis set group =>   1
Atom   8H    basis set group =>   3
Atom   9H    basis set group =>   3
Atom  10H    basis set group =>   3
Atom  11H    basis set group =>   3
Atom  12H    basis set group =>   3
Atom  13H    basis set group =>   3
Atom  14H    basis set group =>   3
Atom  15H    basis set group =>   3
Atom  16H    basis set group =>   3
Atom  17H    basis set group =>   3
Atom  18H    basis set group =>   3
Atom  19H    basis set group =>   3

Checking for AutoStart:
The File: sp_solv.gbw exists
Trying to determine its content:
     ... Fine, the file contains calculation information
     ... Fine, the calculation information was read
     ... Fine, the file contains a basis set
     ... Fine, the basis set was read
     ... Fine, the file contains a geometry
     ... Fine, the geometry was read
     ... Fine, the file contains a set of orbitals
     ... Fine, the orbitals can be read
     => possible old guess file was deleted
     => GBW file was renamed to GES file
     => GES file is set as startup file
     => Guess is set to MORead
     ... now leaving AutoStart

------------------------------------------------------------------------------
                             ORCA STARTUP CALCULATIONS
                           -- RI-GTO INTEGRALS CHOSEN --
------------------------------------------------------------------------------
------------------------------------------------------------------------------
                   ___                                                        
                  /   \      - P O W E R E D   B Y -                         
                 /     \                                                     
                 |  |  |   _    _      __       _____    __    __             
                 |  |  |  | |  | |    /  \     |  _  \  |  |  /  |          
                  \  \/   | |  | |   /    \    | | | |  |  | /  /          
                 / \  \   | |__| |  /  /\  \   | |_| |  |  |/  /          
                |  |  |   |  __  | /  /__\  \  |    /   |      \           
                |  |  |   | |  | | |   __   |  |    \   |  |\   \          
                \     /   | |  | | |  |  |  |  | |\  \  |  | \   \       
                 \___/    |_|  |_| |__|  |__|  |_| \__\ |__|  \__/        
                                                                              
                      - O R C A' S   B I G   F R I E N D -                    
                                      &                                       
                       - I N T E G R A L  F E E D E R -                       
                                                                              
 v1 FN, 2020, v2 2021, v3 2022-2024                                           
------------------------------------------------------------------------------


----------------------
SHARK INTEGRAL PACKAGE
----------------------

Number of atoms                             ...     20
Number of basis functions                   ...    222
Number of shells                            ...    110
Maximum angular momentum                    ...      2
Integral batch strategy                     ... SHARK/LIBINT Hybrid
RI-J (if used) integral strategy            ... SPLIT-RIJ (Revised 2003 algorithm where possible)
Printlevel                                  ...      1
Contraction scheme used                     ... SEGMENTED contraction
Prescreening option                         ... SCHWARTZ
   Thresh                                   ... 1.000e-10
   Tcut                                     ... 1.000e-11
   Tpresel                                  ... 1.000e-11 
Coulomb Range Separation                    ... NOT USED
Exchange Range Separation                   ... NOT USED
Multipole approximations                    ... NOT USED
Finite Nucleus Model                        ... NOT USED
CABS basis                                  ... NOT available
Auxiliary Coulomb fitting basis             ... AVAILABLE
   # of basis functions in Aux-J            ...    524
   # of shells in Aux-J                     ...    180
   Maximum angular momentum in Aux-J        ...      4
Auxiliary J/K fitting basis                 ... NOT available
Auxiliary Correlation fitting basis         ... NOT available
Auxiliary 'external' fitting basis          ... NOT available

Checking pre-screening integrals            ... done (  0.0 sec) Dimension = 110
Check shell pair data                       ... done (  0.0 sec)
Shell pair information
Shell pair cut-off parameter TPreSel        ...   1.0e-11
Total number of shell pairs                 ...      6105
Shell pairs after pre-screening             ...      5152
Total number of primitive shell pairs       ...     21533
Primitive shell pairs kept                  ...     12877
          la=0 lb=0:   1729 shell pairs
          la=1 lb=0:   1944 shell pairs
          la=1 lb=1:    565 shell pairs
          la=2 lb=0:    552 shell pairs
          la=2 lb=1:    313 shell pairs
          la=2 lb=2:     49 shell pairs

Calculating one electron integrals          ... done (  0.0 sec)
Calculating RI/J V-Matrix + Cholesky decomp.... done (  0.1 sec)
Calculating Nuclear repulsion               ... done (  0.0 sec) ENN=    387.695712411947 Eh

Diagonalization of the overlap matrix:
Smallest eigenvalue                        ... 1.083e-04
Time for diagonalization                   ...    0.012 sec
Threshold for overlap eigenvalues          ... 1.000e-07
Number of eigenvalues below threshold      ... 0
Time for construction of square roots      ...    0.014 sec
Total time needed                          ...    0.036 sec

-------------------
DFT GRID GENERATION
-------------------

General Integration Accuracy     IntAcc      ... 4.388
Radial Grid Type                 RadialGrid  ... OptM3 with GC (2021)
Angular Grid (max. ang.)         AngularGrid ... 4 (Lebedev-302)
Angular grid pruning method      GridPruning ... 4 (adaptive)
Weight generation scheme         WeightScheme... mBecke (2022)
Basis function cutoff            BFCut       ... 1.0000e-10
Integration weight cutoff        WCut        ... 1.0000e-14
Partially contracted basis set               ... off
Rotationally invariant grid construction     ... off
Angular grids for H and He will be reduced by one unit
Diffuse basis detected: some atoms will have their outermost
                        angular grid increased by 1.

Total number of grid points                  ...    87437
Total number of batches                      ...     1376
Average number of points per batch           ...       63
Average number of grid points per atom       ...     4372
Initializing property integral containers    ... done (  0.0 sec)

SHARK setup successfully completed in   1.5 seconds

Maximum memory used throughout the entire STARTUP-calculation: 39.1 MB
-------------------------------------------------------------------------------
                                 ORCA GUESS
                   Start orbitals & Density for SCF / CASSCF
-------------------------------------------------------------------------------

------------
SCF SETTINGS
------------
Hamiltonian:
 Density Functional     Method          .... DFT(GTOs)
  Functional kind                       .... Exchange
  Functional name                       .... Re-regularized SCAN exchange by Furness et al
  Functional family                     .... MGGA
  Functional refs                              
    [ 0] J. W. Furness, A. D. Kaplan, J. Ning, J. P. Perdew, and J. Sun.,  J. Phys. Chem. Lett. 11, 8208-8215 (2020), doi: 10.1021/acs.jpclett.0c02405
    [ 1] J. W. Furness, A. D. Kaplan, J. Ning, J. P. Perdew, and J. Sun.,  J. Phys. Chem. Lett. 11, 9248-9248 (2020), doi: 10.1021/acs.jpclett.0c03077
  Functional external parameters        .... 6
    Parameter  0 _c1        =  6.670000e-01 : c1 parameter        
    Parameter  1 _c2        =  8.000000e-01 : c2 parameter        
    Parameter  2 _d         =  1.240000e+00 : d parameter         
    Parameter  3 _k1        =  6.500000e-02 : k1 parameter        
    Parameter  4 _eta       =  1.000000e-03 : eta parameter       
    Parameter  5 _dp2       =  3.610000e-01 : dp2 parameter       
  Functional kind                       .... Correlation
  Functional name                       .... Re-regularized SCAN correlation by Furness et al
  Functional family                     .... MGGA
  Functional refs                              
    [ 0] J. W. Furness, A. D. Kaplan, J. Ning, J. P. Perdew, and J. Sun.,  J. Phys. Chem. Lett. 11, 8208-8215 (2020), doi: 10.1021/acs.jpclett.0c02405
    [ 1] J. W. Furness, A. D. Kaplan, J. Ning, J. P. Perdew, and J. Sun.,  J. Phys. Chem. Lett. 11, 9248-9248 (2020), doi: 10.1021/acs.jpclett.0c03077
  Functional external parameters        .... 1
    Parameter  0 _eta       =  1.000000e-03 : Regularization parameter
 Gradients option       PostSCFGGA      .... off
 RI-approximation to the Coulomb term is turned on
   Number of AuxJ basis functions       .... 524


General Settings:
 Integral files         IntName         .... sp_solv
 Hartree-Fock type      HFTyp           .... RHF
 Total Charge           Charge          ....    0
 Multiplicity           Mult            ....    1
 Number of Electrons    NEL             ....   64
 Basis Dimension        Dim             ....  222
 Nuclear Repulsion      ENuc            ....    387.6957124119 Eh

Convergence Acceleration:
 AO-DIIS                CNVDIIS         .... on
   Start iteration      DIISMaxIt       ....    12
   Startup error        DIISStart       ....  0.200000
   # of expansion vecs  DIISMaxEq       ....     5
   Bias factor          DIISBfac        ....   1.050
   Max. coefficient     DIISMaxC        ....  10.000
 MO-DIIS                CNVKDIIS        .... off
 Trust-Rad. Augm. Hess. CNVTRAH         .... auto
   Auto Start mean grad. ratio tolernc. ....  1.125000
   Auto Start start iteration           ....     1
   Auto Start num. interpolation iter.  ....    10
   Max. Number of Micro iterations      ....    24
   Max. Number of Macro iterations      .... Maxiter - #DIIS iter
   Number of Davidson start vectors     ....     2
   Converg. threshold    (grad. norm)   ....   3.330e-04
   Grad. Scal. Fac. for Micro threshold ....   0.100
   Minimum threshold for Micro iter.    ....   1.000e-02
   NR start threshold (gradient norm)   ....   1.000e-04
   Initial trust radius                 ....   0.400
   Minimum AH scaling param. (alpha)    ....   1.000
   Maximum AH scaling param. (alpha)    .... 1000.000
   Quad. conv. algorithm                .... NR
   White noise on init. David. guess    .... on
   Maximum white noise                  ....   0.010
   Pseudo random numbers                .... off
   Inactive MOs                         .... canonical
   Orbital update algorithm             .... Taylor
   Preconditioner                       .... Diag
   Full preconditioner red. dimension   ....   250
   COSX micro iterations for RIJONX calc.... off
 SOSCF                  CNVSOSCF        .... on
   Start iteration      SOSCFMaxIt      ....   150
   Startup grad/error   SOSCFStart      ....  0.003300
   Hessian update       SOSCFHessUp     .... L-BFGS
 Level Shifting         CNVShift        .... on
   Level shift para.    LevelShift      ....    0.2500
   Turn off err/grad.   ShiftErr        ....    0.0010
 Zerner damping         CNVZerner       .... off
 Static damping         CNVDamp         .... on
   Fraction old density DampFac         ....    0.7000
   Max. Damping (<1)    DampMax         ....    0.9800
   Min. Damping (>=0)   DampMin         ....    0.0000
   Turn off err/grad.   DampErr         ....    0.1000

SCF Procedure:
 Maximum # iterations   MaxIter         ....   125
 SCF integral mode      SCFMode         .... Direct
   Integral package                     .... SHARK and LIBINT hybrid scheme
 Reset frequency        DirectResetFreq ....    20
 Integral Threshold     Thresh          ....  1.000e-10 Eh
 Primitive CutOff       TCut            ....  1.000e-11 Eh

Convergence Tolerance:
 Convergence Check Mode ConvCheckMode   .... Total+1el-Energy
 Convergence forced     ConvForced      .... 0
 Energy Change          TolE            ....  1.000e-06 Eh
 1-El. energy change                    ....  1.000e-03 Eh
 Orbital Gradient       TolG            ....  3.330e-04
 Orbital Rotation angle TolX            ....  3.330e-04
 DIIS Error             TolErr          ....  1.000e-06

---------------------
INITIAL GUESS: MOREAD
---------------------
Guess MOs are being read from file: sp_solv.ges
Input Geometry matches current geometry (good)
Atom 0: N(Shells)= 9 and 6 - projection required
Input basis set needs projection
NBasis(read)= 136
NBasis(calc)= 222
Basis set overlap was calculated
Using GuessMode=FMatrix for the initial guess
C*T matrix was formed
Effective Fockian was calculated
Effective Fockian was diagonalized
Initial density was built
                      ------------------
                      INITIAL GUESS DONE (   0.1 sec)
                      ------------------
             **** ENERGY FILE WAS UPDATED (sp_solv.en.tmp) ****
Finished Guess after   0.4 sec
Maximum memory used throughout the entire GUESS-calculation: 14.8 MB

-------------------------------------------------------------------------------------------
                                      ORCA LEAN-SCF
                              memory conserving SCF solver
-------------------------------------------------------------------------------------------

--------------------
CPCM SOLVATION MODEL
--------------------
CPCM parameters:
  Epsilon                                         ...      78.3550
  Refrac                                          ...       1.3328
  Rsolv                                           ...       1.3000
  Surface type                                    ... GAUSSIAN VDW
  Discretization scheme                           ... Constant charge density
    Threshold for H atoms                         ...       5.0000 (charges/Ang^2)
    Threshold for non-H atoms                     ...       5.0000 (charges/Ang^2)
  Epsilon function type                           ...         CPCM
Solvent:                                          ... WATER
SMD-CDS solvent descriptors:
  Soln                                            ...       1.3328
  Soln25                                          ...       1.3323
  Sola                                            ...       0.0000
  Solb                                            ...       0.0000
  Solg                                            ...       0.0000
  Solc                                            ...       0.0000
  Solh                                            ...       0.0000
Radii:
  Scheme                                          ... Element-dependent radii
  Radius for C  used is    3.4960 Bohr (=   1.8500 Ang.)
  Radius for O  used is    2.8724 Bohr (=   1.5200 Ang.)
  Radius for H  used is    2.2677 Bohr (=   1.2000 Ang.)
Calculating surface                               ...        done! (  0.0s)
Cavity surface points                             ...         1523
Cavity Volume                                     ...     884.1713
Cavity Surface-area                               ...     592.8201
Calculating surface distance matrix               ...        done! (  0.0s)
Performing Cholesky decomposition & store         ...        done! (  0.1s)
Overall time for CPCM initialization              ...                 0.1s

----------------------------------------D-I-I-S--------------------------------------------
Iteration    Energy (Eh)           Delta-E    RMSDP     MaxDP     DIISErr   Damp  Time(sec)
-------------------------------------------------------------------------------------------
               ***  Starting incremental Fock matrix formation  ***
    1    -386.0583759281661855     0.00e+00  3.81e-03  1.60e-01  6.27e-01  0.700   3.6
    2    -386.1171475166277673    -5.88e-02  3.07e-03  1.01e-01  4.41e-01  0.700   4.3
    3    -386.1587111965899908    -4.16e-02  2.24e-03  6.83e-02  3.10e-01  0.700   3.4
    4    -386.1879187617517459    -2.92e-02  1.60e-03  4.82e-02  2.17e-01  0.700   3.3
                               ***Turning on AO-DIIS***
    5    -386.2084252609117243    -2.05e-02  1.16e-03  3.47e-02  1.52e-01  0.700   3.5
    6    -386.2228013032636795    -1.44e-02  8.22e-04  2.45e-02  1.06e-01  0.700   3.2
    7    -386.2328928521764624    -1.01e-02  5.80e-04  1.73e-02  7.42e-02  0.700   3.4
    8    -386.2399654407036564    -7.07e-03  1.36e-03  4.03e-02  5.21e-02  0.000   3.4
                              *** Initializing SOSCF ***
---------------------------------------S-O-S-C-F--------------------------------------
Iteration    Energy (Eh)           Delta-E    RMSDP     MaxDP     MaxGrad    Time(sec)
--------------------------------------------------------------------------------------
    9    -386.2565004353248810    -1.65e-02  1.26e-05  4.01e-04  2.00e-04     3.2
               *** Restarting incremental Fock matrix formation ***
   10    -386.2565005592422835    -1.24e-07  7.38e-06  1.97e-04  4.60e-05     3.6
                  *** Gradient check signals convergence ***

               *****************************************************
               *                     SUCCESS                       *
               *           SCF CONVERGED AFTER  10 CYCLES          *
               *****************************************************


SMD CDS free energy correction energy :                 5.04128     Kcal/mol
Total Energy after SMD CDS correction =              -386.248466772 Eh
             **** ENERGY FILE WAS UPDATED (sp_solv.en.tmp) ****

----------------
TOTAL SCF ENERGY
----------------

Total Energy       :       -386.24846677150242 Eh          -10510.35512 eV

Components:
Nuclear Repulsion  :        387.69571241194666 Eh           10549.73667 eV
Electronic Energy  :       -773.93657052193510 Eh          -21059.88475 eV
One Electron Energy:      -1292.78731278180135 Eh          -35178.53122 eV
Two Electron Energy:        518.85074225986625 Eh           14118.64648 eV
CPCM Dielectric    :         -0.01564244925382 Eh              -0.42565 eV
SMD CDS (Gcds)     :          0.00803378773986 Eh               0.21861 eV

Virial components:
Potential Energy   :       -770.88728600116042 Eh          -20976.90950 eV
Kinetic Energy     :        384.63881922965805 Eh           10466.55438 eV
Virial Ratio       :          2.00418482862720

DFT components:
N(Alpha)           :       32.000044786556 electrons
N(Beta)            :       32.000044786556 electrons
N(Total)           :       64.000089573112 electrons
E(X)               :      -52.084717095607 Eh       
E(C)               :       -2.037629076547 Eh       
E(XC)              :      -54.122346172154 Eh       

CPCM Solvation Model Properties:
Surface-charge          :         -0.04798258077089
Corrected charge        :         -0.00000000000000
Outlying charge corr.   :          0.00017158244240 Eh               0.00467 eV
Free-energy (cav+disp)  :          0.00803378773986 Eh               0.21861 eV

---------------
SCF CONVERGENCE
---------------

  Last Energy change         ...    1.2392e-07  Tolerance :   1.0000e-06
  Last MAX-Density change    ...    1.9678e-04  Tolerance :   1.0000e-05
  Last RMS-Density change    ...    7.3805e-06  Tolerance :   1.0000e-06
  Last DIIS Error            ...    1.9980e-04  Tolerance :   1.0000e-06
  Last Orbital Gradient      ...    4.6040e-05  Tolerance :   3.3300e-04
  Last Orbital Rotation      ...    1.2444e-04  Tolerance :   3.3300e-04


----------------
ORBITAL ENERGIES
----------------

  NO   OCC          E(Eh)            E(eV) 
   0   2.0000     -19.000375      -517.0265 
   1   2.0000     -18.943956      -515.4912 
   2   2.0000     -10.162076      -276.5241 
   3   2.0000     -10.082856      -274.3685 
   4   2.0000     -10.035258      -273.0733 
   5   2.0000     -10.024100      -272.7696 
   6   2.0000     -10.017957      -272.6025 
   7   2.0000     -10.010559      -272.4012 
   8   2.0000      -1.077243       -29.3133 
   9   2.0000      -0.988776       -26.9060 
  10   2.0000      -0.766533       -20.8584 
  11   2.0000      -0.733182       -19.9509 
  12   2.0000      -0.674243       -18.3471 
  13   2.0000      -0.616837       -16.7850 
  14   2.0000      -0.556785       -15.1509 
  15   2.0000      -0.516693       -14.0599 
  16   2.0000      -0.473950       -12.8968 
  17   2.0000      -0.457213       -12.4414 
  18   2.0000      -0.452168       -12.3041 
  19   2.0000      -0.417576       -11.3628 
  20   2.0000      -0.408607       -11.1188 
  21   2.0000      -0.382282       -10.4024 
  22   2.0000      -0.370110       -10.0712 
  23   2.0000      -0.358756        -9.7623 
  24   2.0000      -0.346390        -9.4257 
  25   2.0000      -0.337381        -9.1806 
  26   2.0000      -0.316790        -8.6203 
  27   2.0000      -0.306329        -8.3356 
  28   2.0000      -0.303120        -8.2483 
  29   2.0000      -0.296761        -8.0753 
  30   2.0000      -0.276781        -7.5316 
  31   2.0000      -0.252029        -6.8581 
  32   0.0000      -0.020355        -0.5539 
  33   0.0000       0.080864         2.2004 
  34   0.0000       0.096165         2.6168 
  35   0.0000       0.113691         3.0937 
  36   0.0000       0.132436         3.6038 
  37   0.0000       0.136012         3.7011 
  38   0.0000       0.142735         3.8840 
  39   0.0000       0.153378         4.1736 
  40   0.0000       0.155371         4.2279 
  41   0.0000       0.160229         4.3601 
  42   0.0000       0.175376         4.7722 
*Only the first 10 virtual orbitals were printed.

                    ********************************
                    * MULLIKEN POPULATION ANALYSIS *
                    ********************************

-----------------------
MULLIKEN ATOMIC CHARGES
-----------------------
   0 C :   -0.514857
   1 C :   -0.245591
   2 C :   -0.319817
   3 C :    0.424109
   4 O :   -0.514642
   5 O :   -0.198820
   6 C :   -0.144744
   7 C :   -0.494873
   8 H :    0.160073
   9 H :    0.155144
  10 H :    0.157470
  11 H :    0.153560
  12 H :    0.155776
  13 H :    0.183734
  14 H :    0.195371
  15 H :    0.170961
  16 H :    0.173369
  17 H :    0.169882
  18 H :    0.165416
  19 H :    0.168477
Sum of atomic charges:    0.0000000

--------------------------------
MULLIKEN REDUCED ORBITAL CHARGES
--------------------------------
  0 C s       :     3.352750  s :     3.352750
      pz      :     1.070964  p :     3.135105
      px      :     0.978977
      py      :     1.085165
      dz2     :     0.001524  d :     0.027001
      dxz     :     0.007897
      dyz     :     0.007414
      dx2y2   :     0.006820
      dxy     :     0.003345

  1 C s       :     3.215378  s :     3.215378
      pz      :     0.981326  p :     2.993530
      px      :     0.921422
      py      :     1.090781
      dz2     :     0.003201  d :     0.036683
      dxz     :     0.010074
      dyz     :     0.009987
      dx2y2   :     0.008562
      dxy     :     0.004859

  2 C s       :     3.220394  s :     3.220394
      pz      :     1.013208  p :     3.064324
      px      :     0.946666
      py      :     1.104449
      dz2     :     0.003791  d :     0.035099
      dxz     :     0.008942
      dyz     :     0.009115
      dx2y2   :     0.008334
      dxy     :     0.004917

  3 C s       :     3.128452  s :     3.128452
      pz      :     0.749811  p :     2.322667
      px      :     0.841624
      py      :     0.731231
      dz2     :     0.028934  d :     0.124772
      dxz     :     0.047474
      dyz     :     0.022272
      dx2y2   :     0.011289
      dxy     :     0.014803

  4 O s       :     3.837312  s :     3.837312
      pz      :     1.352973  p :     4.654019
      px      :     1.818081
      py      :     1.482965
      dz2     :     0.007750  d :     0.023310
      dxz     :     0.002094
      dyz     :     0.008007
      dx2y2   :     0.003097
      dxy     :     0.002363

  5 O s       :     3.706490  s :     3.706490
      pz      :     1.614488  p :     4.457184
      px      :     1.114537
      py      :     1.728158
      dz2     :     0.006974  d :     0.035147
      dxz     :     0.009188
      dyz     :     0.009121
      dx2y2   :     0.000248
      dxy     :     0.009614

  6 C s       :     3.263616  s :     3.263616
      pz      :     1.078081  p :     2.828010
      px      :     0.745453
      py      :     1.004476
      dz2     :     0.006853  d :     0.053119
      dxz     :     0.012190
      dyz     :     0.009495
      dx2y2   :     0.013689
      dxy     :     0.010892

  7 C s       :     3.337029  s :     3.337029
      pz      :     1.061503  p :     3.132310
      px      :     1.073296
      py      :     0.997510
      dz2     :     0.004007  d :     0.025535
      dxz     :     0.004405
      dyz     :     0.007396
      dx2y2   :     0.005779
      dxy     :     0.003948

  8 H s       :     0.821548  s :     0.821548
      pz      :     0.007057  p :     0.018378
      px      :     0.007437
      py      :     0.003885

  9 H s       :     0.826551  s :     0.826551
      pz      :     0.006019  p :     0.018304
      px      :     0.003572
      py      :     0.008714

 10 H s       :     0.824239  s :     0.824239
      pz      :     0.006337  p :     0.018291
      px      :     0.004174
      py      :     0.007779

 11 H s       :     0.828383  s :     0.828383
      pz      :     0.005962  p :     0.018057
      px      :     0.003423
      py      :     0.008672

 12 H s       :     0.826256  s :     0.826256
      pz      :     0.006409  p :     0.017968
      px      :     0.003845
      py      :     0.007714

 13 H s       :     0.798150  s :     0.798150
      pz      :     0.005885  p :     0.018116
      px      :     0.003330
      py      :     0.008901

 14 H s       :     0.786374  s :     0.786374
      pz      :     0.006793  p :     0.018254
      px      :     0.003924
      py      :     0.007537

 15 H s       :     0.811196  s :     0.811196
      pz      :     0.006620  p :     0.017844
      px      :     0.002386
      py      :     0.008838

 16 H s       :     0.809101  s :     0.809101
      pz      :     0.008995  p :     0.017529
      px      :     0.004608
      py      :     0.003926

 17 H s       :     0.811605  s :     0.811605
      pz      :     0.004147  p :     0.018513
      px      :     0.010413
      py      :     0.003953

 18 H s       :     0.816304  s :     0.816304
      pz      :     0.006017  p :     0.018280
      px      :     0.003561
      py      :     0.008702

 19 H s       :     0.813252  s :     0.813252
      pz      :     0.008933  p :     0.018270
      px      :     0.005435
      py      :     0.003902


------------------------
MULLIKEN OVERLAP CHARGES
------------------------
B(  0-C ,  1-C ) :   0.4561 B(  0-C ,  2-C ) :  -0.1823 B(  0-C ,  8-H ) :   0.8136 
B(  0-C ,  9-H ) :   0.8398 B(  0-C , 10-H ) :   0.8650 B(  0-C , 11-H ) :  -0.0633 
B(  1-C ,  2-C ) :   0.4564 B(  1-C ,  3-C ) :  -0.0967 B(  1-C ,  4-O ) :   0.0726 
B(  1-C ,  8-H ) :  -0.0856 B(  1-C ,  9-H ) :  -0.0785 B(  1-C , 10-H ) :  -0.1012 
B(  1-C , 11-H ) :   0.8443 B(  1-C , 12-H ) :   0.8383 B(  1-C , 13-H ) :  -0.0623 
B(  1-C , 14-H ) :  -0.0709 B(  2-C ,  3-C ) :   0.5437 B(  2-C ,  4-O ) :  -0.2231 
B(  2-C ,  5-O ) :  -0.1231 B(  2-C , 11-H ) :  -0.0530 B(  2-C , 12-H ) :  -0.0694 
B(  2-C , 13-H ) :   0.8279 B(  2-C , 14-H ) :   0.7875 B(  3-C ,  4-O ) :   0.9844 
B(  3-C ,  5-O ) :   0.4969 B(  3-C ,  6-C ) :  -0.1912 B(  3-C , 13-H ) :  -0.0656 
B(  4-O ,  5-O ) :  -0.2138 B(  5-O ,  6-C ) :   0.2997 B(  5-O ,  7-C ) :  -0.1101 
B(  5-O , 15-H ) :  -0.0664 B(  5-O , 16-H ) :  -0.0873 B(  6-C ,  7-C ) :   0.5382 
B(  6-C , 15-H ) :   0.8571 B(  6-C , 16-H ) :   0.8004 B(  6-C , 17-H ) :  -0.0669 
B(  6-C , 18-H ) :  -0.0685 B(  6-C , 19-H ) :  -0.0858 B(  7-C , 15-H ) :  -0.0801 
B(  7-C , 17-H ) :   0.8043 B(  7-C , 18-H ) :   0.8296 B(  7-C , 19-H ) :   0.8413 
B(  9-H , 10-H ) :  -0.0530 B( 11-H , 12-H ) :  -0.0516 


                     *******************************
                     * LOEWDIN POPULATION ANALYSIS *
                     *******************************

----------------------
LOEWDIN ATOMIC CHARGES
----------------------
   0 C :   -0.426873
   1 C :   -0.299342
   2 C :   -0.228882
   3 C :    0.375557
   4 O :   -0.496098
   5 O :   -0.600596
   6 C :    0.030861
   7 C :   -0.393878
   8 H :    0.154920
   9 H :    0.154354
  10 H :    0.154296
  11 H :    0.162235
  12 H :    0.160076
  13 H :    0.189770
  14 H :    0.194624
  15 H :    0.188718
  16 H :    0.188575
  17 H :    0.167528
  18 H :    0.161799
  19 H :    0.162357

-------------------------------
LOEWDIN REDUCED ORBITAL CHARGES
-------------------------------
  0 C s       :     2.972259  s :     2.972259
      pz      :     1.144849  p :     3.391649
      px      :     1.090693
      py      :     1.156107
      dz2     :     0.002855  d :     0.062964
      dxz     :     0.018741
      dyz     :     0.018366
      dx2y2   :     0.016154
      dxy     :     0.006849

  1 C s       :     2.933555  s :     2.933555
      pz      :     1.096595  p :     3.286250
      px      :     1.044753
      py      :     1.144902
      dz2     :     0.005730  d :     0.079538
      dxz     :     0.022505
      dyz     :     0.022953
      dx2y2   :     0.019267
      dxy     :     0.009084

  2 C s       :     2.920454  s :     2.920454
      pz      :     1.093401  p :     3.234672
      px      :     1.010260
      py      :     1.131011
      dz2     :     0.006479  d :     0.073755
      dxz     :     0.019991
      dyz     :     0.020297
      dx2y2   :     0.017862
      dxy     :     0.009127

  3 C s       :     2.736190  s :     2.736190
      pz      :     0.949663  p :     2.617055
      px      :     0.935415
      py      :     0.731977
      dz2     :     0.066493  d :     0.271198
      dxz     :     0.106748
      dyz     :     0.046427
      dx2y2   :     0.023189
      dxy     :     0.028341

  4 O s       :     3.542503  s :     3.542503
      pz      :     1.491871  p :     4.727397
      px      :     1.754455
      py      :     1.481071
      dz2     :     0.069391  d :     0.226197
      dxz     :     0.067725
      dyz     :     0.050519
      dx2y2   :     0.018012
      dxy     :     0.020551

  5 O s       :     3.464847  s :     3.464847
      pz      :     1.633596  p :     4.662812
      px      :     1.332714
      py      :     1.696501
      dz2     :     0.077131  d :     0.472938
      dxz     :     0.133049
      dyz     :     0.047248
      dx2y2   :     0.113623
      dxy     :     0.101886

  6 C s       :     2.871479  s :     2.871479
      pz      :     1.080245  p :     2.978478
      px      :     0.840871
      py      :     1.057362
      dz2     :     0.013231  d :     0.119182
      dxz     :     0.029466
      dyz     :     0.023005
      dx2y2   :     0.029773
      dxy     :     0.023707

  7 C s       :     2.974542  s :     2.974542
      pz      :     1.132318  p :     3.359408
      px      :     1.124387
      py      :     1.102703
      dz2     :     0.008959  d :     0.059928
      dxz     :     0.010437
      dyz     :     0.017559
      dx2y2   :     0.014413
      dxy     :     0.008560

  8 H s       :     0.801217  s :     0.801217
      pz      :     0.017382  p :     0.043863
      px      :     0.017904
      py      :     0.008577

  9 H s       :     0.801860  s :     0.801860
      pz      :     0.014192  p :     0.043787
      px      :     0.008085
      py      :     0.021510

 10 H s       :     0.801927  s :     0.801927
      pz      :     0.015055  p :     0.043777
      px      :     0.009497
      py      :     0.019226

 11 H s       :     0.794114  s :     0.794114
      pz      :     0.014259  p :     0.043651
      px      :     0.007790
      py      :     0.021601

 12 H s       :     0.796614  s :     0.796614
      pz      :     0.015295  p :     0.043310
      px      :     0.009043
      py      :     0.018972

 13 H s       :     0.765550  s :     0.765550
      pz      :     0.014595  p :     0.044679
      px      :     0.007919
      py      :     0.022165

 14 H s       :     0.760324  s :     0.760324
      pz      :     0.016805  p :     0.045051
      px      :     0.009208
      py      :     0.019038

 15 H s       :     0.768435  s :     0.768435
      pz      :     0.015774  p :     0.042847
      px      :     0.005956
      py      :     0.021117

 16 H s       :     0.770886  s :     0.770886
      pz      :     0.022603  p :     0.040539
      px      :     0.009187
      py      :     0.008750

 17 H s       :     0.787887  s :     0.787887
      pz      :     0.009431  p :     0.044585
      px      :     0.025976
      py      :     0.009179

 18 H s       :     0.794309  s :     0.794309
      pz      :     0.014743  p :     0.043893
      px      :     0.007858
      py      :     0.021292

 19 H s       :     0.793468  s :     0.793468
      pz      :     0.022182  p :     0.044176
      px      :     0.013175
      py      :     0.008819


---------------------------------
LOEWDIN BOND ORDERS (THRESH 0.050000)
---------------------------------
B(  0-C ,  1-C ) :   1.1434 B(  0-C ,  2-C ) :   0.0759 B(  0-C ,  8-H ) :   0.9281 
B(  0-C ,  9-H ) :   0.9273 B(  0-C , 10-H ) :   0.9283 B(  1-C ,  2-C ) :   1.0837 
B(  1-C ,  3-C ) :   0.0738 B(  1-C ,  4-O ) :   0.0527 B(  1-C , 11-H ) :   0.8865 
B(  1-C , 12-H ) :   0.8917 B(  2-C ,  3-C ) :   0.9297 B(  2-C ,  4-O ) :   0.1792 
B(  2-C ,  5-O ) :   0.1892 B(  2-C , 13-H ) :   0.8577 B(  2-C , 14-H ) :   0.8519 
B(  3-C ,  4-O ) :   2.1364 B(  3-C ,  5-O ) :   1.4612 B(  3-C ,  6-C ) :   0.0837 
B(  4-O ,  5-O ) :   0.4520 B(  4-O ,  6-C ) :   0.0648 B(  5-O ,  6-C ) :   1.3049 
B(  5-O ,  7-C ) :   0.1568 B(  5-O , 15-H ) :   0.0917 B(  5-O , 16-H ) :   0.0971 
B(  6-C ,  7-C ) :   1.0841 B(  6-C , 15-H ) :   0.8174 B(  6-C , 16-H ) :   0.8287 
B(  7-C , 17-H ) :   0.9152 B(  7-C , 18-H ) :   0.9231 B(  7-C , 19-H ) :   0.9200 


------------------------------------------
LOEWDIN REDUCED ORBITAL POPULATIONS PER MO
-------------------------------------------
THRESHOLD FOR PRINTING IS 0.1%%
                      0         1         2         3         4         5   
                 -19.00037 -18.94396 -10.16208 -10.08286 -10.03526 -10.02410
                   2.00000   2.00000   2.00000   2.00000   2.00000   2.00000
                  --------  --------  --------  --------  --------  --------
 1 C  s               0.0       0.0       0.0       0.0       0.0      99.7
 2 C  s               0.0       0.0       0.0       0.0      99.7       0.0
 3 C  s               0.0       0.0      98.9       0.0       0.0       0.0
 4 O  s               0.0      99.9       0.0       0.0       0.0       0.0
 4 O  pz              0.0       0.0       0.2       0.0       0.0       0.0
 4 O  dz2             0.0       0.0       0.2       0.0       0.0       0.0
 4 O  dyz             0.0       0.0       0.1       0.0       0.0       0.0
 5 O  s              99.9       0.0       0.0       0.0       0.0       0.0
 5 O  dxz             0.0       0.0       0.2       0.1       0.0       0.0
 5 O  dx2y2           0.0       0.0       0.1       0.1       0.0       0.0
 6 C  s               0.0       0.0       0.0      99.4       0.0       0.0

                      6         7         8         9        10        11   
                 -10.01796 -10.01056  -1.07724  -0.98878  -0.76653  -0.73318
                   2.00000   2.00000   2.00000   2.00000   2.00000   2.00000
                  --------  --------  --------  --------  --------  --------
 0 C  s               0.0      99.7       0.0       0.0       7.3       6.5
 0 C  pz              0.0       0.0       0.0       0.0       0.2       0.1
 0 C  px              0.0       0.0       0.0       0.0       1.9       0.7
 1 C  s               0.0       0.0       0.1       0.1      17.6       8.4
 1 C  pz              0.0       0.0       0.0       0.0       1.6       0.3
 1 C  px              0.0       0.1       0.2       0.1       0.3       0.3
 2 C  s               0.0       0.0       1.0       0.1      21.5       1.2
 2 C  pz              0.0       0.0       0.2       0.4       0.7       0.5
 2 C  px              0.0       0.0       1.7       0.0       0.3       2.8
 2 C  py              0.0       0.0       0.1       0.1       0.0       0.1
 3 C  s               0.0       0.0      17.1       2.9       3.2       1.1
 3 C  pz              0.0       0.0       0.1      19.9       3.7       1.5
 3 C  px              0.0       0.0       4.5       1.8       5.2       0.7
 3 C  py              0.0       0.0       0.1       2.0       1.0       0.1
 3 C  dz2             0.0       0.0       0.4       0.8       0.0       0.0
 3 C  dxz             0.0       0.0       0.3       0.5       0.0       0.1
 3 C  dyz             0.0       0.0       0.2       0.4       0.0       0.0
 3 C  dx2y2           0.0       0.0       0.2       0.2       0.1       0.0
 4 O  s               0.0       0.0      15.2      39.9       1.5       0.1
 4 O  pz              0.0       0.0       3.0       2.6       0.3       0.1
 4 O  px              0.0       0.0       0.0       0.1       0.2       0.0
 4 O  py              0.0       0.0       0.4       0.4       0.1       0.0
 4 O  dz2             0.0       0.0       0.9       0.1       0.1       0.2
 4 O  dxz             0.0       0.0       0.1       0.2       0.3       0.0
 4 O  dyz             0.0       0.0       0.4       0.0       0.2       0.0
 5 O  s               0.0       0.0      38.5      19.7       0.0       0.8
 5 O  pz              0.0       0.0       2.4       0.4       0.0       0.1
 5 O  px              0.0       0.0       0.3       0.6       6.3      10.7
 5 O  py              0.0       0.0       0.2       0.0       0.1       0.1
 5 O  dz2             0.0       0.0       0.1       0.5       0.1       0.2
 5 O  dxz             0.0       0.0       0.3       0.6       0.3       0.9
 5 O  dx2y2           0.0       0.0       0.3       0.0       0.1       0.6
 6 C  s               0.0       0.0       3.9       2.1       4.6      17.6
 6 C  pz              0.0       0.0       0.1       0.4       0.0       0.3
 6 C  px              0.0       0.0       4.8       1.5       0.1       1.2
 6 C  py              0.1       0.0       0.2       0.2       0.2       1.0
 6 C  dx2y2           0.0       0.0       0.2       0.1       0.0       0.0
 7 C  s              99.7       0.0       0.3       0.2       2.5      17.5
 7 C  pz              0.0       0.0       0.1       0.1       0.1       0.5
 7 C  px              0.0       0.0       0.4       0.1       0.1       0.3
 7 C  py              0.0       0.0       0.2       0.1       0.3       1.1
 8 H  s               0.0       0.0       0.0       0.0       0.9       1.0
 9 H  s               0.0       0.0       0.0       0.0       0.9       1.0
10 H  s               0.0       0.0       0.0       0.0       1.0       1.0
11 H  s               0.0       0.0       0.0       0.0       2.2       1.3
11 H  py              0.0       0.0       0.0       0.0       0.1       0.1
12 H  s               0.0       0.0       0.0       0.0       2.2       1.3
12 H  py              0.0       0.0       0.0       0.0       0.1       0.1
13 H  s               0.0       0.0       0.1       0.0       3.1       0.1
13 H  py              0.0       0.0       0.0       0.0       0.2       0.0
14 H  s               0.0       0.0       0.0       0.0       3.1       0.2
14 H  pz              0.0       0.0       0.0       0.0       0.1       0.0
14 H  py              0.0       0.0       0.0       0.0       0.2       0.0
15 H  s               0.0       0.0       0.3       0.1       0.6       2.7
15 H  py              0.0       0.0       0.0       0.0       0.0       0.2
16 H  s               0.0       0.0       0.2       0.2       0.8       3.2
16 H  pz              0.0       0.0       0.0       0.0       0.0       0.2
17 H  s               0.0       0.0       0.0       0.0       0.3       2.8
17 H  px              0.0       0.0       0.0       0.0       0.0       0.2
18 H  s               0.0       0.0       0.0       0.0       0.3       2.7
18 H  py              0.0       0.0       0.0       0.0       0.0       0.2
19 H  s               0.0       0.0       0.0       0.0       0.3       2.7
19 H  pz              0.0       0.0       0.0       0.0       0.0       0.2

                     12        13        14        15        16        17   
                  -0.67424  -0.61684  -0.55678  -0.51669  -0.47395  -0.45721
                   2.00000   2.00000   2.00000   2.00000   2.00000   2.00000
                  --------  --------  --------  --------  --------  --------
 0 C  s              18.3       7.1       8.1       0.2       0.3       0.0
 0 C  pz              0.1       0.0       2.9       0.8       0.7       0.4
 0 C  px              0.1       0.9       5.0       0.2       2.1       0.0
 0 C  py              0.0       0.0       0.3       0.0       0.0       0.8
 0 C  dxz             0.0       0.0       0.1       0.0       0.0       0.0
 1 C  s               2.9       0.8      14.3       1.3       0.0       0.2
 1 C  pz              0.1       0.0       5.8       2.2       4.8       0.6
 1 C  px              8.1       4.0       1.1       0.1       0.0       0.8
 1 C  py              0.4       0.2       0.1       0.0       0.1       2.0
 1 C  dxz             0.2       0.1       0.0       0.0       0.0       0.0
 2 C  s              10.0       3.5       2.4       1.7       2.0       0.2
 2 C  pz              0.2       0.1       5.0       2.1       8.8       0.9
 2 C  px              3.0       1.0       2.9       0.4       8.5       0.0
 2 C  py              0.2       0.0       0.3       0.1       1.5       4.6
 2 C  dxz             0.1       0.0       0.2       0.0       0.2       0.0
 2 C  dx2y2           0.0       0.0       0.0       0.0       0.1       0.0
 3 C  s               2.6       1.4       0.7       2.9       2.7       0.9
 3 C  pz              1.8       1.3       0.6       0.7       0.3       5.9
 3 C  px              4.1       2.8       2.0       1.4      10.5       0.1
 3 C  py              0.7       0.1       0.1       0.2       0.4       6.0
 3 C  dz2             0.0       0.0       0.0       0.0       0.0       0.1
 3 C  dxz             0.1       0.1       0.2       0.0       0.0       0.1
 4 O  s               0.8       0.2       0.0       3.4       2.3       6.2
 4 O  pz              0.4       0.3       0.3       4.9       4.2      10.4
 4 O  px              0.2       0.3       0.0       0.5      10.0       0.1
 4 O  py              0.1       0.1       0.0       0.2       1.9      11.5
 4 O  dz2             0.1       0.2       0.1       0.2       0.0       0.1
 4 O  dxz             0.3       0.1       0.1       0.1       0.9       0.0
 4 O  dyz             0.1       0.0       0.0       0.0       0.1       0.6
 4 O  dxy             0.0       0.1       0.0       0.0       0.1       0.0
 5 O  s               1.4       0.1       0.9       4.6       0.5       1.1
 5 O  pz              0.1       1.5       0.1       8.6       6.3      12.3
 5 O  px              1.8      16.3       0.1       8.3       0.4       7.0
 5 O  py              0.2       0.7       0.4       3.2       1.0       4.1
 5 O  dz2             0.3       0.2       0.3       0.0       0.4       0.4
 5 O  dxz             0.0       0.1       0.0       0.1       1.0       0.0
 5 O  dyz             0.0       0.1       0.0       0.2       0.2       0.1
 5 O  dx2y2           0.9       0.1       0.7       0.1       0.5       0.0
 5 O  dxy             0.0       0.5       0.2       0.4       0.0       0.0
 6 C  s               0.8       4.2       3.1       5.4       0.1       0.2
 6 C  pz              1.2       4.0       0.1       3.5       7.4       1.9
 6 C  px              2.4       2.1       0.4       3.6       1.1       3.6
 6 C  py              0.7       2.6       1.9       9.8       1.0       3.2
 6 C  dxz             0.0       0.0       0.0       0.3       0.0       0.0
 6 C  dxy             0.1       0.1       0.0       0.1       0.0       0.1
 7 C  s               9.8      14.1       1.4       1.2       0.0       0.2
 7 C  pz              0.0       0.8       0.4       0.0       2.1       0.0
 7 C  px              0.0       0.5       0.1       0.0       0.3       4.6
 7 C  py              0.0       1.1       1.4       5.7       0.2       0.1
 8 H  s               3.9       2.2       3.1       0.0       1.1       0.0
 8 H  pz              0.2       0.1       0.2       0.0       0.0       0.0
 8 H  px              0.2       0.1       0.1       0.0       0.0       0.0
 9 H  s               3.6       1.9       3.9       0.2       0.0       0.4
 9 H  pz              0.1       0.0       0.1       0.0       0.0       0.0
 9 H  py              0.2       0.1       0.2       0.0       0.0       0.0
10 H  s               3.5       1.9       4.0       0.2       0.1       0.0
10 H  pz              0.1       0.1       0.1       0.0       0.0       0.0
10 H  py              0.2       0.1       0.2       0.0       0.0       0.0
11 H  s               0.5       0.3       6.4       0.9       0.5       1.4
11 H  pz              0.0       0.0       0.1       0.0       0.0       0.0
11 H  py              0.0       0.0       0.4       0.1       0.0       0.0
12 H  s               0.6       0.2       6.7       1.0       0.2       0.0
12 H  pz              0.0       0.0       0.1       0.0       0.0       0.0
12 H  py              0.0       0.0       0.3       0.0       0.0       0.0
13 H  s               2.3       0.6       1.5       1.5       3.8       0.8
13 H  py              0.2       0.0       0.1       0.1       0.1       0.0
14 H  s               2.2       0.9       2.0       1.3       3.2       0.9
14 H  py              0.1       0.0       0.1       0.1       0.2       0.0
15 H  s               0.1       1.0       1.7       9.1       1.7       0.2
15 H  pz              0.0       0.1       0.1       0.2       0.0       0.0
15 H  py              0.0       0.0       0.1       0.3       0.1       0.0
16 H  s               0.1       2.2       1.9       1.9       2.2       2.2
16 H  pz              0.0       0.1       0.1       0.2       0.1       0.1
16 H  px              0.0       0.1       0.0       0.0       0.0       0.0
17 H  s               2.2       4.4       0.5       0.2       0.0       1.7
17 H  px              0.2       0.3       0.0       0.0       0.0       0.1
18 H  s               1.9       3.8       0.8       2.2       0.4       0.1
18 H  pz              0.1       0.1       0.0       0.1       0.0       0.0
18 H  py              0.1       0.2       0.0       0.1       0.0       0.0
19 H  s               2.0       4.3       0.8       0.7       0.6       0.1
19 H  pz              0.1       0.2       0.0       0.0       0.0       0.0
19 H  px              0.0       0.1       0.0       0.0       0.0       0.0

                     18        19        20        21        22        23   
                  -0.45217  -0.41758  -0.40861  -0.38228  -0.37011  -0.35876
                   2.00000   2.00000   2.00000   2.00000   2.00000   2.00000
                  --------  --------  --------  --------  --------  --------
 0 C  s               0.0       0.0       0.1       0.0       0.0       0.0
 0 C  pz              0.2       0.1       1.0      17.2      10.6       1.3
 0 C  px              0.0       2.4       2.7       1.0       2.9       2.5
 0 C  py              2.4       8.4       4.3       2.2       7.7       4.4
 1 C  s               0.0       0.0       0.2       0.1       0.1       0.0
 1 C  pz              0.7       0.7       3.5       5.9       1.7       0.1
 1 C  px              0.2       0.4       0.9       3.1       2.7       1.8
 1 C  py              7.4      15.3       2.6       1.6       1.1       0.8
 2 C  s               0.0       0.0       0.0       0.2       0.2       0.1
 2 C  pz              0.0       0.2       1.5       8.6       5.8       2.4
 2 C  px              2.5       0.5       5.2       1.3       0.5       0.6
 2 C  py             13.7       5.7       0.0       0.8       3.9       3.7
 2 C  dx2y2           0.0       0.0       0.0       0.1       0.1       0.0
 2 C  dxy             0.0       0.0       0.0       0.0       0.1       0.0
 3 C  s               0.4       0.1       0.2       0.0       0.1       0.1
 3 C  pz              1.0       1.1       1.0       0.6       2.7       1.2
 3 C  px              0.2       0.5       5.9       0.2       0.6       0.1
 3 C  py             10.8       4.0       0.3       2.0       2.0       0.8
 3 C  dz2             0.1       0.0       0.1       0.0       0.2       0.1
 3 C  dxz             0.0       0.0       0.0       0.2       0.1       0.0
 3 C  dxy             0.0       0.1       0.1       0.0       0.0       0.2
 4 O  s               4.7       1.1       0.3       0.0       0.4       0.3
 4 O  pz             16.6       9.2       2.6       0.4       1.4       3.5
 4 O  px              0.3       0.0       1.6       1.0       0.8       0.8
 4 O  py              0.5       0.3       1.6       3.3       7.6       0.0
 4 O  dz2             0.3       0.2       0.0       0.1       0.1       0.0
 4 O  dxz             0.0       0.0       0.1       0.0       0.1       0.0
 4 O  dyz             0.2       0.2       0.0       0.1       0.0       0.0
 4 O  dx2y2           0.2       0.0       0.1       0.0       0.0       0.0
 5 O  s               0.1       0.0       0.0       1.2       0.1       1.4
 5 O  pz              0.7       2.0       0.6       2.4       1.3       4.2
 5 O  px              2.9       0.0       2.0       0.2       0.6       0.0
 5 O  py              9.5       9.8       4.1       0.0       0.0       7.4
 5 O  dz2             0.0       0.0       0.0       0.1       0.1       0.2
 5 O  dxz             0.0       0.4       0.5       0.1       0.1       0.1
 5 O  dyz             0.2       0.1       0.1       0.0       0.0       0.0
 5 O  dx2y2           0.2       0.1       0.1       0.3       0.1       0.0
 5 O  dxy             0.8       0.0       0.1       0.5       1.0       0.4
 6 C  s               0.7       0.3       0.1       0.1       0.2       0.0
 6 C  pz              0.1       4.8       6.6       0.2       0.7       2.7
 6 C  px              4.7       0.1       8.3       0.1       0.2       1.6
 6 C  py              0.0       1.9       2.7       3.5       3.2       4.4
 6 C  dxz             0.0       0.0       0.2       0.0       0.0       0.2
 7 C  s               0.3       0.3       0.1       0.0       0.1       0.1
 7 C  pz              1.2       0.0      14.8       7.6       5.6       2.4
 7 C  px              0.0       7.0       1.3       4.9       6.4       0.3
 7 C  py              1.8       2.0       0.0       1.8       0.1      24.2
 7 C  dyz             0.0       0.0       0.0       0.0       0.0       0.2
 8 H  s               0.1       0.4       2.1       5.8       4.2       0.0
 8 H  px              0.0       0.0       0.0       0.2       0.1       0.0
 9 H  s               0.4       2.2       0.7       0.6       7.9       0.6
 9 H  py              0.0       0.0       0.0       0.1       0.2       0.0
10 H  s               0.6       2.3       0.7       4.6       0.1       3.5
10 H  pz              0.0       0.1       0.0       0.0       0.1       0.0
10 H  py              0.0       0.0       0.0       0.1       0.0       0.0
11 H  s               0.8       4.2       0.2       0.1       0.9       0.2
12 H  s               2.1       2.5       1.7       1.5       0.1       0.0
12 H  pz              0.1       0.1       0.0       0.0       0.0       0.0
13 H  s               3.1       1.6       0.0       0.9       5.7       0.5
13 H  py              0.0       0.0       0.0       0.1       0.1       0.0
14 H  s               3.4       0.6       0.7       3.1       0.1       2.7
14 H  pz              0.1       0.0       0.0       0.0       0.0       0.0
15 H  s               0.1       0.2       2.7       0.7       0.1       0.5
16 H  s               1.7       1.1       5.0       0.0       0.2       1.0
16 H  pz              0.1       0.0       0.1       0.0       0.0       0.0
17 H  s               0.1       2.5       0.0       4.5       4.6       2.2
17 H  px              0.0       0.0       0.0       0.1       0.1       0.1
17 H  py              0.0       0.0       0.0       0.0       0.0       0.1
18 H  s               0.3       1.1       1.2       2.7       0.9      12.2
18 H  pz              0.0       0.0       0.0       0.0       0.0       0.2
19 H  s               0.8       0.1       5.9       0.5       0.3       0.0
19 H  py              0.0       0.0       0.0       0.0       0.0       0.2

                     24        25        26        27        28        29   
                  -0.34639  -0.33738  -0.31679  -0.30633  -0.30312  -0.29676
                   2.00000   2.00000   2.00000   2.00000   2.00000   2.00000
                  --------  --------  --------  --------  --------  --------
 0 C  s               0.1       0.0       0.7       0.1       0.0       0.0
 0 C  pz              0.0       0.3       6.8      11.5       2.7       0.1
 0 C  px              7.0       0.2      18.3       1.3       3.6       1.3
 0 C  py              1.7      11.8       0.7       0.2       3.0       9.6
 0 C  dxz             0.1       0.0       0.1       0.2       0.3       0.0
 0 C  dyz             0.0       0.1       0.0       0.0       0.0       0.5
 0 C  dx2y2           0.0       0.0       0.2       0.3       0.0       0.0
 1 C  s               0.1       0.0       0.2       0.3       0.0       0.0
 1 C  pz              0.8       0.0       8.6      14.4       2.9       0.1
 1 C  px              5.0       0.0      15.8       1.6       3.3       2.1
 1 C  py              0.2       0.2       0.6       0.2       3.7      19.2
 1 C  dxz             0.1       0.0       0.1       0.2       0.3       0.0
 1 C  dyz             0.0       0.0       0.0       0.0       0.0       0.9
 1 C  dx2y2           0.0       0.0       0.3       0.4       0.0       0.0
 1 C  dxy             0.0       0.1       0.1       0.0       0.0       0.0
 2 C  s               0.5       0.0       0.1       0.8       0.1       0.0
 2 C  pz              1.0       0.1       0.4      10.4       1.8       0.0
 2 C  px              0.2       1.2       2.1       3.4       5.9       1.3
 2 C  py              0.4      13.5       0.1       0.2       0.8       5.3
 2 C  dz2             0.0       0.0       0.1       0.0       0.0       0.0
 2 C  dxz             0.0       0.0       0.1       0.1       0.1       0.0
 2 C  dyz             0.0       0.3       0.0       0.0       0.0       0.5
 2 C  dx2y2           0.0       0.0       0.2       0.1       0.0       0.0
 3 C  s               0.1       0.0       0.4       0.0       0.5       0.0
 3 C  pz              0.5       0.4       0.2       0.7       1.4       0.1
 3 C  px              0.4       0.4       3.3       0.1       0.2       0.0
 3 C  py              0.2       4.5       1.0       0.1       0.1       0.0
 3 C  dz2             0.3       0.1       0.0       0.2       0.1       0.1
 3 C  dxz             0.0       0.0       0.0       0.0       0.1       0.0
 3 C  dyz             0.0       0.4       0.0       0.0       0.1       0.1
 3 C  dx2y2           0.2       0.2       0.0       0.1       0.1       0.0
 4 O  s               0.2       0.0       0.1       0.1       0.2       0.0
 4 O  pz              2.2       3.8       1.8       0.4       2.5       0.2
 4 O  px              0.1       1.5       2.7       0.5       0.0       0.3
 4 O  py              0.1      19.7       0.2       1.9       0.1       4.1
 4 O  dz2             0.0       0.1       0.1       0.1       0.2       0.0
 4 O  dyz             0.0       0.1       0.1       0.0       0.0       0.0
 5 O  s               0.2       0.0       0.0       0.1       1.8       0.3
 5 O  pz             10.9       0.4       0.7       2.0      10.3       2.9
 5 O  px              2.4       0.1       1.1       0.2       2.2       0.4
 5 O  py              0.3       0.0       0.0       0.8       4.1       0.0
 5 O  dz2             0.0       0.1       0.1       0.0       0.2       0.1
 5 O  dxz             0.0       0.2       0.0       0.5       0.4       0.1
 5 O  dyz             0.0       0.3       0.0       0.1       0.3       0.0
 5 O  dx2y2           0.0       0.0       0.0       0.1       1.1       0.0
 5 O  dxy             0.0       0.3       0.1       0.1       0.0       0.2
 6 C  s               0.3       0.1       0.0       0.0       0.2       0.0
 6 C  pz              0.5       3.0       2.0       4.3       6.7       1.8
 6 C  px              1.5       0.0       2.4       0.9       0.3       0.1
 6 C  py              0.9       4.2       0.8       1.4       3.1       0.1
 6 C  dz2             0.2       0.0       0.1       0.0       0.0       0.0
 6 C  dxz             0.0       0.1       0.0       0.1       0.0       0.0
 6 C  dyz             0.0       0.0       0.1       0.2       0.3       0.0
 6 C  dx2y2           0.3       0.0       0.0       0.1       0.3       0.0
 7 C  s               0.0       0.2       0.0       0.0       0.0       0.0
 7 C  pz              4.8       1.9       2.1       3.1       3.9       1.5
 7 C  px             23.7       0.1       2.7       0.8       0.1       0.0
 7 C  py              2.6       4.3       0.9       1.0       1.6       0.0
 7 C  dz2             0.2       0.0       0.1       0.1       0.0       0.0
 7 C  dxz             0.3       0.0       0.0       0.0       0.0       0.0
 7 C  dyz             0.0       0.0       0.1       0.1       0.1       0.0
 7 C  dx2y2           0.1       0.0       0.0       0.0       0.2       0.0
 8 H  s               2.2       0.2       0.6       6.8       4.9       0.2
 8 H  pz              0.1       0.0       0.1       0.0       0.0       0.0
 9 H  s               0.4       3.3       1.4       3.7       0.1       6.6
 9 H  px              0.1       0.0       0.2       0.0       0.0       0.0
10 H  s               0.0       4.9       2.1       1.3       2.7       5.3
10 H  px              0.1       0.0       0.1       0.0       0.1       0.0
11 H  s               0.1       0.0       2.2       4.6       0.2      12.1
11 H  pz              0.0       0.0       0.0       0.0       0.1       0.1
11 H  px              0.1       0.0       0.2       0.0       0.0       0.0
11 H  py              0.0       0.0       0.0       0.1       0.0       0.0
12 H  s               0.1       0.1       3.2       2.1       3.0      10.1
12 H  pz              0.0       0.0       0.0       0.0       0.0       0.1
12 H  py              0.0       0.0       0.1       0.1       0.0       0.0
13 H  s               0.2       5.2       0.4       1.2       0.0       4.5
13 H  pz              0.0       0.1       0.0       0.1       0.0       0.0
[...]
 3 C  dxz             6.5       1.7       9.9       0.3       0.0       0.0
 3 C  dyz             0.0       0.0       0.1       2.1       0.0       0.0
 3 C  dx2y2           3.3       0.3       1.6       0.1       0.0       0.0
 3 C  dxy             1.7       0.1       0.5       0.0       0.0       0.0
 4 O  s               1.5       1.0       0.6      18.9       0.0       0.0
 4 O  pz              0.9       0.7       0.3      18.4       0.0       0.0
 4 O  px              7.1       0.1       0.3       0.3       0.0       0.0
 4 O  py              0.0       0.1       0.1       2.9       0.0       0.0
 4 O  dz2             0.4       1.4       0.0      21.2       0.0       0.0
 4 O  dxz            17.4       0.0       1.2       0.8       0.0       0.0
 4 O  dyz             0.0       0.5       0.3      10.7       0.0       0.0
 4 O  dx2y2           0.5       0.1       0.4       0.4       0.0       0.0
 4 O  dxy             2.1       0.0       0.4       0.1       0.0       0.0
 5 O  s               4.8      27.3       5.3       0.9       0.0       0.0
 5 O  pz              4.2       5.9       4.3       0.1       0.0       0.0
 5 O  px              0.1       7.1      27.0       0.8       0.0       0.0
 5 O  py              0.4       1.3       0.0       0.1       0.0       0.0
 5 O  dz2             6.1       1.8       1.0       0.2       0.0       0.0
 5 O  dxz             0.0       0.1      25.2       0.5       0.0       0.0
 5 O  dyz             1.3       0.7       0.1       0.1       0.0       0.0
 5 O  dx2y2           1.0      19.9       1.9       1.1       0.0       0.0
 5 O  dxy             0.0       2.0       2.1       0.4       0.0       0.0
 6 C  s               0.1       1.3       0.5       0.2       1.3       0.0
 6 C  pz              0.5       0.4       0.2       0.0       0.0       0.0
 6 C  px              0.3       6.3       1.7       0.4       0.0       0.0
 6 C  py              0.2       0.8       0.2       0.0       0.0       0.0
 6 C  dz2             0.0       1.9       0.6       0.1       0.0       0.0
 6 C  dxz             1.4       3.6       0.8       0.3       0.0       0.0
 6 C  dyz             2.3       0.1       0.0       0.0       0.0       0.0
 6 C  dx2y2           0.6       5.5       1.3       0.2       0.0       0.0
 6 C  dxy             0.0       1.6       0.3       0.1       0.0       0.0
 7 C  s               0.1       0.0       0.0       0.0       0.1      98.8
 7 C  pz              0.3       0.0       0.0       0.0       0.0       0.0
 7 C  py              0.3       0.1       0.0       0.0       0.0       0.0
 7 C  dxz             0.1       0.1       0.0       0.0       0.0       0.0
 7 C  dyz             1.7       0.1       0.0       0.0       0.0       0.0
 7 C  dx2y2           0.7       0.2       0.0       0.0       0.0       0.0
 8 H  s               0.1       0.0       0.0       0.0       0.0       0.0
 8 H  px              0.2       0.0       0.0       0.0       0.0       0.0
 9 H  s               0.2       0.0       0.0       0.0       0.0       0.0
 9 H  py              0.4       0.0       0.0       0.0       0.0       0.0
11 H  s               0.8       0.0       0.0       0.0       0.0       0.0
11 H  pz              0.4       0.0       0.0       0.0       0.0       0.0
11 H  py              1.5       0.0       0.0       0.0       0.0       0.0
12 H  pz              0.2       0.0       0.0       0.0       0.0       0.0
13 H  s               0.1       0.0       0.0       0.0       0.0       0.0
13 H  px              0.1       0.0       0.0       0.0       0.0       0.0
13 H  py              0.3       0.0       0.0       0.0       0.0       0.0
14 H  s               0.2       0.0       0.0       0.0       0.0       0.0
14 H  pz              0.2       0.0       0.1       0.0       0.0       0.0
14 H  py              0.4       0.0       0.0       0.0       0.0       0.0
15 H  s               0.7       0.3       0.1       0.0       0.0       0.0
15 H  pz              0.5       0.2       0.0       0.0       0.0       0.0
15 H  px              0.7       0.3       0.1       0.0       0.0       0.0
15 H  py              1.3       0.3       0.1       0.0       0.0       0.0
16 H  s               0.6       0.4       0.1       0.0       0.0       0.0
16 H  pz              1.4       1.2       0.2       0.1       0.0       0.0
16 H  py              0.1       0.0       0.0       0.0       0.0       0.0
17 H  s               0.0       0.1       0.0       0.0       0.0       0.0
17 H  px              0.0       0.2       0.0       0.0       0.0       0.0
18 H  s               0.8       0.0       0.0       0.0       0.0       0.0
18 H  pz              0.6       0.0       0.0       0.0       0.0       0.0
18 H  py              1.3       0.0       0.0       0.0       0.0       0.0
19 H  s               0.3       0.0       0.0       0.0       0.0       0.0
19 H  pz              0.2       0.0       0.0       0.0       0.0       0.0

                    216       217       218       219       220       221   
                  21.98744  22.02104  22.07146  22.24582  43.67771  43.75426
                   0.00000   0.00000   0.00000   0.00000   0.00000   0.00000
                  --------  --------  --------  --------  --------  --------
 0 C  s              36.6       8.8       0.0       0.1       0.0       0.0
 1 C  s              57.7      19.8       1.9       0.5       0.0       0.0
 2 C  s               4.9      55.9      11.4       2.4       0.0       0.0
 3 C  s               0.0       1.8       1.4      95.7       0.0       0.0
 4 O  s               0.0       0.0       0.0       0.2      98.9       1.0
 4 O  pz              0.0       0.0       0.0       0.1       0.0       0.0
 5 O  s               0.0       0.0       0.1       0.1       1.0      98.9
 6 C  s               0.1      13.0      84.8       0.4       0.0       0.0
 7 C  s               0.4       0.3       0.0       0.0       0.0       0.0



                      *****************************
                      * MAYER POPULATION ANALYSIS *
                      *****************************

  NA   - Mulliken gross atomic population
  ZA   - Total nuclear charge
  QA   - Mulliken gross atomic charge
  VA   - Mayer's total valence
  BVA  - Mayer's bonded valence
  FA   - Mayer's free valence

  ATOM       NA         ZA         QA         VA         BVA        FA
  0 C      6.5149     6.0000    -0.5149     3.7804     3.7804     0.0000
  1 C      6.2456     6.0000    -0.2456     3.6959     3.6959     0.0000
  2 C      6.3198     6.0000    -0.3198     3.7622     3.7622    -0.0000
  3 C      5.5759     6.0000     0.4241     3.8347     3.8347    -0.0000
  4 O      8.5146     8.0000    -0.5146     1.8908     1.8908     0.0000
  5 O      8.1988     8.0000    -0.1988     1.9253     1.9253    -0.0000
  6 C      6.1447     6.0000    -0.1447     3.6562     3.6562    -0.0000
  7 C      6.4949     6.0000    -0.4949     3.8114     3.8114    -0.0000
  8 H      0.8399     1.0000     0.1601     0.9578     0.9578     0.0000
  9 H      0.8449     1.0000     0.1551     0.9599     0.9599     0.0000
 10 H      0.8425     1.0000     0.1575     0.9601     0.9601     0.0000
 11 H      0.8464     1.0000     0.1536     0.9572     0.9572     0.0000
 12 H      0.8442     1.0000     0.1558     0.9570     0.9570     0.0000
 13 H      0.8163     1.0000     0.1837     0.9546     0.9546     0.0000
 14 H      0.8046     1.0000     0.1954     0.9486     0.9486    -0.0000
 15 H      0.8290     1.0000     0.1710     0.9556     0.9556    -0.0000
 16 H      0.8266     1.0000     0.1734     0.9470     0.9470    -0.0000
 17 H      0.8301     1.0000     0.1699     0.9584     0.9584     0.0000
 18 H      0.8346     1.0000     0.1654     0.9584     0.9584    -0.0000
 19 H      0.8315     1.0000     0.1685     0.9576     0.9576     0.0000

  Mayer bond orders larger than 0.100000
B(  0-C ,  1-C ) :   0.8810 B(  0-C ,  8-H ) :   0.9727 B(  0-C ,  9-H ) :   0.9772 
B(  0-C , 10-H ) :   0.9836 B(  1-C ,  2-C ) :   0.9360 B(  1-C , 11-H ) :   0.9649 
B(  1-C , 12-H ) :   0.9655 B(  2-C ,  3-C ) :   1.0041 B(  2-C , 13-H ) :   0.9495 
B(  2-C , 14-H ) :   0.9251 B(  3-C ,  4-O ) :   1.7689 B(  3-C ,  5-O ) :   1.0934 
B(  5-O ,  6-C ) :   0.7985 B(  6-C ,  7-C ) :   0.9363 B(  6-C , 15-H ) :   0.9643 
B(  6-C , 16-H ) :   0.9522 B(  7-C , 17-H ) :   0.9601 B(  7-C , 18-H ) :   0.9697 
B(  7-C , 19-H ) :   0.9698 

-------
TIMINGS
-------

Total SCF time: 0 days 0 hours 0 min 35 sec 

Total time                  ....      35.751 sec
Sum of individual times     ....      34.831 sec  ( 97.4%)

SCF preparation             ....       0.444 sec  (  1.2%)
Fock matrix formation       ....      31.901 sec  ( 89.2%)
  Startup                   ....       0.079 sec  (  0.2% of F)
  Split-RI-J                ....       5.182 sec  ( 16.2% of F)
  XC integration            ....      20.127 sec  ( 63.1% of F)
    Basis function eval.    ....       3.600 sec  ( 17.9% of XC)
    Density eval.           ....       5.794 sec  ( 28.8% of XC)
    XC-Functional eval.     ....       2.561 sec  ( 12.7% of XC)
    XC-Potential eval.      ....       6.343 sec  ( 31.5% of XC)
  CPCM terms                ....       5.803 sec  ( 18.2% of F)
Diagonalization             ....       0.000 sec  (  0.0%)
Density matrix formation    ....       0.327 sec  (  0.9%)
Total Energy calculation    ....       0.065 sec  (  0.2%)
Population analysis         ....       0.144 sec  (  0.4%)
Orbital Transformation      ....       0.311 sec  (  0.9%)
Orbital Orthonormalization  ....       0.000 sec  (  0.0%)
DIIS solution               ....       1.569 sec  (  4.4%)
  MO trafo                  ....       0.000 sec  (  0.0 % of DIIS)
  Orb grad                  ....       0.000 sec  (  0.0 % of DIIS)
  Energy W gradient         ....       0.000 sec  (  0.0 % of DIIS)
  DIIS error                ....       0.030 sec  (  1.9 % of DIIS)
  DIIS work                 ....       1.212 sec  ( 77.3 % of DIIS)
  Form Q                    ....       0.000 sec  (  0.0 % of DIIS)
  Form QpQm                 ....       0.000 sec  (  0.0 % of DIIS)
  Exp/Cayley                ....       0.000 sec  (  0.0 % of DIIS)
  Orb update                ....       0.000 sec  (  0.0 % of DIIS)
  Wake-sleep                ....       0.052 sec  (  3.3 % of DIIS)
SOSCF solution              ....       0.071 sec  (  0.2%)
  MO trafo                  ....       0.056 sec  ( 79.0 % of SOSCF)
  Orb grad                  ....       0.001 sec  (  1.5 % of SOSCF)
  Rot update                ....       0.000 sec  (  0.1 % of SOSCF)
  Step                      ....       0.014 sec  ( 19.2 % of SOSCF)
Finished LeanSCF after  35.9 sec

Maximum memory used throughout the entire LEANSCF-calculation: 30.7 MB


-------------------------------------------------------------------------------
                          DFT DISPERSION CORRECTION                            
                                                                               
                                DFTD4 V3.4.0                                   
-------------------------------------------------------------------------------
The R2SCAN3C composite method is recognized
Using three-body term ABC
Active option DFTDOPT                   ...         5   

-------------------------   ----------------
Dispersion correction           -0.004904688
-------------------------   ----------------

------------------   -----------------
gCP correction             0.011709118
------------------   -----------------

-------------------------   --------------------
FINAL SINGLE POINT ENERGY      -386.241662341235
-------------------------   --------------------


------------------------------------------------------------------------------
                              ORCA PROPERTY CALCULATIONS
------------------------------------------------------------------------------

GBWName                                 ... sp_solv.gbw
Number of atoms                         ...     20
Number of basis functions               ...    222
Max core memory                         ...   1024 MB

Electric properties:
Dipole moment                           ... YES
Quadrupole moment                       ...  NO
Static polarizability (Dipole/Dipole)   ...  NO
Static polarizability (Dipole/Quad.)    ...  NO
Static polarizability (Quad./Quad.)     ...  NO
Static polarizability (Velocity)        ...  NO

Atomic electric properties:
Dipole moment                           ...  NO
Quadrupole moment                       ...  NO
Static polarizability                   ...  NO

Choice of electric origin               ... Center of mass
Position of electric origin             ...    -0.000015    -0.000012     0.000004

General magnetic properties:
Magnetizability                         ...  NO

EPR properties:
g-Tensor (aka g-matrix)                 ...  NO
Zero-Field splitting spin-orbit         ...  NO
Zero-field splitting spin-spin          ...  NO
Hyperfine couplings                     ...  NO (   0 nuclei)
Quadrupole couplings                    ...  NO (   0 nuclei)
Contact density                         ...  NO (   0 nuclei)

NMR properties:
Chemical shifts                         ...  NO (   0 nuclei)
Spin-rotation constants                 ...  NO (   0 nuclei)
Spin-spin couplings                     ...  NO (   0 nuclei,    0 pairs)

Choice of magnetic origin               ... GIAO
Position of magnetic origin             ...     0.000000     0.000000     0.000000

Properties with geometric perturbations:
SCF Hessian                             ...  NO
IR spectrum                             ...  NO
VCD spectrum                            ...  NO
X-ray spectroscopy properties:
SCF XES/XAS/RIXS spectra                ...  NO


-------------
DIPOLE MOMENT
-------------

Method             : SCF
Type of density    : Electron Density
Multiplicity       :   1
Irrep              :   0
Energy             :  -386.2484667715024216 Eh
Relativity type    : 
Basis              : AO
                                X                 Y                 Z
Electronic contribution:      3.736771433       2.979595604       0.089353136
Nuclear contribution   :     -3.447659645      -3.341979983       0.878899495
                        -----------------------------------------
Total Dipole Moment    :      0.289111788      -0.362384379       0.968252631
                        -----------------------------------------
Magnitude (a.u.)       :      1.073508836
Magnitude (Debye)      :      2.728642612



--------------------
Rotational spectrum 
--------------------
 
Rotational constants in cm-1:             0.194702             0.028480             0.027368 
Rotational constants in MHz :          5837.025848           853.810663           820.457262 

Dipole components along the rotational axes: 
x,y,z [a.u.] :     0.252798    -1.036769    -0.116721 
x,y,z [Debye]:     0.642561    -2.635258    -0.296680 

 

Dipole moment calculation done in   0.0 sec 

Maximum memory used throughout the entire PROP-calculation: 13.5 MB

--------------------------------
SUGGESTED CITATIONS FOR THIS RUN
--------------------------------

Below you find a list of papers that are relevant to this ORCA run
We neither can nor want to force you to cite these papers, but we appreciate if you do
You receive ORCA, which is the product of decades of hard work by many enthusiastic individuals, for free
The only thing we kindly ask in return is that you cite our papers,
We deeply appreciate it, if you show your appreciation for ORCA by not just citing the generic ORCA reference.

Please note that relegating all ORCA citations to the supporting information does *not* help us.
SI sections are not indexed - citations you put there will not count into any citation statistics
But we need these citations in order to attract the funding resources that allow us to do what we are doing

Therefore, if you are a happy ORCA user, please consider citing a few of the papers listed below in the main body of your paper

In addition to the list printed below, the program has created the file sp_solv.bibtex that contains the list in bibtex format
You can import this file easily into all common literature databanks and citation aid programs


List of essential papers. We consider these as the minimum necessary citations

  1. Neese,F.
     Software update: the ORCA program system, version 5.0
     WIRES Comput. Molec. Sci., 2022 12(1)e1606
     doi.org/10.1002/wcms.1606
  2. Grimme,S.; Hansen,A.; Ehlert,S.; Mewes,J.
     r2SCAN-3c: A 'Swiss army knife' composite electronic-structure method
     J. Chem. Phys., 2021 154 064103
     doi.org/10.1063/5.0040021

List of papers to cite with high priority. The work reported in these papers was absolutely
necessary for this run to complete.
Our perspective: the developers of density functionals and basis sets usually get cited in chemistry papers
Good! But without the algorithms to do something with them, the functionals or basis sets would not do anything.
Hence, in our opinion, the algorithm design and method developments papers are equally worthy of getting cited

  1. Neese,F.
     An improvement of the resolution of the identity approximation for the formation of the Coulomb matrix
     J. Comp. Chem., 2003 24(14)1740-1747
     doi.org/10.1002/jcc.10318
  2. Garcia-Rates,M.; Neese,F.
     Effect of the Solute Cavity on the Solvation Energy and its Derivatives within the Framework of the Gaussian Charge Scheme
     J. Comput. Chem., 2020 41 922-939
     doi.org/10.1002/jcc.26139
  3. Neese,F.
     The SHARK Integral Generation and Digestion System
     J. Comp. Chem., 2022  1-16
     doi.org/10.1002/jcc.26942
  4. Lehtola,S.; Steigemann,C.; Oliveira,M.; Marques,M.
     Recent developments in Libxc - A comprehensive library of functionals for density functional theory
     Software X, 2018 7 
     doi.org/10.1016/j.softx.2017.11.002
  5. Caldeweyher,E.; Bannwarth,C.; Grimme,S.
     Extension of the D3 dispersion coefficient model
     J. Chem. Phys., 2017 147 034112-XXXX
     doi.org/10.1063/1.4993215
  6. Caldeweyher,E.; Ehlert,S.; Hansen,A.; Neugebauer,H.; Spicher,S.; Bannwarth,C.; Grimme,S.
     A generally applicable atomic-charge dependent London dispersion correction
     J. Chem. Phys., 2019 150 154122-XXXX
     doi.org/10.1063/1.5090222
  7. Caldeweyher,E.; Mewes,J.; Ehlert,S.; Grimme,S.
     Extension and evaluation of the D4 London-dispersion model for periodic systems
     Phys. Chem. Chem. Phys., 2020 22(16)8499-8512
     doi.org/10.1039/D0CP00502A

List of suggested additional citations. These are papers that are important in the 'surrounding' of 
of this run, or papers that preceded the highly important papers. If you like your results we are grateful for a citation.

  1. Neese,F.
     The ORCA program system
     WIRES Comput. Molec. Sci., 2012 2(1)73-78
     doi.org/10.1002/wcms.81
  2. Neese,F.
     Software update: the ORCA program system, version 4.0
     WIRES Comput. Molec. Sci., 2018 8(1)1-6
     doi.org/10.1002/wcms.1327
  3. Neese,F.; Wennmohs,F.; Becker,U.; Riplinger,C.
     The ORCA quantum chemistry program package
     J. Chem. Phys., 2020 152 Art. No. L224108
     doi.org/10.1063/5.0004608

List of optional additional citations

  1. Neese,F.
     Approximate second-order SCF convergence for spin unrestricted wavefunctions
     Chem. Phys. Lett., 2000 325(1-3)93-98
     doi.org/10.1016/s0009-2614(00)00662-x

Timings for individual modules:

Sum of individual times          ...       38.102 sec (=   0.635 min)
Startup calculation              ...        1.593 sec (=   0.027 min)   4.2 %
SCF iterations                   ...       36.345 sec (=   0.606 min)  95.4 %
Property calculations            ...        0.163 sec (=   0.003 min)   0.4 %
                             ****ORCA TERMINATED NORMALLY****
TOTAL RUN TIME: 0 days 0 hours 0 minutes 39 seconds 262 msec
