
                                 *****************
                                 * O   R   C   A *
                                 *****************

                                            #,                                       
                                            ###                                      
                                            ####                                     
                                            #####                                    
                                            ######                                   
                                           ########,                                 
                                     ,,################,,,,,                         
                               ,,#################################,,                 
                          ,,##########################################,,             
                       ,#########################################, ''#####,          
                    ,#############################################,,   '####,        
                  ,##################################################,,,,####,       
                ,###########''''           ''''###############################       
              ,#####''   ,,,,##########,,,,          '''####'''          '####       
            ,##' ,,,,###########################,,,                        '##       
           ' ,,###''''                  '''############,,,                           
         ,,##''                                '''############,,,,        ,,,,,,###''
      ,#''                                            '''#######################'''  
     '                                                          ''''####''''         
             ,#######,   #######,   ,#######,      ##                                
            ,#'     '#,  ##    ##  ,#'     '#,    #''#        ,####,   ,####,        
            ##       ##  ##   ,#'  ##            #'  '#       #'       #'  '#        
            ##       ##  #######   ##           ,######,      #####,   #    #        
            '#,     ,#'  ##    ##  '#,     ,#' ,#      #,     #,   #   #,  ,#        
             '#######'   ##     ##  '#######'  #'      '#     '####' # '####'        



                #########################################################
                #                        -***-                          #
                #          Department of theory and spectroscopy        #
                #                                                       #
                #                      Frank Neese                      #
                #                                                       #
                #     Directorship, Architecture, Infrastructure        #
                #                    SHARK, DRIVERS                     #
                #        Core code/Algorithms in most modules           #
                #                                                       #
                #        Max Planck Institute fuer Kohlenforschung      #
                #                Kaiser Wilhelm Platz 1                 #
                #                 D-45470 Muelheim/Ruhr                 #
                #                      Germany                          #
                #                                                       #
                #                  All rights reserved                  #
                #                        -***-                          #
                #########################################################


                         Program Version 6.0.0  -   RELEASE  -


 With contributions from (in alphabetic order):
   Daniel Aravena         : Magnetic Suceptibility
   Michael Atanasov       : Ab Initio Ligand Field Theory (pilot matlab implementation)
   Alexander A. Auer      : GIAO ZORA, VPT2 properties, NMR spectrum
   Ute Becker             : All parallelization in ORCA, NUMFREQ, NUMCALC
   Giovanni Bistoni       : ED, misc. LED, open-shell LED, HFLD
   Martin Brehm           : Molecular dynamics
   Dmytro Bykov           : pre 5.0 version of the SCF Hessian
   Marcos Casanova-Páez   : Triplet and SCS-CIS(D). UHF-(DLPNO)-IP/EA/STEOM-CCSD. UHF-CVS-IP/STEOM-CCSD
   Vijay G. Chilkuri      : MRCI spin determinant printing, contributions to CSF-ICE
   Pauline Colinet        : FMM embedding
   Dipayan Datta          : RHF DLPNO-CCSD density
   Achintya Kumar Dutta   : EOM-CC, STEOM-CC
   Nicolas Foglia         : Exact transition moments, OPA infrastructure, MCD improvements
   Dmitry Ganyushin       : Spin-Orbit,Spin-Spin,Magnetic field MRCI
   Miquel Garcia          : C-PCM and meta-GGA Hessian, CCSD/C-PCM, Gaussian charge scheme
   Tiago L. C. Gouveia    : GS-ROHF, GS-ROCIS
   Yang Guo               : DLPNO-NEVPT2, F12-NEVPT2, CIM, IAO-localization
   Andreas Hansen         : Spin unrestricted coupled pair/coupled cluster methods
   Ingolf Harden          : AUTO-CI MPn and infrastructure 
   Benjamin Helmich-Paris : MC-RPA, TRAH-(SCF,CASSCF), AVAS, COSX integrals, SCF dyn. polar.
   Lee Huntington         : MR-EOM, pCC
   Robert Izsak           : Overlap fitted RIJCOSX, COSX-SCS-MP3, EOM
   Riya Kayal             : Wick's Theorem for AUTO-CI, AUTO-CI UHF-CCSDT
   Emily Kempfer          : AUTO-CI, RHF CISDT and CCSDT
   Christian Kollmar      : KDIIS, OOCD, Brueckner-CCSD(T), CCSD density, CASPT2, CASPT2-K, improved NEVPT2
   Axel Koslowski         : Symmetry handling
   Simone Kossmann        : Meta GGA functionals, TD-DFT gradient, OOMP2, (MP2 Hessian; deprecated post 5.0)
   Lucas Lang             : DCDCAS
   Marvin Lechner         : AUTO-CI (C++ implementation), FIC-MRCC
   Spencer Leger          : CASSCF response
   Dagmar Lenk            : GEPOL surface, SMD, ORCA-2-JSON
   Dimitrios Liakos       : Extrapolation schemes; Compound Job, initial MDCI parallelization
   Dimitrios Manganas     : Further ROCIS development; embedding schemes. LFT, Crystal Embedding
   Dimitrios Pantazis     : SARC Basis sets
   Anastasios Papadopoulos: AUTO-CI, single reference methods and gradients
   Taras Petrenko         : pre 6.0 DFT Hessian and TD-DFT gradient, (ASA, deprecated), ECA, 1-Electron XAS/XES, NRVS
   Peter Pinski           : DLPNO-MP2, DLPNO-MP2 Gradient
   Christoph Reimann      : Effective Core Potentials
   Marius Retegan         : Local ZFS, SOC
   Christoph Riplinger    : Optimizer, TS searches, QM/MM, DLPNO-CCSD(T), (RO)-DLPNO pert. Triples
   Michael Roemelt        : Original ROCIS implementation
   Masaaki Saitow         : Open-shell DLPNO-CCSD energy and density
   Barbara Sandhoefer     : DKH picture change effects
   Kantharuban Sivalingam : CASSCF convergence/infrastructure, NEVPT2 and variants, FIC-MRCI
   Bernardo de Souza      : ESD, SOC TD-DFT
   Georgi Stoychev        : AutoAux, RI-MP2 NMR, DLPNO-MP2 response, X2C
   Van Anh Tran           : RI-MP2 g-tensors
   Willem Van den Heuvel  : Paramagnetic NMR
   Zikuan Wang            : NOTCH, Electric field optimization 
   Frank Wennmohs         : Technical directorship and infrastructure
   Hang Xu                : AUTO-CI-Response properties 


 We gratefully acknowledge several colleagues who have allowed us to
 interface, adapt or use parts of their codes:
   Stefan Grimme, W. Hujo, H. Kruse, P. Pracht,  : VdW corrections, initial TS optimization,
                  C. Bannwarth, S. Ehlert,         DFT functionals, gCP, sTDA/sTD-DF
                  L. Wittmann, M. Mueller
   Ed Valeev, F. Pavosevic, A. Kumar             : LibInt (2-el integral package), F12 methods
   Garnet Chan, S. Sharma, J. Yang, R. Olivares  : DMRG
   Ulf Ekstrom                                   : XCFun DFT Library
   Mihaly Kallay                                 : mrcc  (arbitrary order and MRCC methods)
   Frank Weinhold                                : gennbo (NPA and NBO analysis)
   Simon Mueller                                 : openCOSMO-RS
   Christopher J. Cramer and Donald G. Truhlar   : smd solvation model
   Lars Goerigk                                  : TD-DFT with DH, B97 family of functionals
   V. Asgeirsson, H. Jonsson                     : NEB implementation
   FAccTs GmbH                                   : IRC, NEB, NEB-TS, DLPNO-Multilevel, CI-OPT
                                                   MM, QMMM, 2- and 3-layer-ONIOM, Crystal-QMMM,
                                                   LR-CPCM, SF, NACMEs, symmetry and pop. for TD-DFT,
                                                   nearIR, NL-DFT gradient (VV10), updates on ESD,
                                                   ML-optimized integration grids, MBIS, APM,
                                                   GOAT, DOCKER, SOLVATOR, interface openCOSMO-RS
   S Lehtola, MJT Oliveira, MAL Marques          : LibXC Library
   Liviu Ungur et al                             : ANISO software


 Your calculation uses the libint2 library for the computation of 2-el integrals
 For citations please refer to: http://libint.valeyev.net

 Your ORCA version has been built with support for libXC version: 6.2.2
 For citations please refer to: https://libxc.gitlab.io

 This ORCA versions uses:
   CBLAS   interface :  Fast vector & matrix operations
   LAPACKE interface :  Fast linear algebra routines
   SCALAPACK package :  Parallel linear algebra routines
   Shared memory     :  Shared parallel matrices
   BLAS/LAPACK       :  OpenBLAS 0.3.27  USE64BITINT DYNAMIC_ARCH NO_AFFINITY SkylakeX SINGLE_THREADED
        Core in use  :  SkylakeX
   Copyright (c) 2011-2014, The OpenBLAS Project


Your calculation utilizes the geometrical counterpoise correction gCP
Please cite in your paper:
H.Kruse, S. Grimme J.Chem.Phys., 136, (2012), 154101 
   

Your calculation utilizes the atom-pairwise dispersion correction
based on EEQ partial charges (D4)


================================================================================

----- Orbital basis set information -----
Your calculation utilizes the basis: def2-SV(P)
   F. Weigend and R. Ahlrichs, Phys. Chem. Chem. Phys. 7, 3297 (2005).

----- AuxJ basis set information -----
Your calculation utilizes the auxiliary basis: def2/J
   F. Weigend, Phys. Chem. Chem. Phys. 8, 1057 (2006).

================================================================================
                                        WARNINGS
                       Please study these warnings very carefully!
================================================================================


================================================================================
                                       INPUT FILE
================================================================================
NAME = sp.inp
|  1> ! pbe def2-sv(p) def2/J RI DEFGRID1 loosescf d4 GCP(DFT/SV(P)) printgap
|  2> %output
|  3>     printlevel normal
|  4> end
|  5> * xyz 0 1
|  6> C -3.3154401911 -1.0876255433 0.1050982681
|  7> C -1.8699851438 -0.7226917901 0.4176431428
|  8> C -1.3558104793 0.3697500843 -0.5322299503
|  9> C 0.064012463 0.709662893 -0.1688328806
| 10> O 0.390777111 1.5938462357 0.5960272715
| 11> O 0.9261037708 -0.1002011005 -0.769909892
| 12> C 2.3246274737 0.0404614502 -0.4688342934
| 13> C 2.7034764961 -0.7669372741 0.7632854723
| 14> H -3.6613523356 -1.8609949579 0.7853750677
| 15> H -3.9597334087 -0.2189951874 0.2136154222
| 16> H -3.4026144091 -1.457604659 -0.9131178763
| 17> H -1.2363881471 -1.6058556178 0.3179101703
| 18> H -1.792347786 -0.3639318832 1.44620898
| 19> H -1.9678157816 1.2654201159 -0.4300800835
| 20> H -1.3849807747 0.0064248416 -1.5585893276
| 21> H 2.8359932072 -0.3280742957 -1.3584933824
| 22> H 2.5428156194 1.1017741826 -0.3159680073
| 23> H 3.7728159096 -0.6886771154 0.9296939908
| 24> H 2.1811536261 -0.3810553299 1.6359918118
| 25> H 2.4372413727 -1.8111551998 0.6237634492
| 26> *
| 27> 
| 28>                          ****END OF INPUT****
================================================================================

                       ****************************
                       * Single Point Calculation *
                       ****************************

---------------------------------
CARTESIAN COORDINATES (ANGSTROEM)
---------------------------------
  C     -3.315440   -1.087626    0.105098
  C     -1.869985   -0.722692    0.417643
  C     -1.355810    0.369750   -0.532230
  C      0.064012    0.709663   -0.168833
  O      0.390777    1.593846    0.596027
  O      0.926104   -0.100201   -0.769910
  C      2.324627    0.040461   -0.468834
  C      2.703476   -0.766937    0.763285
  H     -3.661352   -1.860995    0.785375
  H     -3.959733   -0.218995    0.213615
  H     -3.402614   -1.457605   -0.913118
  H     -1.236388   -1.605856    0.317910
  H     -1.792348   -0.363932    1.446209
  H     -1.967816    1.265420   -0.430080
  H     -1.384981    0.006425   -1.558589
  H      2.835993   -0.328074   -1.358493
  H      2.542816    1.101774   -0.315968
  H      3.772816   -0.688677    0.929694
  H      2.181154   -0.381055    1.635992
  H      2.437241   -1.811155    0.623763

----------------------------
CARTESIAN COORDINATES (A.U.)
----------------------------
  NO LB      ZA    FRAG     MASS         X           Y           Z
   0 C     6.0000    0    12.011   -6.265274   -2.055314    0.198607
   1 C     6.0000    0    12.011   -3.533760   -1.365690    0.789231
   2 C     6.0000    0    12.011   -2.562110    0.698726   -1.005769
   3 C     6.0000    0    12.011    0.120966    1.341069   -0.319048
   4 O     8.0000    0    15.999    0.738462    3.011933    1.126328
   5 O     8.0000    0    15.999    1.750082   -0.189353   -1.454919
   6 C     6.0000    0    12.011    4.392909    0.076461   -0.885968
   7 C     6.0000    0    12.011    5.108830   -1.449301    1.442401
   8 H     1.0000    0     1.008   -6.918953   -3.516771    1.484144
   9 H     1.0000    0     1.008   -7.482812   -0.413841    0.403675
  10 H     1.0000    0     1.008   -6.430009   -2.754474   -1.725543
  11 H     1.0000    0     1.008   -2.336435   -3.034627    0.600763
  12 H     1.0000    0     1.008   -3.387046   -0.687732    2.732939
  13 H     1.0000    0     1.008   -3.718633    2.391297   -0.812734
  14 H     1.0000    0     1.008   -2.617234    0.012141   -2.945307
  15 H     1.0000    0     1.008    5.359250   -0.619971   -2.567180
  16 H     1.0000    0     1.008    4.805225    2.082051   -0.597093
  17 H     1.0000    0     1.008    7.129589   -1.301411    1.756867
  18 H     1.0000    0     1.008    4.121783   -0.720090    3.091576
  19 H     1.0000    0     1.008    4.605719   -3.422587    1.178742

--------------------------------
INTERNAL COORDINATES (ANGSTROEM)
--------------------------------
 C      0   0   0     0.000000000000     0.00000000     0.00000000
 C      1   0   0     1.523220678920     0.00000000     0.00000000
 C      2   1   0     1.536249890985   111.16818946     0.00000000
 C      3   2   1     1.504491719906   109.09738303   179.07616705
 O      4   3   2     1.213905420929   124.80538165   267.65703561
 O      4   3   2     1.326791123194   111.46033858    86.33782141
 C      6   4   3     1.437463396687   118.52476110   183.52988677
 C      7   6   4     1.521032017679   111.10316623    86.28790626
 H      1   2   3     1.086522888496   110.13135222   179.96031774
 H      1   2   3     1.086926132803   110.52123066   299.85455444
 H      1   2   3     1.086852339122   110.48110585    60.00718115
 H      2   1   3     1.091499045620   109.77015364   239.39783885
 H      2   1   3     1.092100687473   109.84114610   120.67511172
 H      3   2   1     1.089591616541   109.79098140    59.97169415
 H      3   2   1     1.089160093599   109.66238137   298.58747865
 H      7   6   4     1.090324173833   104.61491095   206.59677068
 H      7   6   4     1.094238952105   108.55205652   324.44922997
 H      8   7   6     1.085036049509   109.35495413   176.63477926
 H      8   7   6     1.087815430295   109.99739784   296.23447835
 H      8   7   6     1.086617969764   110.18623208    56.47991508

---------------------------
INTERNAL COORDINATES (A.U.)
---------------------------
 C      0   0   0     0.000000000000     0.00000000     0.00000000
 C      1   0   0     2.878469924685     0.00000000     0.00000000
 C      2   1   0     2.903091567228   111.16818946     0.00000000
 C      3   2   1     2.843077321375   109.09738303   179.07616705
 O      4   3   2     2.293948798038   124.80538165   267.65703561
 O      4   3   2     2.507271859754   111.46033858    86.33782141
 C      6   4   3     2.716412147275   118.52476110   183.52988677
 C      7   6   4     2.874333954338   111.10316623    86.28790626
 H      1   2   3     2.053230697494   110.13135222   179.96031774
 H      1   2   3     2.053992718800   110.52123066   299.85455444
 H      1   2   3     2.053853268952   110.48110585    60.00718115
 H      2   1   3     2.062634271658   109.77015364   239.39783885
 H      2   1   3     2.063771209992   109.84114610   120.67511172
 H      3   2   1     2.059029753079   109.79098140    59.97169415
 H      3   2   1     2.058214292898   109.66238137   298.58747865
 H      7   6   4     2.060414085738   104.61491095   206.59677068
 H      7   6   4     2.067811944548   108.55205652   324.44922997
 H      8   7   6     2.050420979003   109.35495413   176.63477926
 H      8   7   6     2.055673247511   109.99739784   296.23447835
 H      8   7   6     2.053410375052   110.18623208    56.47991508

---------------------
BASIS SET INFORMATION
---------------------
There are 3 groups of distinct atoms

 Group   1 Type C   : 7s4p1d contracted to 3s2p1d pattern {511/31/1}
 Group   2 Type O   : 7s4p1d contracted to 3s2p1d pattern {511/31/1}
 Group   3 Type H   : 4s contracted to 2s pattern {31}

Atom   0C    basis set group =>   1
Atom   1C    basis set group =>   1
Atom   2C    basis set group =>   1
Atom   3C    basis set group =>   1
Atom   4O    basis set group =>   2
Atom   5O    basis set group =>   2
Atom   6C    basis set group =>   1
Atom   7C    basis set group =>   1
Atom   8H    basis set group =>   3
Atom   9H    basis set group =>   3
Atom  10H    basis set group =>   3
Atom  11H    basis set group =>   3
Atom  12H    basis set group =>   3
Atom  13H    basis set group =>   3
Atom  14H    basis set group =>   3
Atom  15H    basis set group =>   3
Atom  16H    basis set group =>   3
Atom  17H    basis set group =>   3
Atom  18H    basis set group =>   3
Atom  19H    basis set group =>   3
---------------------------------
AUXILIARY/J BASIS SET INFORMATION
---------------------------------
There are 3 groups of distinct atoms

 Group   1 Type C   : 12s5p4d2f1g contracted to 6s4p3d1f1g pattern {711111/2111/211/2/1}
 Group   2 Type O   : 12s5p4d2f1g contracted to 6s4p3d1f1g pattern {711111/2111/211/2/1}
 Group   3 Type H   : 5s2p1d contracted to 3s1p1d pattern {311/2/1}

Atom   0C    basis set group =>   1
Atom   1C    basis set group =>   1
Atom   2C    basis set group =>   1
Atom   3C    basis set group =>   1
Atom   4O    basis set group =>   2
Atom   5O    basis set group =>   2
Atom   6C    basis set group =>   1
Atom   7C    basis set group =>   1
Atom   8H    basis set group =>   3
Atom   9H    basis set group =>   3
Atom  10H    basis set group =>   3
Atom  11H    basis set group =>   3
Atom  12H    basis set group =>   3
Atom  13H    basis set group =>   3
Atom  14H    basis set group =>   3
Atom  15H    basis set group =>   3
Atom  16H    basis set group =>   3
Atom  17H    basis set group =>   3
Atom  18H    basis set group =>   3
Atom  19H    basis set group =>   3
------------------------------------------------------------------------------
                             ORCA STARTUP CALCULATIONS
                           -- RI-GTO INTEGRALS CHOSEN --
------------------------------------------------------------------------------
------------------------------------------------------------------------------
                   ___                                                        
                  /   \      - P O W E R E D   B Y -                         
                 /     \                                                     
                 |  |  |   _    _      __       _____    __    __             
                 |  |  |  | |  | |    /  \     |  _  \  |  |  /  |          
                  \  \/   | |  | |   /    \    | | | |  |  | /  /          
                 / \  \   | |__| |  /  /\  \   | |_| |  |  |/  /          
                |  |  |   |  __  | /  /__\  \  |    /   |      \           
                |  |  |   | |  | | |   __   |  |    \   |  |\   \          
                \     /   | |  | | |  |  |  |  | |\  \  |  | \   \       
                 \___/    |_|  |_| |__|  |__|  |_| \__\ |__|  \__/        
                                                                              
                      - O R C A' S   B I G   F R I E N D -                    
                                      &                                       
                       - I N T E G R A L  F E E D E R -                       
                                                                              
 v1 FN, 2020, v2 2021, v3 2022-2024                                           
------------------------------------------------------------------------------


----------------------
SHARK INTEGRAL PACKAGE
----------------------

Number of atoms                             ...     20
Number of basis functions                   ...    136
Number of shells                            ...     72
Maximum angular momentum                    ...      2
Integral batch strategy                     ... SHARK/LIBINT Hybrid
RI-J (if used) integral strategy            ... SPLIT-RIJ (Revised 2003 algorithm where possible)
Printlevel                                  ...      1
Contraction scheme used                     ... SEGMENTED contraction
Prescreening option                         ... SCHWARTZ
   Thresh                                   ... 1.000e-09
   Tcut                                     ... 1.000e-10
   Tpresel                                  ... 1.000e-10 
Coulomb Range Separation                    ... NOT USED
Exchange Range Separation                   ... NOT USED
Multipole approximations                    ... NOT USED
Finite Nucleus Model                        ... NOT USED
CABS basis                                  ... NOT available
Auxiliary Coulomb fitting basis             ... AVAILABLE
   # of basis functions in Aux-J            ...    524
   # of shells in Aux-J                     ...    180
   Maximum angular momentum in Aux-J        ...      4
Auxiliary J/K fitting basis                 ... NOT available
Auxiliary Correlation fitting basis         ... NOT available
Auxiliary 'external' fitting basis          ... NOT available

Checking pre-screening integrals            ... done (  0.0 sec) Dimension = 72
Check shell pair data                       ... done (  0.0 sec)
Shell pair information
Shell pair cut-off parameter TPreSel        ...   1.0e-10
Total number of shell pairs                 ...      2628
Shell pairs after pre-screening             ...      2404
Total number of primitive shell pairs       ...     10580
Primitive shell pairs kept                  ...      6677
          la=0 lb=0:   1058 shell pairs
          la=1 lb=0:    726 shell pairs
          la=1 lb=1:    133 shell pairs
          la=2 lb=0:    335 shell pairs
          la=2 lb=1:    121 shell pairs
          la=2 lb=2:     31 shell pairs

Calculating one electron integrals          ... done (  0.0 sec)
Calculating RI/J V-Matrix + Cholesky decomp.... done (  0.1 sec)
Calculating Nuclear repulsion               ... done (  0.0 sec) ENN=    391.335597408158 Eh

Diagonalization of the overlap matrix:
Smallest eigenvalue                        ... 1.520e-03
Time for diagonalization                   ...    0.002 sec
Threshold for overlap eigenvalues          ... 1.000e-07
Number of eigenvalues below threshold      ... 0
Time for construction of square roots      ...    0.017 sec
Total time needed                          ...    0.027 sec

-------------------
DFT GRID GENERATION
-------------------

General Integration Accuracy     IntAcc      ... 4.159
Radial Grid Type                 RadialGrid  ... OptM3 with GC (2021)
Angular Grid (max. ang.)         AngularGrid ... 3 (Lebedev-194)
Angular grid pruning method      GridPruning ... 4 (adaptive)
Weight generation scheme         WeightScheme... mBecke (2022)
Basis function cutoff            BFCut       ... 1.0000e-10
Integration weight cutoff        WCut        ... 1.0000e-14
Partially contracted basis set               ... off
Rotationally invariant grid construction     ... off
Angular grids for H and He will be reduced by one unit

Total number of grid points                  ...    43030
Total number of batches                      ...      684
Average number of points per batch           ...       62
Average number of grid points per atom       ...     2152
Initializing property integral containers    ... done (  0.0 sec)

SHARK setup successfully completed in   0.7 seconds

Maximum memory used throughout the entire STARTUP-calculation: 21.1 MB
-------------------------------------------------------------------------------
                                 ORCA GUESS
                   Start orbitals & Density for SCF / CASSCF
-------------------------------------------------------------------------------

------------
SCF SETTINGS
------------
Hamiltonian:
 Density Functional     Method          .... DFT(GTOs)
 Exchange Functional    Exchange        .... PBE
   PBE kappa parameter   XKappa         ....  0.804000
   PBE mue parameter    XMuePBE         ....  0.219520
 Correlation Functional Correlation     .... PBE
   PBE beta parameter  CBetaPBE         ....  0.066725
 LDA part of GGA corr.  LDAOpt          .... PW91-LDA
 Gradients option       PostSCFGGA      .... off
   NL short-range parameter             ....  6.400000
 RI-approximation to the Coulomb term is turned on
   Number of AuxJ basis functions       .... 524


General Settings:
 Integral files         IntName         .... sp
 Hartree-Fock type      HFTyp           .... RHF
 Total Charge           Charge          ....    0
 Multiplicity           Mult            ....    1
 Number of Electrons    NEL             ....   64
 Basis Dimension        Dim             ....  136
 Nuclear Repulsion      ENuc            ....    391.3355974082 Eh

Convergence Acceleration:
 AO-DIIS                CNVDIIS         .... on
   Start iteration      DIISMaxIt       ....    12
   Startup error        DIISStart       ....  0.200000
   # of expansion vecs  DIISMaxEq       ....     5
   Bias factor          DIISBfac        ....   1.050
   Max. coefficient     DIISMaxC        ....  10.000
 MO-DIIS                CNVKDIIS        .... off
 Trust-Rad. Augm. Hess. CNVTRAH         .... auto
   Auto Start mean grad. ratio tolernc. ....  1.125000
   Auto Start start iteration           ....    50
   Auto Start num. interpolation iter.  ....    10
   Max. Number of Micro iterations      ....    24
   Max. Number of Macro iterations      .... Maxiter - #DIIS iter
   Number of Davidson start vectors     ....     2
   Converg. threshold    (grad. norm)   ....   1.000e-04
   Grad. Scal. Fac. for Micro threshold ....   0.100
   Minimum threshold for Micro iter.    ....   1.000e-02
   NR start threshold (gradient norm)   ....   1.000e-04
   Initial trust radius                 ....   0.400
   Minimum AH scaling param. (alpha)    ....   1.000
   Maximum AH scaling param. (alpha)    .... 1000.000
   Quad. conv. algorithm                .... NR
   White noise on init. David. guess    .... on
   Maximum white noise                  ....   0.010
   Pseudo random numbers                .... off
   Inactive MOs                         .... canonical
   Orbital update algorithm             .... Taylor
   Preconditioner                       .... Diag
   Full preconditioner red. dimension   ....   250
 SOSCF                  CNVSOSCF        .... on
   Start iteration      SOSCFMaxIt      ....   150
   Startup grad/error   SOSCFStart      ....  0.003300
   Hessian update       SOSCFHessUp     .... L-BFGS
 Level Shifting         CNVShift        .... on
   Level shift para.    LevelShift      ....    0.2500
   Turn off err/grad.   ShiftErr        ....    0.0010
 Zerner damping         CNVZerner       .... off
 Static damping         CNVDamp         .... on
   Fraction old density DampFac         ....    0.7000
   Max. Damping (<1)    DampMax         ....    0.9800
   Min. Damping (>=0)   DampMin         ....    0.0000
   Turn off err/grad.   DampErr         ....    0.1000

SCF Procedure:
 Maximum # iterations   MaxIter         ....   125
 SCF integral mode      SCFMode         .... Direct
   Integral package                     .... SHARK and LIBINT hybrid scheme
 Reset frequency        DirectResetFreq ....    20
 Integral Threshold     Thresh          ....  1.000e-09 Eh
 Primitive CutOff       TCut            ....  1.000e-10 Eh

Convergence Tolerance:
 Convergence Check Mode ConvCheckMode   .... Total+1el-Energy
 Convergence forced     ConvForced      .... 0
 Energy Change          TolE            ....  1.000e-05 Eh
 1-El. energy change                    ....  1.000e-02 Eh
 Orbital Gradient       TolG            ....  1.000e-04
 Orbital Rotation angle TolX            ....  1.000e-04
 DIIS Error             TolErr          ....  5.000e-04

------------------------------
INITIAL GUESS: MODEL POTENTIAL
------------------------------
Loading Hartree-Fock densities                     ... done
Calculating cut-offs                               ... done
Initializing the effective Hamiltonian             ... done
Setting up the integral package (SHARK)            ... done
Starting the Coulomb interaction                   ... done (   0.1 sec)
Making the grid                                    ... done (   0.2 sec)
Mapping shells                                     ... done
Starting the XC term evaluation                    ... done (   0.2 sec)
  promolecular density results
     # of electrons  =     63.992100233
     EX              =    -50.541962662
     EC              =     -2.105742554
     EX+EC           =    -52.647705217
Transforming the Hamiltonian                       ... done (   0.0 sec)
Diagonalizing the Hamiltonian                      ... done (   0.0 sec)
Back transforming the eigenvectors                 ... done (   0.0 sec)
Now organizing SCF variables                       ... done
                      ------------------
                      INITIAL GUESS DONE (   0.6 sec)
                      ------------------
             **** ENERGY FILE WAS UPDATED (sp.en.tmp) ****
Finished Guess after   0.7 sec
Maximum memory used throughout the entire GUESS-calculation: 16.1 MB

-------------------------------------------------------------------------------------------
                                      ORCA LEAN-SCF
                              memory conserving SCF solver
-------------------------------------------------------------------------------------------

----------------------------------------D-I-I-S--------------------------------------------
Iteration    Energy (Eh)           Delta-E    RMSDP     MaxDP     DIISErr   Damp  Time(sec)
-------------------------------------------------------------------------------------------
               ***  Starting incremental Fock matrix formation  ***
    1    -385.2858333536015607     0.00e+00  4.79e-03  9.25e-02  2.40e-01  0.700   0.8
    2    -385.4104749476216512    -1.25e-01  2.99e-03  4.79e-02  7.56e-02  0.700   0.8
                               ***Turning on AO-DIIS***
    3    -385.4488699448090756    -3.84e-02  1.23e-03  1.39e-02  2.24e-02  0.700   0.8
    4    -385.4738504032646915    -2.50e-02  1.75e-03  2.31e-02  1.69e-02  0.000   0.8
    5    -385.5318181542070306    -5.80e-02  5.47e-04  6.22e-03  8.77e-03  0.000   0.8
                              *** Initializing SOSCF ***
---------------------------------------S-O-S-C-F--------------------------------------
Iteration    Energy (Eh)           Delta-E    RMSDP     MaxDP     MaxGrad    Time(sec)
--------------------------------------------------------------------------------------
    6    -385.5325567840459371    -7.39e-04  2.04e-04  2.42e-03  3.18e-03     0.7
               *** Restarting incremental Fock matrix formation ***
    7    -385.5326133395079751    -5.66e-05  1.58e-04  2.61e-03  6.60e-04     0.8
    8    -385.5325929923023978     2.03e-05  8.39e-05  1.99e-03  1.97e-03     0.8
    9    -385.5326198911254778    -2.69e-05  6.55e-05  1.16e-03  2.94e-04     0.8
   10    -385.5326166035686128     3.29e-06  3.69e-05  7.17e-04  3.74e-04     0.8
                 **** Energy Check signals convergence ****

               *****************************************************
               *                     SUCCESS                       *
               *           SCF CONVERGED AFTER  10 CYCLES          *
               *****************************************************

             **** ENERGY FILE WAS UPDATED (sp.en.tmp) ****

----------------
TOTAL SCF ENERGY
----------------

Total Energy       :       -385.53261660356861 Eh          -10490.87584 eV

Components:
Nuclear Repulsion  :        391.33559740815849 Eh           10648.78298 eV
Electronic Energy  :       -776.86821401172710 Eh          -21139.65882 eV
One Electron Energy:      -1299.06423959374979 Eh          -35349.33508 eV
Two Electron Energy:        522.19602558202268 Eh           14209.67626 eV

Virial components:
Potential Energy   :       -767.93892588791869 Eh          -20896.68054 eV
Kinetic Energy     :        382.40630928435007 Eh           10405.80470 eV
Virial Ratio       :          2.00817535496490

DFT components:
N(Alpha)           :       31.999808542529 electrons
N(Beta)            :       31.999808542529 electrons
N(Total)           :       63.999617085059 electrons
E(X)               :      -51.601609829317 Eh       
E(C)               :       -2.122415097698 Eh       
E(XC)              :      -53.724024927015 Eh       

---------------
SCF CONVERGENCE
---------------

  Last Energy change         ...   -3.2876e-06  Tolerance :   1.0000e-05
  Last MAX-Density change    ...    7.1727e-04  Tolerance :   1.0000e-03
  Last RMS-Density change    ...    3.6935e-05  Tolerance :   1.0000e-04
  Last DIIS Error            ...    3.1793e-03  Tolerance :   5.0000e-04
  Last Orbital Gradient      ...    3.7398e-04  Tolerance :   1.0000e-04
  Last Orbital Rotation      ...    3.2041e-04  Tolerance :   1.0000e-04


----------------
ORBITAL ENERGIES
----------------

  NO   OCC          E(Eh)            E(eV) 
   0   2.0000     -18.796034      -511.4661 
   1   2.0000     -18.729080      -509.6442 
   2   2.0000     -10.002875      -272.1921 
   3   2.0000      -9.945396      -270.6280 
   4   2.0000      -9.896243      -269.2905 
   5   2.0000      -9.895588      -269.2726 
   6   2.0000      -9.886490      -269.0251 
   7   2.0000      -9.880851      -268.8716 
   8   2.0000      -1.002561       -27.2811 
   9   2.0000      -0.906190       -24.6587 
  10   2.0000      -0.729631       -19.8543 
  11   2.0000      -0.696541       -18.9538 
  12   2.0000      -0.639552       -17.4031 
  13   2.0000      -0.587557       -15.9882 
  14   2.0000      -0.535954       -14.5840 
  15   2.0000      -0.494402       -13.4534 
  16   2.0000      -0.451602       -12.2887 
  17   2.0000      -0.433709       -11.8018 
  18   2.0000      -0.420949       -11.4546 
  19   2.0000      -0.403312       -10.9747 
  20   2.0000      -0.388179       -10.5629 
  21   2.0000      -0.375831       -10.2269 
  22   2.0000      -0.355982        -9.6868 
  23   2.0000      -0.346009        -9.4154 
  24   2.0000      -0.344344        -9.3701 
  25   2.0000      -0.331280        -9.0146 
  26   2.0000      -0.313841        -8.5400 
  27   2.0000      -0.300111        -8.1664 
  28   2.0000      -0.298198        -8.1144 
  29   2.0000      -0.288422        -7.8484 
  30   2.0000      -0.253542        -6.8992 
  31   2.0000      -0.213774        -5.8171 
  32   0.0000      -0.017459        -0.4751 
  33   0.0000       0.037999         1.0340 
  34   0.0000       0.052546         1.4298 
  35   0.0000       0.075262         2.0480 
  36   0.0000       0.076773         2.0891 
  37   0.0000       0.088736         2.4146 
  38   0.0000       0.092258         2.5105 
  39   0.0000       0.094284         2.5656 
  40   0.0000       0.104282         2.8376 
  41   0.0000       0.120824         3.2878 
  42   0.0000       0.123580         3.3628 
*Only the first 10 virtual orbitals were printed.

                    ********************************
                    * MULLIKEN POPULATION ANALYSIS *
                    ********************************

-----------------------
MULLIKEN ATOMIC CHARGES
-----------------------
   0 C :   -0.241799
   1 C :   -0.243208
   2 C :   -0.113736
   3 C :    0.113153
   4 O :   -0.213596
   5 O :   -0.243078
   6 C :   -0.011254
   7 C :   -0.304223
   8 H :    0.106998
   9 H :    0.101431
  10 H :    0.099203
  11 H :    0.097675
  12 H :    0.103106
  13 H :    0.098086
  14 H :    0.093728
  15 H :    0.100537
  16 H :    0.107492
  17 H :    0.111778
  18 H :    0.125501
  19 H :    0.112204
Sum of atomic charges:    0.0000000

--------------------------------
MULLIKEN REDUCED ORBITAL CHARGES
--------------------------------
  0 C s       :     3.067190  s :     3.067190
      pz      :     1.061166  p :     3.145258
      px      :     1.022082
      py      :     1.062010
      dz2     :     0.006953  d :     0.029350
      dxz     :     0.003864
      dyz     :     0.005801
      dx2y2   :     0.004045
      dxy     :     0.008687

  1 C s       :     3.103697  s :     3.103697
      pz      :     1.048013  p :     3.102072
      px      :     1.030835
      py      :     1.023225
      dz2     :     0.010547  d :     0.037439
      dxz     :     0.004666
      dyz     :     0.005524
      dx2y2   :     0.006007
      dxy     :     0.010696

  2 C s       :     3.006498  s :     3.006498
      pz      :     1.039987  p :     3.074082
      px      :     1.010563
      py      :     1.023532
      dz2     :     0.010218  d :     0.033156
      dxz     :     0.003439
      dyz     :     0.004936
      dx2y2   :     0.006496
      dxy     :     0.008068

  3 C s       :     3.046657  s :     3.046657
      pz      :     0.865708  p :     2.709279
      px      :     0.971538
      py      :     0.872033
      dz2     :     0.023378  d :     0.130911
      dxz     :     0.026821
      dyz     :     0.019687
      dx2y2   :     0.027185
      dxy     :     0.033840

  4 O s       :     3.748717  s :     3.748717
      pz      :     1.364805  p :     4.447412
      px      :     1.706069
      py      :     1.376538
      dz2     :     0.004056  d :     0.017467
      dxz     :     0.002067
      dyz     :     0.005339
      dx2y2   :     0.003245
      dxy     :     0.002760

  5 O s       :     3.730638  s :     3.730638
      pz      :     1.660097  p :     4.496347
      px      :     1.226357
      py      :     1.609894
      dz2     :     0.002362  d :     0.016093
      dxz     :     0.003740
      dyz     :     0.002610
      dx2y2   :     0.003515
      dxy     :     0.003866

  6 C s       :     3.072124  s :     3.072124
      pz      :     1.047834  p :     2.880189
      px      :     0.751378
      py      :     1.080977
      dz2     :     0.011325  d :     0.058941
      dxz     :     0.014701
      dyz     :     0.005677
      dx2y2   :     0.017824
      dxy     :     0.009414

  7 C s       :     3.101163  s :     3.101163
      pz      :     1.051060  p :     3.175141
      px      :     1.059016
      py      :     1.065066
      dz2     :     0.007739  d :     0.027918
      dxz     :     0.004384
      dyz     :     0.004862
      dx2y2   :     0.008838
      dxy     :     0.002094

  8 H s       :     0.893002  s :     0.893002

  9 H s       :     0.898569  s :     0.898569

 10 H s       :     0.900797  s :     0.900797

 11 H s       :     0.902325  s :     0.902325

 12 H s       :     0.896894  s :     0.896894

 13 H s       :     0.901914  s :     0.901914

 14 H s       :     0.906272  s :     0.906272

 15 H s       :     0.899463  s :     0.899463

 16 H s       :     0.892508  s :     0.892508

 17 H s       :     0.888222  s :     0.888222

 18 H s       :     0.874499  s :     0.874499

 19 H s       :     0.887796  s :     0.887796


------------------------
MULLIKEN OVERLAP CHARGES
------------------------
B(  0-C ,  1-C ) :   0.9098 B(  0-C ,  2-C ) :  -0.1149 B(  0-C ,  8-H ) :   0.7353 
B(  0-C ,  9-H ) :   0.7575 B(  0-C , 10-H ) :   0.7556 B(  0-C , 12-H ) :  -0.0513 
B(  1-C ,  2-C ) :   0.8879 B(  1-C ,  3-C ) :  -0.0510 B(  1-C , 11-H ) :   0.7158 
B(  1-C , 12-H ) :   0.7218 B(  2-C ,  3-C ) :   0.6177 B(  2-C ,  4-O ) :  -0.1734 
B(  2-C ,  5-O ) :  -0.2476 B(  2-C , 11-H ) :  -0.0676 B(  2-C , 12-H ) :  -0.0769 
B(  2-C , 13-H ) :   0.6319 B(  2-C , 14-H ) :   0.5885 B(  3-C ,  4-O ) :   1.3434 
B(  3-C ,  5-O ) :   0.7082 B(  4-O ,  5-O ) :  -0.1749 B(  4-O , 16-H ) :   0.0536 
B(  5-O ,  6-C ) :   0.5214 B(  5-O ,  7-C ) :  -0.0765 B(  5-O , 15-H ) :  -0.0556 
B(  5-O , 16-H ) :  -0.0645 B(  6-C ,  7-C ) :   0.9348 B(  6-C , 15-H ) :   0.7369 
B(  6-C , 16-H ) :   0.7099 B(  7-C , 15-H ) :  -0.0581 B(  7-C , 16-H ) :  -0.0598 
B(  7-C , 17-H ) :   0.7113 B(  7-C , 18-H ) :   0.7403 B(  7-C , 19-H ) :   0.7404 
B(  9-H , 10-H ) :  -0.0527 B( 11-H , 12-H ) :  -0.0674 B( 15-H , 16-H ) :  -0.0628 
B( 18-H , 19-H ) :  -0.0531 


                     *******************************
                     * LOEWDIN POPULATION ANALYSIS *
                     *******************************

----------------------
LOEWDIN ATOMIC CHARGES
----------------------
   0 C :   -0.338833
   1 C :   -0.225528
   2 C :   -0.241465
   3 C :    0.037391
   4 O :   -0.174787
   5 O :   -0.069275
   6 C :   -0.113078
   7 C :   -0.356419
   8 H :    0.121815
   9 H :    0.119388
  10 H :    0.118390
  11 H :    0.118207
  12 H :    0.121845
  13 H :    0.133421
  14 H :    0.129693
  15 H :    0.116434
  16 H :    0.119367
  17 H :    0.129957
  18 H :    0.130071
  19 H :    0.123408

-------------------------------
LOEWDIN REDUCED ORBITAL CHARGES
-------------------------------
  0 C s       :     2.945111  s :     2.945111
      pz      :     1.123344  p :     3.322708
      px      :     1.078358
      py      :     1.121006
      dz2     :     0.017265  d :     0.071014
      dxz     :     0.008398
      dyz     :     0.014107
      dx2y2   :     0.010912
      dxy     :     0.020333

  1 C s       :     2.908495  s :     2.908495
      pz      :     1.088227  p :     3.228055
      px      :     1.068092
      py      :     1.071736
      dz2     :     0.024490  d :     0.088977
      dxz     :     0.010079
      dyz     :     0.014569
      dx2y2   :     0.015216
      dxy     :     0.024624

  2 C s       :     2.918800  s :     2.918800
      pz      :     1.092905  p :     3.239354
      px      :     1.054841
      py      :     1.091607
      dz2     :     0.024241  d :     0.083312
      dxz     :     0.008741
      dyz     :     0.013134
      dx2y2   :     0.016678
      dxy     :     0.020517

  3 C s       :     2.847005  s :     2.847005
      pz      :     0.904673  p :     2.817871
      px      :     0.991213
      py      :     0.921985
      dz2     :     0.046603  d :     0.297732
      dxz     :     0.061162
      dyz     :     0.049975
      dx2y2   :     0.061392
      dxy     :     0.078599

  4 O s       :     3.551856  s :     3.551856
      pz      :     1.423912  p :     4.592104
      px      :     1.718864
      py      :     1.449328
      dz2     :     0.005249  d :     0.030828
      dxz     :     0.003654
      dyz     :     0.011594
      dx2y2   :     0.005518
      dxy     :     0.004813

  5 O s       :     3.449431  s :     3.449431
      pz      :     1.661298  p :     4.587082
      px      :     1.289364
      py      :     1.636420
      dz2     :     0.003936  d :     0.032762
      dxz     :     0.007710
      dyz     :     0.004350
      dx2y2   :     0.007770
      dxy     :     0.008996

  6 C s       :     2.924484  s :     2.924484
      pz      :     1.099401  p :     3.057138
      px      :     0.826741
      py      :     1.130996
      dz2     :     0.025299  d :     0.131457
      dxz     :     0.032438
      dyz     :     0.014573
      dx2y2   :     0.039261
      dxy     :     0.019887

  7 C s       :     2.951995  s :     2.951995
      pz      :     1.099947  p :     3.335691
      px      :     1.121146
      py      :     1.114598
      dz2     :     0.018106  d :     0.068733
      dxz     :     0.011024
      dyz     :     0.013190
      dx2y2   :     0.021312
      dxy     :     0.005102

  8 H s       :     0.878185  s :     0.878185

  9 H s       :     0.880612  s :     0.880612

 10 H s       :     0.881610  s :     0.881610

 11 H s       :     0.881793  s :     0.881793

 12 H s       :     0.878155  s :     0.878155

 13 H s       :     0.866579  s :     0.866579

 14 H s       :     0.870307  s :     0.870307

 15 H s       :     0.883566  s :     0.883566

 16 H s       :     0.880633  s :     0.880633

 17 H s       :     0.870043  s :     0.870043

 18 H s       :     0.869929  s :     0.869929

 19 H s       :     0.876592  s :     0.876592


---------------------------------
LOEWDIN BOND ORDERS (THRESH 0.050000)
---------------------------------
B(  0-C ,  1-C ) :   1.1308 B(  0-C ,  2-C ) :   0.0562 B(  0-C ,  8-H ) :   0.9372 
B(  0-C ,  9-H ) :   0.9404 B(  0-C , 10-H ) :   0.9406 B(  1-C ,  2-C ) :   1.0705 
B(  1-C ,  3-C ) :   0.0706 B(  1-C , 11-H ) :   0.9074 B(  1-C , 12-H ) :   0.9067 
B(  2-C ,  3-C ) :   1.0598 B(  2-C ,  4-O ) :   0.0944 B(  2-C ,  5-O ) :   0.0719 
B(  2-C , 13-H ) :   0.8938 B(  2-C , 14-H ) :   0.8932 B(  3-C ,  4-O ) :   2.2006 
B(  3-C ,  5-O ) :   1.3973 B(  3-C ,  6-C ) :   0.0753 B(  4-O ,  5-O ) :   0.2074 
B(  5-O ,  6-C ) :   1.0753 B(  5-O ,  7-C ) :   0.0539 B(  6-C ,  7-C ) :   1.1497 
B(  6-C , 15-H ) :   0.9206 B(  6-C , 16-H ) :   0.9068 B(  7-C , 17-H ) :   0.9303 
B(  7-C , 18-H ) :   0.9353 B(  7-C , 19-H ) :   0.9387 

------------------------------------------
LOEWDIN REDUCED ORBITAL POPULATIONS PER MO
-------------------------------------------
THRESHOLD FOR PRINTING IS 0.1%%
                      0         1         2         3         4         5   
                 -18.79603 -18.72908 -10.00287  -9.94540  -9.89624  -9.89559
                   2.00000   2.00000   2.00000   2.00000   2.00000   2.00000
                  --------  --------  --------  --------  --------  --------
 1 C  s               0.0       0.0       0.0       0.0      99.4       0.2
 2 C  s               0.0       0.0       0.0       0.0       0.3      99.4
 3 C  s               0.0       0.0      99.3       0.0       0.0       0.0
 3 C  px              0.0       0.0       0.0       0.0       0.0       0.1
 4 O  s               0.0      99.9       0.0       0.0       0.0       0.0
 4 O  pz              0.0       0.0       0.1       0.0       0.0       0.0
 4 O  py              0.0       0.0       0.2       0.0       0.0       0.0
 5 O  s              99.9       0.0       0.0       0.0       0.0       0.0
 6 C  s               0.0       0.0       0.0      99.7       0.0       0.0

                      6         7         8         9        10        11   
                  -9.88649  -9.88085  -1.00256  -0.90619  -0.72963  -0.69654
                   2.00000   2.00000   2.00000   2.00000   2.00000   2.00000
                  --------  --------  --------  --------  --------  --------
 0 C  s               0.0      99.7       0.0       0.0       7.7       6.3
 0 C  px              0.0       0.0       0.0       0.0       1.9       0.7
 0 C  py              0.0       0.0       0.0       0.0       0.2       0.1
 1 C  s               0.0       0.0       0.1       0.0      18.8       7.4
 1 C  pz              0.0       0.0       0.0       0.0       1.0       0.1
 1 C  px              0.0       0.1       0.1       0.0       0.0       0.7
 1 C  py              0.0       0.0       0.0       0.0       0.7       0.0
 2 C  s               0.0       0.0       1.0       0.3      19.4       1.0
 2 C  pz              0.0       0.0       0.1       0.2       0.6       0.4
 2 C  px              0.0       0.0       1.8       0.2       0.0       1.5
 2 C  py              0.0       0.0       0.0       0.2       1.0       0.4
 3 C  s               0.0       0.0      18.4       5.4       3.1       1.2
 3 C  pz              0.0       0.0       0.1       9.7       1.3       1.1
 3 C  px              0.0       0.0       4.8       0.2       5.4       0.5
 3 C  py              0.0       0.0       0.4      14.2       2.2       1.0
 3 C  dxz             0.0       0.0       0.1       0.4       0.0       0.1
 3 C  dyz             0.0       0.0       0.8       0.5       0.0       0.0
 3 C  dx2y2           0.0       0.0       0.0       0.3       0.1       0.0
 3 C  dxy             0.0       0.0       0.2       0.7       0.0       0.1
 4 O  s               0.0       0.0      10.7      42.3       1.3       0.2
 4 O  pz              0.0       0.0       1.1       1.7       0.0       0.0
 4 O  px              0.0       0.0       0.0       0.5       0.1       0.0
 4 O  py              0.0       0.0       1.5       2.3       0.1       0.0
 5 O  s               0.0       0.0      41.8      14.8       0.0       1.2
 5 O  pz              0.0       0.0       1.4       0.1       0.0       0.0
 5 O  px              0.0       0.0       0.0       0.4       5.3       8.7
 5 O  py              0.0       0.0       1.8       0.1       0.1       0.8
 6 C  s               0.0       0.0       4.8       2.2       5.0      18.2
 6 C  pz              0.1       0.0       0.1       0.1       0.1       1.2
 6 C  px              0.0       0.0       5.5       1.4       0.1       0.8
 6 C  py              0.0       0.0       0.0       0.1       0.1       0.8
 6 C  dx2y2           0.0       0.0       0.3       0.1       0.0       0.0
 7 C  s              99.7       0.0       0.3       0.2       2.5      18.3
 7 C  pz              0.0       0.0       0.3       0.2       0.4       1.4
 7 C  px              0.0       0.0       0.2       0.1       0.0       0.1
 7 C  py              0.0       0.0       0.1       0.0       0.1       0.5
 8 H  s               0.0       0.1       0.0       0.0       1.3       1.2
 9 H  s               0.0       0.1       0.0       0.0       1.4       1.2
10 H  s               0.0       0.1       0.0       0.0       1.5       1.2
11 H  s               0.0       0.0       0.0       0.0       3.5       1.3
12 H  s               0.0       0.0       0.0       0.0       3.3       1.4
13 H  s               0.0       0.0       0.1       0.1       3.3       0.3
14 H  s               0.0       0.0       0.2       0.0       3.8       0.1
15 H  s               0.0       0.0       0.5       0.3       1.0       4.0
16 H  s               0.0       0.0       0.8       0.1       0.9       3.4
17 H  s               0.1       0.0       0.0       0.0       0.4       3.7
18 H  s               0.1       0.0       0.1       0.0       0.4       3.4
19 H  s               0.1       0.0       0.1       0.0       0.4       3.6

                     12        13        14        15        16        17   
                  -0.63955  -0.58756  -0.53595  -0.49440  -0.45160  -0.43371
                   2.00000   2.00000   2.00000   2.00000   2.00000   2.00000
                  --------  --------  --------  --------  --------  --------
 0 C  s              18.7       5.1       8.5       0.0       0.3       0.1
 0 C  pz              0.0       0.0       1.0       0.2       1.2       2.3
 0 C  px              0.0       0.6       7.4       0.1       0.9       2.2
 0 C  py              0.0       0.1       0.1       0.1       1.4       1.5
 0 C  dx2y2           0.0       0.0       0.1       0.0       0.0       0.0
 1 C  s               1.9       0.6      15.3       0.3       0.0       0.1
 1 C  pz              0.4       0.1       3.1       0.6       4.1       6.4
 1 C  px              6.2       1.6       4.2       0.2       0.8       0.3
 1 C  py              2.8       1.2       0.6       0.8       1.0       6.9
 1 C  dx2y2           0.1       0.1       0.0       0.0       0.0       0.0
 2 C  s              11.5       4.5       3.3       1.0       1.5       0.0
 2 C  pz              0.2       0.1       4.4       0.1       3.6      10.5
 2 C  px              1.8       0.9       0.3       2.3      14.2       0.0
 2 C  py              0.6       0.0       5.2       0.4       0.6       7.0
 2 C  dyz             0.0       0.0       0.2       0.0       0.0       0.0
 2 C  dx2y2           0.0       0.1       0.1       0.0       0.2       0.0
 3 C  s               2.7       1.3       0.7       2.1       2.1       1.2
 3 C  pz              0.9       0.7       1.5       1.1       0.1       2.9
 3 C  px              6.3       2.5       2.5       0.7      10.6       0.8
 3 C  py              0.8       1.6       0.4       0.9       0.4       0.2
 3 C  dyz             0.0       0.0       0.0       0.0       0.0       0.2
 3 C  dx2y2           0.1       0.1       0.0       0.0       0.1       0.2
 3 C  dxy             0.0       0.1       0.0       0.0       0.0       0.1
 4 O  s               0.9       0.1       0.2       1.1       0.2       5.1
 4 O  pz              0.1       0.1       0.2       0.6       0.0       0.6
 4 O  px              0.3       0.2       0.3       0.4       5.8       1.2
 4 O  py              0.1       0.2       0.0       0.5       0.1       5.5
 5 O  s               1.1       0.0       0.2       4.2       0.5       0.6
 5 O  pz              0.1       1.3       0.5       0.9       2.9       8.3
 5 O  px              2.3      16.9       0.0       7.2       0.6       2.0
 5 O  py              0.0       1.1       0.1       9.2       6.9       0.2
 6 C  s               0.5       5.5       1.3       7.4       0.2       0.1
 6 C  pz              1.8       7.1       0.5       0.1       5.6       4.2
 6 C  px              1.9       1.3       0.4      12.6       1.7       2.5
 6 C  py              0.4       0.7       0.1       9.7       8.9       0.7
 6 C  dxz             0.0       0.0       0.0       0.1       0.0       0.0
 6 C  dyz             0.0       0.1       0.0       0.0       0.0       0.0
 6 C  dx2y2           0.1       0.1       0.0       0.4       0.0       0.0
 7 C  s               9.0      14.2       0.3       1.5       0.0       0.0
 7 C  pz              0.0       2.1       0.4       2.4       2.5       0.1
 7 C  px              0.0       0.3       0.0       0.8       0.3       2.8
 7 C  py              0.0       0.5       0.1       5.0       1.9       1.2
 7 C  dyz             0.0       0.0       0.0       0.1       0.0       0.0
 8 H  s               4.8       1.8       3.3       0.0       1.7       0.2
 9 H  s               4.3       1.4       4.7       0.1       0.0       1.9
10 H  s               4.3       1.5       4.7       0.0       0.0       0.8
11 H  s               0.4       0.1       8.0       0.5       0.4       3.1
12 H  s               0.4       0.2       7.7       0.3       0.7       2.7
13 H  s               2.4       1.9       2.6       1.7       2.2       1.9
14 H  s               2.7       0.9       2.4       0.6       3.8       6.3
15 H  s               0.1       3.0       1.0       4.0       5.2       2.6
16 H  s               0.1       1.3       0.6      12.6       2.3       0.2
17 H  s               2.5       5.1       0.1       0.1       0.0       1.0
18 H  s               2.1       4.9       0.3       1.2       1.5       0.5
19 H  s               2.1       4.4       0.2       3.3       0.5       0.3

                     18        19        20        21        22        23   
                  -0.42095  -0.40331  -0.38818  -0.37583  -0.35598  -0.34601
                   2.00000   2.00000   2.00000   2.00000   2.00000   2.00000
                  --------  --------  --------  --------  --------  --------
 0 C  s               0.1       0.0       0.0       0.0       0.0       0.0
 0 C  pz              4.3       0.2       3.6      13.6       0.0      13.3
 0 C  px              0.3       0.3       2.0       0.6       2.3       7.5
 0 C  py              2.6      11.9       0.2       1.7       6.4       0.3
 0 C  dyz             0.0       0.0       0.0       0.1       0.0       0.1
 1 C  s               0.4       0.0       0.1       0.0       0.0       0.2
 1 C  pz              6.5       0.1       2.8       4.3       0.0       0.2
 1 C  px              3.5       1.2       0.3       2.0       0.6       1.8
 1 C  py              1.9      11.4       0.1       2.5       1.2       0.3
 1 C  dxz             0.0       0.0       0.0       0.0       0.0       0.2
 2 C  s               0.0       0.0       0.1       0.2       0.0       0.5
 2 C  pz              0.1       1.2       0.0       9.6       0.0       5.7
 2 C  px              1.9       4.9       1.9       0.4       3.0       0.2
 2 C  py              5.5       1.2       0.0       2.8       4.5       8.3
 2 C  dz2             0.0       0.0       0.0       0.0       0.0       0.4
 3 C  s               0.1       0.6       2.0       0.0       0.1       0.0
 3 C  pz              6.5       2.0       0.9       1.5       1.4       3.8
 3 C  px              0.5       2.2       3.4       1.3       0.3       0.6
 3 C  py              5.6       4.6       2.0       0.3       0.0       1.6
 3 C  dxz             0.2       0.0       0.0       0.1       0.0       0.2
 3 C  dx2y2           0.0       0.1       0.0       0.0       0.0       0.0
 3 C  dxy             0.0       0.1       0.0       0.0       0.2       0.1
 4 O  s               0.0       2.7       9.4       0.2       0.2       0.6
 4 O  pz              2.4       6.0      14.7       0.2       0.0       0.1
 4 O  px              0.0       1.4       0.3       1.3       0.5       0.4
 4 O  py              2.2       0.2      14.3       0.9       1.3       9.0
 4 O  dyz             0.0       0.0       0.2       0.0       0.0       0.0
 5 O  s               0.6       0.2       1.2       0.5       1.2       0.2
 5 O  pz             13.2       1.4       1.9       3.3       1.1       0.7
 5 O  px              0.0       6.9       0.8       0.7       0.0       2.3
 5 O  py              6.0       3.0       4.4       0.0       2.9       0.0
 6 C  s               0.5       0.1       0.0       0.2       0.1       0.1
 6 C  pz              5.3       0.2       2.1       2.8       2.1       2.1
 6 C  px              0.4       5.3       0.1       0.1       0.4       0.5
 6 C  py              1.0       4.4       3.4       5.0       1.1       0.3
 6 C  dxz             0.1       0.1       0.0       0.1       0.1       0.0
 6 C  dx2y2           0.0       0.0       0.0       0.0       0.2       0.1
 6 C  dxy             0.1       0.0       0.1       0.0       0.0       0.0
 7 C  s               0.4       0.2       0.0       0.0       0.0       0.0
 7 C  pz              2.1       6.6       3.1       9.9       1.5       1.2
 7 C  px              6.7       0.7       0.1       7.3      21.4       6.5
 7 C  py              1.7       0.2       8.9       0.7       9.0       0.4
 7 C  dx2y2           0.0       0.0       0.0       0.1       0.4       0.1
 8 H  s               0.0       2.7       1.9       3.9       1.1       4.5
 9 H  s               0.3       3.5       0.3       0.8       4.4       2.9
10 H  s               3.1       0.3       0.8       4.7       0.1       6.1
11 H  s               1.2       4.3       0.0       0.1       0.1       0.0
12 H  s               3.9       0.1       1.0       0.8       0.2       0.1
13 H  s               2.6       0.2       0.0       1.7       4.6       3.2
14 H  s               0.5       0.2       0.1       3.5       0.2       8.3
15 H  s               0.6       2.8       1.5       0.0       0.6       0.1
16 H  s               0.0       0.5       2.2       0.7       0.9       0.0
17 H  s               4.1       0.0       0.0       5.9      11.9       4.2
18 H  s               0.0       3.1       3.1       1.4       2.9       0.2
19 H  s               0.5       0.0       3.9       1.3       8.8       0.0

                     24        25        26        27        28        29   
                  -0.34434  -0.33128  -0.31384  -0.30011  -0.29820  -0.28842
                   2.00000   2.00000   2.00000   2.00000   2.00000   2.00000
                  --------  --------  --------  --------  --------  --------
 0 C  s               0.0       0.0       0.4       0.0       0.0       0.1
 0 C  pz              0.3       1.4       5.6       0.1       8.8       0.1
 0 C  px              2.1       5.6      14.7       0.2       2.4       1.3
 0 C  py             15.0       1.4       0.5      11.0       0.1       1.2
 0 C  dz2             0.1       0.0       0.1       0.1       0.3       0.0
 0 C  dxz             0.0       0.0       0.0       0.0       0.2       0.0
 0 C  dyz             0.0       0.0       0.0       0.0       0.2       0.0
 0 C  dxy             0.1       0.1       0.1       0.6       0.0       0.0
 1 C  s               0.2       0.0       0.1       0.1       0.1       0.0
 1 C  pz              0.1       0.3       6.6       0.2      17.1       0.0
 1 C  px              4.3       5.4      14.7       0.5       3.6       1.0
 1 C  py              0.3       0.0       0.0      19.6       0.4       1.2
 1 C  dz2             0.0       0.0       0.2       0.2       0.5       0.0
 1 C  dxz             0.0       0.0       0.0       0.0       0.1       0.0
 1 C  dyz             0.0       0.0       0.0       0.0       0.3       0.0
 1 C  dx2y2           0.2       0.0       0.2       0.0       0.0       0.1
 1 C  dxy             0.0       0.1       0.2       0.7       0.0       0.0
 2 C  s               0.6       0.0       0.0       0.4       0.2       0.0
 2 C  pz              3.4       0.1       0.9       2.2      10.2       0.2
 2 C  px              1.6       2.1       2.7       0.1       2.1       4.0
 2 C  py              1.5       0.4       0.6      11.5       0.2       0.6
 2 C  dz2             0.0       0.0       0.1       0.1       0.3       0.0
 2 C  dyz             0.0       0.0       0.0       0.0       0.1       0.0
 2 C  dx2y2           0.0       0.0       0.1       0.0       0.1       0.1
 2 C  dxy             0.2       0.0       0.2       0.2       0.0       0.0
 3 C  s               0.4       0.1       0.2       0.0       0.0       0.8
 3 C  pz              1.9       3.4       0.2       1.0       0.7       1.9
 3 C  px              0.4       0.4       4.0       0.1       0.4       0.5
 3 C  py              3.4       1.6       0.7       0.4       0.4       2.6
 3 C  dz2             0.0       0.2       0.0       0.0       0.2       0.1
 3 C  dxz             0.0       0.0       0.0       0.0       0.1       0.0
 3 C  dyz             0.0       0.1       0.0       0.0       0.0       0.3
 3 C  dx2y2           0.3       0.0       0.0       0.0       0.0       0.6
 3 C  dxy             0.0       0.0       0.0       0.3       0.0       0.0
 4 O  s               1.1       0.4       0.2       0.0       0.0       1.0
 4 O  pz              8.0       1.4       2.5       2.1       2.8       4.7
 4 O  px              2.5       0.1       1.7       0.6       0.4       0.6
 4 O  py              0.4       8.7       0.2       0.8       2.6       3.5
 5 O  s               0.3       0.1       0.0       0.1       0.0       3.5
 5 O  pz              2.3       0.4       0.4       1.3       0.1      12.6
 5 O  px              0.1       2.8       0.5       0.3       0.1       5.6
 5 O  py              3.3       1.7       0.0       2.2       0.5      14.4
 6 C  s               0.0       0.1       0.0       0.0       0.0       0.2
 6 C  pz              3.2       9.0       0.4       0.3       0.0       3.9
 6 C  px              0.1       2.4       1.0       0.1       0.2       1.7
 6 C  py              2.7       0.0       4.9       2.9       1.4       6.8
 6 C  dz2             0.1       0.2       0.2       0.1       0.0       0.1
 6 C  dxz             0.1       0.3       0.0       0.0       0.0       0.1
 6 C  dyz             0.0       0.1       0.0       0.0       0.0       0.0
 6 C  dx2y2           0.0       0.0       0.0       0.0       0.0       0.5
 6 C  dxy             0.0       0.0       0.0       0.1       0.0       0.2
 7 C  s               0.0       0.1       0.0       0.1       0.0       0.0
 7 C  pz              0.1      13.3       0.5       0.4       0.0       1.6
 7 C  px              0.5       5.2       1.0       0.2       0.3       0.6
 7 C  py             14.0       0.7       5.1       1.9       1.1       1.4
 7 C  dz2             0.1       0.2       0.2       0.0       0.0       0.1
 7 C  dxz             0.0       0.3       0.0       0.0       0.0       0.0
 7 C  dyz             0.0       0.1       0.0       0.0       0.0       0.0
 7 C  dx2y2           0.0       0.0       0.0       0.0       0.0       0.2
 8 H  s               4.9       0.5       0.0       4.7       3.8       1.2
 9 H  s               2.9       3.0       1.1       7.8       1.8       0.1
10 H  s               1.9       0.5       4.4       0.6       7.5       0.0
11 H  s               0.1       0.9       2.5      13.3       3.8       0.0
12 H  s               0.1       0.4       5.3       1.1      13.6       0.0
13 H  s               3.9       0.9       1.9       6.0       1.3       0.2
14 H  s               1.3       0.0       0.6       0.1       6.7       0.1
15 H  s               0.3       8.2       2.5       0.0       0.4       4.1
16 H  s               1.0       0.0       3.1       1.9       0.8       8.6
17 H  s               0.1       1.9       0.4       0.1       0.2       0.9
18 H  s               1.1      12.4       2.9       0.1       0.4       1.3
19 H  s               6.5       0.4       2.9       0.9       0.5       3.0

                     30        31        32        33        34        35   
                  -0.25354  -0.21377  -0.01746   0.03800   0.05255   0.07526
                   2.00000   2.00000   0.00000   0.00000   0.00000   0.00000
                  --------  --------  --------  --------  --------  --------
 0 C  s               0.0       0.1       0.0       6.6       8.6       0.1
 0 C  pz              0.0       0.0       0.1       0.2       0.1       1.4
 0 C  px              0.0       0.6       0.9       1.9       1.0       0.0
 0 C  py              0.0       0.1       0.0       0.2       0.0       1.2
 0 C  dxz             0.0       0.0       0.0       0.1       0.0       0.0
 0 C  dx2y2           0.0       0.0       0.0       0.2       0.0       0.0
 1 C  s               0.0       0.0       1.9       6.4       0.5       3.6
 1 C  pz              0.1       0.0       1.2       1.3       0.3       0.6
 1 C  px              0.1       0.3       0.5       0.8       0.3       0.8
 1 C  py              0.4       0.2       1.4       1.1       0.1       0.2
 1 C  dxy             0.0       0.0       0.1       0.0       0.0       0.1
 2 C  s               0.0       0.6       0.1       3.1       0.8       4.3
 2 C  pz              0.0       0.8       0.3       1.1       0.3       1.4
 2 C  px              0.1       4.6       0.3       0.1       0.4       1.2
 2 C  py              0.1       1.7       0.4       0.3       0.7       0.2
 2 C  dxz             0.0       0.0       0.8       0.0       0.0       0.0
 2 C  dyz             0.0       0.0       0.3       0.2       0.0       0.0
 2 C  dx2y2           0.0       0.0       0.1       0.1       0.0       0.1
 2 C  dxy             0.0       0.0       0.8       0.0       0.0       0.1
 3 C  s               0.0       0.4       0.0       0.5       0.6       0.2
 3 C  pz              0.5       0.3      27.2       0.4       1.1       0.3
 3 C  px              0.0       0.9       0.2       0.6       0.0       0.4
 3 C  py              0.2       0.3      18.8       0.3       0.1       0.2
 3 C  dz2             1.6       0.0       0.5       0.0       0.0       0.0
 3 C  dxz             0.2       1.5       0.3       0.0       0.0       0.0
 3 C  dyz             0.1       0.3       0.0       0.2       0.1       0.0
 3 C  dx2y2           0.5       0.7       0.1       0.0       0.0       0.0
 3 C  dxy             0.0       1.9       0.3       0.0       0.0       0.0
 4 O  s               0.0       0.0       0.0       0.5       0.1       0.0
 4 O  pz             21.6       0.3      15.1       0.1       0.2       0.3
 4 O  px              1.2      66.3       0.3       0.0       0.4       0.2
 4 O  py             12.4       5.6      10.2       0.0       0.5       0.2
 4 O  dz2             0.0       0.0       0.4       0.0       0.0       0.0
 4 O  dx2y2           0.0       0.0       0.1       0.0       0.0       0.0
 5 O  s               0.0       0.3       0.0       0.7       0.1       1.2
 5 O  pz             24.7       4.0       5.6       0.0       0.3       0.1
 5 O  px              0.2       0.5       0.1       0.2       0.2       1.0
 5 O  py             19.6       3.2       4.0       0.1       0.5       0.2
 5 O  dz2             0.0       0.0       0.1       0.0       0.1       0.0
 5 O  dxz             0.0       0.0       0.2       0.0       0.0       0.0
 5 O  dxy             0.0       0.0       0.1       0.0       0.0       0.0
 6 C  s               0.0       0.1       0.0       1.5       6.1       2.3
 6 C  pz              2.7       0.1       0.1       0.4       1.5       1.2
 6 C  px              0.0       0.7       0.1       1.5       0.4       8.3
 6 C  py              1.0       0.3       0.1       0.2       0.1       0.0
 6 C  dz2             0.1       0.0       0.1       0.0       0.0       0.4
 6 C  dxz             0.4       0.0       0.2       0.0       0.0       0.3
 6 C  dyz             0.2       0.0       0.1       0.1       0.1       0.0
 6 C  dx2y2           0.0       0.0       0.0       0.0       0.0       0.5
 6 C  dxy             0.3       0.0       0.1       0.0       0.0       0.0
 7 C  s               0.5       0.0       0.7       5.1       9.1       2.3
 7 C  pz              4.9       0.1       0.3       0.7       1.3       0.3
 7 C  px              0.6       0.1       0.0       0.2       0.8       1.7
 7 C  py              1.0       0.0       0.1       0.6       1.2       0.1
 7 C  dz2             0.0       0.0       0.0       0.1       0.1       0.2
 7 C  dxz             0.0       0.0       0.0       0.0       0.0       0.2
 7 C  dyz             0.0       0.0       0.0       0.1       0.1       0.0
 7 C  dx2y2           0.0       0.0       0.0       0.0       0.0       0.2
 8 H  s               0.0       0.3       0.1       5.6       4.7       4.7
 9 H  s               0.1       0.0       0.1       4.7       8.5       0.9
10 H  s               0.1       0.0       0.1       6.0       5.4       0.8
11 H  s               0.3       0.0       0.1      11.0       0.0       6.1
12 H  s               0.2       0.2       0.1       6.8       1.2       5.5
13 H  s               0.1       0.2       1.4       3.4       3.7       7.0
14 H  s               0.0       1.2       1.7       5.7       0.7       8.5
15 H  s               1.2       0.1       0.1       3.4      10.1      14.6
16 H  s               1.5       0.4       0.3       1.7       3.4       2.1
17 H  s               0.7       0.1       0.3       5.1      10.6       1.0
18 H  s               0.2       0.1       0.2       3.1       3.9       6.4
19 H  s               0.1       0.0       0.1       5.7       8.7       4.3

                     36        37        38        39        40        41   
                   0.07677   0.08874   0.09226   0.09428   0.10428   0.12082
                   0.00000   0.00000   0.00000   0.00000   0.00000   0.00000
                  --------  --------  --------  --------  --------  --------
 0 C  s               0.4       6.9       3.7       0.0       1.4       0.3
 0 C  pz              3.0       1.8       1.6       0.1       0.4       0.1
 0 C  px              0.6       0.4       0.5       0.1       0.1       0.1
 0 C  py              2.7       0.4       0.7       3.4       0.1       0.1
 0 C  dz2             0.1       0.0       0.0       0.1       0.0       0.0
 0 C  dxz             0.1       0.1       0.0       0.0       0.2       0.2
 0 C  dx2y2           0.0       0.0       0.2       0.0       0.0       0.0
 0 C  dxy             0.1       0.0       0.2       0.1       0.0       0.1
 1 C  s               0.1       0.0       3.0       0.1       1.7       1.1
 1 C  pz              3.4       0.3       0.2       0.1       3.2       3.5
 1 C  px              1.0       0.8       0.5       0.2       0.1       0.2
 1 C  py              3.0       1.9       2.3       0.1       0.1       0.6
 1 C  dz2             0.6       0.3       0.0       0.0       0.0       0.0
 1 C  dxz             0.1       0.0       0.1       0.1       0.1       0.0
 1 C  dyz             0.1       0.4       0.0       0.1       0.2       0.1
 1 C  dx2y2           0.1       0.3       0.1       0.0       0.0       0.0
 1 C  dxy             0.2       0.0       0.2       0.1       0.0       0.0
 2 C  s               0.1       7.7       0.3       0.0       0.2       0.0
 2 C  pz              3.8       1.5       0.8       0.1       0.3       1.4
 2 C  px              0.3       1.8       0.5       2.8       0.2       0.4
 2 C  py              4.0       0.4       0.1       1.3       0.6       1.4
 2 C  dz2             0.5       0.1       0.1       0.0       0.0       0.0
 2 C  dx2y2           0.0       0.2       0.2       0.2       0.1       0.3
 2 C  dxy             0.1       0.0       0.0       0.1       0.1       0.1
 3 C  s               0.6       1.0       0.7       1.9       0.4       1.0
 3 C  pz              0.2       0.1       0.5       0.1       0.4       0.4
 3 C  px              0.1       0.8       0.3       0.1       0.0       0.1
 3 C  py              0.2       0.2       0.6       0.2       1.4       0.8
 3 C  dz2             0.1       0.0       0.2       0.1       0.1       0.1
 3 C  dxz             0.0       0.0       0.1       0.1       0.1       0.0
 3 C  dyz             0.0       0.3       0.0       0.3       0.2       0.0
 3 C  dx2y2           0.2       0.0       0.4       0.0       0.2       0.2
 3 C  dxy             0.1       0.0       0.1       0.1       0.1       0.1
 4 O  s               0.3       0.3       0.0       0.4       0.4       0.1
 4 O  pz              0.1       0.1       0.0       0.1       0.0       0.1
 4 O  px              0.1       0.1       0.2       0.2       0.1       1.1
 5 O  s               0.2       0.2       6.1       0.4       1.2       1.3
 5 O  pz              0.3       0.1       0.5       0.0       0.8       0.1
 5 O  px              0.0       0.1       3.6       0.1       1.6       0.0
 5 O  py              0.1       0.1       0.3       0.0       0.0       0.1
 5 O  dz2             0.0       0.0       0.1       0.0       0.1       0.1
 5 O  dxz             0.0       0.0       0.0       0.0       0.0       0.1
 5 O  dx2y2           0.0       0.0       0.3       0.0       0.3       0.0
 5 O  dxy             0.0       0.0       0.0       0.1       0.0       0.1
 6 C  s               0.1       2.7       2.8       1.4       6.7       0.8
 6 C  pz              0.3       2.1       0.8       3.1       1.3       1.4
 6 C  px              0.4       1.5      17.1       0.7       1.1       2.3
 6 C  py              1.1       0.6       1.0       5.8       0.2       4.2
 6 C  dz2             0.0       0.2       1.3       0.1       0.0       0.0
 6 C  dxz             0.0       0.0       0.2       0.0       0.2       0.4
 6 C  dyz             0.0       0.0       0.0       0.3       0.0       0.1
 6 C  dx2y2           0.2       0.0       1.3       0.8       0.4       0.4
 7 C  s               0.3       1.0       1.9       1.7       5.0       0.0
 7 C  pz              0.9       0.6       0.5       2.0       0.4       0.0
 7 C  px              0.1       1.2       0.6       0.9       7.2       6.8
 7 C  py              0.9       0.3       0.6       5.0       0.1       4.7
 7 C  dz2             0.0       0.3       0.3       0.1       0.0       0.1
 7 C  dxz             0.0       0.0       0.5       0.0       0.3       0.0
 7 C  dyz             0.0       0.0       0.0       0.2       0.1       0.5
 7 C  dx2y2           0.1       0.0       0.2       0.8       0.4       0.2
 8 H  s               0.1      14.2       0.4       3.7       0.1       0.2
 9 H  s               4.9       3.0       7.1       4.8       1.5       1.0
10 H  s              11.2       0.3       7.5       0.8       2.5       0.0
11 H  s               8.7       0.7      11.1       0.4       0.1       0.5
12 H  s              12.2       0.1       1.6       0.1      10.5      11.9
13 H  s              11.3       6.2       0.3       6.1       0.4       2.4
14 H  s               9.9      12.4       1.1       0.8       2.2       3.5
15 H  s               0.5      16.0       0.4       3.2      10.7       1.2
16 H  s               3.2       0.1       3.5      20.7       1.3      14.1
17 H  s               1.4       0.2       1.9       1.0      29.6      15.0
18 H  s               2.8       6.8       6.2       1.2       0.2       0.1
19 H  s               1.9       0.3       0.2      20.3       0.5      11.8

                     42        43        44        45        46        47   
                   0.12358   0.13270   0.14032   0.14672   0.16660   0.19364
                   0.00000   0.00000   0.00000   0.00000   0.00000   0.00000
                  --------  --------  --------  --------  --------  --------
 0 C  s               0.1       0.4       0.1       0.0       0.2       2.3
 0 C  pz              7.1       4.0       4.6       0.0       2.1       1.3
 0 C  px              0.7       0.7       1.2       0.2       1.8      15.5
 0 C  py              7.0       0.6       9.7       0.1       0.5       3.1
 0 C  dz2             0.0       0.2       0.9       0.0       0.0       1.1
 0 C  dxz             0.0       0.0       0.0       0.1       0.2       0.2
 0 C  dyz             1.0       0.0       0.0       0.1       0.0       0.4
 0 C  dx2y2           0.0       0.2       0.0       0.3       0.1       2.6
 0 C  dxy             0.2       0.0       0.2       0.1       0.0       0.7
 1 C  s               4.3       0.4       0.1       0.0       0.8       7.2
 1 C  pz              0.2       0.1       0.7       2.9       0.9       5.7
 1 C  px              3.4       0.0       0.2       0.8       5.8       9.0
 1 C  py              0.1       1.9       0.2       6.5       1.7       0.5
 1 C  dz2             0.0       0.1       0.1       0.2       0.0       0.2
 1 C  dxz             0.9       0.1       0.4       0.1       0.3       0.4
 1 C  dyz             0.0       0.1       0.0       0.0       0.2       1.2
 1 C  dx2y2           0.4       0.0       0.8       0.1       0.5       0.7
 1 C  dxy             0.1       0.0       0.1       0.1       0.0       0.5
 2 C  s               4.5       0.6       0.1       0.0       0.3       0.1
 2 C  pz              0.9       0.2       2.0       1.9       5.1       0.3
 2 C  px              0.6       1.0       2.3       1.8       1.8       8.7
 2 C  py              0.7       0.3       3.2       1.7       2.8       2.0
 2 C  dz2             0.0       0.3       0.5       0.0       0.0       0.1
 2 C  dxz             0.0       0.1       0.0       0.2       0.2       1.1
[...]
 1 C  dyz             5.4       2.4       0.2       0.0       0.3       0.0
 1 C  dx2y2          10.6       2.8       0.1       0.0       0.3       0.0
 1 C  dxy             0.0       0.9       0.0       0.0       0.2       0.0
 2 C  s               0.3       0.0       0.1       0.0       0.0       0.3
 2 C  pz              0.2       0.3       0.0       0.0       0.0       0.0
 2 C  px              1.0       1.3       0.0       0.1       0.1       0.2
 2 C  py              0.9       0.4       0.0       0.1       0.0       0.0
 2 C  dz2             0.3       0.8       0.1       0.0       0.5       0.5
 2 C  dxz             4.5       2.2       0.4       1.1       1.3       0.0
 2 C  dyz             3.5       4.0       0.2       0.8       0.1       0.0
 2 C  dx2y2           3.4       5.5       0.1       0.1       0.0       1.1
 2 C  dxy             1.7       0.0       0.2       2.1       0.4       0.1
 3 C  s               1.2       0.9       0.0       0.2       0.0       1.0
 3 C  pz              0.1       0.0       0.0       0.2       0.6       1.0
 3 C  px              0.3       1.2       0.0       0.3       0.0       0.9
 3 C  py              0.1       0.3       0.0       0.1       0.5       1.3
 3 C  dz2             0.2       1.3       0.3       2.4       0.0       1.6
 3 C  dxz             0.0       0.2       1.0       0.8       8.4       1.7
 3 C  dyz             0.0       2.1       0.1       0.6       0.0       0.7
 3 C  dx2y2           0.0       1.1       0.4       4.9       0.8       0.5
 3 C  dxy             0.6       0.1       0.5       4.9       3.5       1.6
 4 O  s               0.0       0.0       0.0       1.3       0.0       0.3
 4 O  pz              0.1       0.0       0.0       0.2       0.2       0.1
 4 O  px              0.0       0.0       0.0       0.4       0.0       0.6
 4 O  py              0.0       0.0       0.0       0.2       0.1       0.1
 4 O  dz2             4.4      14.3       2.5       2.9      11.9       1.5
 4 O  dxz             0.8       0.2       2.7       5.9       2.1       8.7
 4 O  dyz             8.7       9.7       0.1       1.3       1.7       0.3
 4 O  dx2y2           7.9      22.6       0.3       5.0       7.8       0.5
 4 O  dxy            12.5       3.2       3.2       2.2       1.6      15.4
 5 O  s               0.0       0.1       0.0       0.5       0.0       7.5
 5 O  pz              0.2       0.1       0.6       0.5       0.2       0.4
 5 O  px              0.0       0.0       0.0       1.9       0.1       0.1
 5 O  py              0.0       0.4       0.5       0.2       0.2       0.6
 5 O  dz2             3.8       1.2      23.9       0.0      20.9       8.3
 5 O  dxz             0.0       0.9      16.5       7.8      15.6       1.9
 5 O  dyz             1.0       7.3       0.0      33.2       0.3      16.5
 5 O  dx2y2           0.6       0.5       2.8       0.2      11.0      14.6
 5 O  dxy             0.1       0.5      21.1       9.3       6.0       4.7
 6 C  s               0.2       0.2       0.1       0.5       0.0       0.5
 6 C  pz              0.2       0.1       0.2       0.0       0.0       0.1
 6 C  px              0.1       0.1       0.2       0.7       0.1       0.7
 6 C  dz2             0.0       0.1       0.8       1.3       1.0       0.4
 6 C  dxz             0.9       0.2       8.4       0.4       0.3       1.2
 6 C  dyz             0.3       0.2       0.4       0.0       0.0       0.2
 6 C  dx2y2           0.1       0.3       0.1       2.9       0.0       1.4
 6 C  dxy             0.0       0.6       6.2       1.3       0.4       0.3
 7 C  pz              0.0       0.0       0.2       0.0       0.0       0.0
 7 C  dz2             0.0       0.0       1.3       0.0       0.0       0.0
 7 C  dxz             0.0       0.2       0.5       0.3       0.0       0.1
 7 C  dyz             0.2       0.1       1.4       0.1       0.2       0.0
 7 C  dx2y2           0.0       0.0       1.1       0.0       0.2       0.1
 8 H  s               0.1       0.0       0.0       0.0       0.0       0.0
15 H  s               0.1       0.1       0.0       0.0       0.0       0.0
17 H  s               0.0       0.0       0.2       0.0       0.0       0.0

                    132       133       134       135   
                   3.12431   3.32332   3.48744   3.56245
                   0.00000   0.00000   0.00000   0.00000
                  --------  --------  --------  --------
 2 C  s               0.0       0.3       0.1       0.1
 2 C  px              0.0       0.1       0.4       0.1
 2 C  dz2             0.0       0.0       0.4       0.0
 2 C  dxz             0.3       0.2       0.0       0.2
 2 C  dx2y2           0.1       0.0       1.2       0.0
 2 C  dxy             0.4       0.4       0.0       0.3
 3 C  s               0.0       3.5       0.1       6.5
 3 C  pz              0.1       0.0       1.6       1.3
 3 C  px              0.0       1.6       0.3       0.7
 3 C  py              0.3       0.1       2.4       1.8
 3 C  dz2            13.4       1.3       0.0       0.5
 3 C  dxz             0.0       0.1       7.3       0.2
 3 C  dyz             0.7       0.6       0.5       7.8
 3 C  dx2y2           5.9       5.1       0.7       4.8
 3 C  dxy             0.1       0.0      10.9       0.2
 4 O  s               0.0       1.7       1.1       4.0
 4 O  pz              0.6       0.3       0.4       1.1
 4 O  px              0.0       0.1       0.2       0.8
 4 O  py              0.4       0.5       0.7       1.4
 4 O  dz2            39.3       0.2       1.1       0.1
 4 O  dxz             4.3       0.7       2.0      11.0
 4 O  dyz             1.0      12.6      13.4      22.7
 4 O  dx2y2          11.1       5.2      10.9       3.1
 4 O  dxy             1.8       0.9       2.3      14.7
 5 O  s               0.4       0.1       0.6       0.6
 5 O  pz              0.0       0.1       0.2       0.0
 5 O  px              0.0       2.1       2.9       0.3
 5 O  py              0.1       0.5       0.6       0.1
 5 O  dz2             2.2       5.5       0.3       2.6
 5 O  dxz             8.0       6.5      13.5       1.3
 5 O  dyz             0.0       7.5       3.2       0.1
 5 O  dx2y2           0.4      30.3       0.3       7.2
 5 O  dxy             7.0       3.0      18.2       3.5
 6 C  s               0.0       0.8       0.3       0.0
 6 C  pz              0.0       0.2       0.0       0.0
 6 C  px              0.1       1.6       0.4       0.1
 6 C  dz2             0.4       1.0       0.2       0.0
 6 C  dxz             0.3       0.9       0.0       0.3
 6 C  dx2y2           0.0       3.6       0.7       0.1
 6 C  dxy             0.6       0.4       0.1       0.3


                      *****************************
                      * MAYER POPULATION ANALYSIS *
                      *****************************

  NA   - Mulliken gross atomic population
  ZA   - Total nuclear charge
  QA   - Mulliken gross atomic charge
  VA   - Mayer's total valence
  BVA  - Mayer's bonded valence
  FA   - Mayer's free valence

  ATOM       NA         ZA         QA         VA         BVA        FA
  0 C      6.2418     6.0000    -0.2418     4.0054     4.0054    -0.0000
  1 C      6.2432     6.0000    -0.2432     4.1988     4.1988    -0.0000
  2 C      6.1137     6.0000    -0.1137     3.9340     3.9340    -0.0000
  3 C      5.8868     6.0000     0.1132     4.4025     4.4025    -0.0000
  4 O      8.2136     8.0000    -0.2136     2.2791     2.2791    -0.0000
  5 O      8.2431     8.0000    -0.2431     2.2540     2.2540     0.0000
  6 C      6.0113     6.0000    -0.0113     4.0553     4.0553    -0.0000
  7 C      6.3042     6.0000    -0.3042     4.0143     4.0143     0.0000
  8 H      0.8930     1.0000     0.1070     0.9503     0.9503    -0.0000
  9 H      0.8986     1.0000     0.1014     0.9576     0.9576    -0.0000
 10 H      0.9008     1.0000     0.0992     0.9581     0.9581     0.0000
 11 H      0.9023     1.0000     0.0977     0.9485     0.9485    -0.0000
 12 H      0.8969     1.0000     0.1031     0.9450     0.9450    -0.0000
 13 H      0.9019     1.0000     0.0981     0.9702     0.9702     0.0000
 14 H      0.9063     1.0000     0.0937     0.9663     0.9663     0.0000
 15 H      0.8995     1.0000     0.1005     0.9502     0.9502    -0.0000
 16 H      0.8925     1.0000     0.1075     0.9793     0.9793    -0.0000
 17 H      0.8882     1.0000     0.1118     0.9549     0.9549     0.0000
 18 H      0.8745     1.0000     0.1255     0.9675     0.9675     0.0000
 19 H      0.8878     1.0000     0.1122     0.9569     0.9569     0.0000

  Mayer bond orders larger than 0.100000
B(  0-C ,  1-C ) :   1.1578 B(  0-C ,  8-H ) :   0.9516 B(  0-C ,  9-H ) :   0.9533 
B(  0-C , 10-H ) :   0.9534 B(  1-C ,  2-C ) :   1.1291 B(  1-C , 11-H ) :   0.9261 
B(  1-C , 12-H ) :   0.9267 B(  2-C ,  3-C ) :   1.0261 B(  2-C , 13-H ) :   0.9032 
B(  2-C , 14-H ) :   0.8992 B(  3-C ,  4-O ) :   2.0436 B(  3-C ,  5-O ) :   1.2046 
B(  5-O ,  6-C ) :   0.9228 B(  6-C ,  7-C ) :   1.1735 B(  6-C , 15-H ) :   0.9373 
B(  6-C , 16-H ) :   0.9125 B(  7-C , 17-H ) :   0.9445 B(  7-C , 18-H ) :   0.9461 
B(  7-C , 19-H ) :   0.9492 

-------
TIMINGS
-------

Total SCF time: 0 days 0 hours 0 min 8 sec 

Total time                  ....       8.258 sec
Sum of individual times     ....       7.774 sec  ( 94.1%)

SCF preparation             ....       0.167 sec  (  2.0%)
Fock matrix formation       ....       6.764 sec  ( 81.9%)
  Startup                   ....       0.057 sec  (  0.8% of F)
  Split-RI-J                ....       2.388 sec  ( 35.3% of F)
  XC integration            ....       3.833 sec  ( 56.7% of F)
    XC Preparation          ....       0.000 sec  (  0.0% of XC)
    Basis function eval.    ....       1.359 sec  ( 35.4% of XC)
    Density eval.           ....       0.460 sec  ( 12.0% of XC)
    XC-Functional eval.     ....       0.356 sec  (  9.3% of XC)
    XC-Potential eval.      ....       0.721 sec  ( 18.8% of XC)
Diagonalization             ....       0.000 sec  (  0.0%)
Density matrix formation    ....       0.190 sec  (  2.3%)
Total Energy calculation    ....       0.036 sec  (  0.4%)
Population analysis         ....       0.076 sec  (  0.9%)
Orbital Transformation      ....       0.045 sec  (  0.5%)
Orbital Orthonormalization  ....       0.000 sec  (  0.0%)
DIIS solution               ....       0.326 sec  (  3.9%)
  MO trafo                  ....       0.000 sec  (  0.0 % of DIIS)
  Orb grad                  ....       0.000 sec  (  0.0 % of DIIS)
  Energy W gradient         ....       0.000 sec  (  0.0 % of DIIS)
  DIIS error                ....       0.005 sec  (  1.6 % of DIIS)
  DIIS work                 ....       0.282 sec  ( 86.5 % of DIIS)
  Form Q                    ....       0.000 sec  (  0.0 % of DIIS)
  Form QpQm                 ....       0.000 sec  (  0.0 % of DIIS)
  Exp/Cayley                ....       0.000 sec  (  0.0 % of DIIS)
  Orb update                ....       0.000 sec  (  0.0 % of DIIS)
  Wake-sleep                ....       0.014 sec  (  4.3 % of DIIS)
SOSCF solution              ....       0.170 sec  (  2.1%)
  MO trafo                  ....       0.057 sec  ( 33.2 % of SOSCF)
  Orb grad                  ....       0.003 sec  (  1.5 % of SOSCF)
  Rot update                ....       0.069 sec  ( 40.2 % of SOSCF)
  Step                      ....       0.042 sec  ( 24.9 % of SOSCF)
Finished LeanSCF after   8.4 sec

Maximum memory used throughout the entire LEANSCF-calculation: 12.7 MB


-------------------------------------------------------------------------------
                          DFT DISPERSION CORRECTION                            
                                                                               
                                DFTD4 V3.4.0                                   
-------------------------------------------------------------------------------
The PBE functional is recognized
Active option DFTDOPT                   ...         5   

-------------------------   ----------------
Dispersion correction           -0.014847764
-------------------------   ----------------

------------------   -----------------
gCP correction             0.089711036
------------------   -----------------

-------------------------   --------------------
FINAL SINGLE POINT ENERGY      -385.457753331331
-------------------------   --------------------


------------------------------------------------------------------------------
                              ORCA PROPERTY CALCULATIONS
------------------------------------------------------------------------------

GBWName                                 ... sp.gbw
Number of atoms                         ...     20
Number of basis functions               ...    136
Max core memory                         ...   1024 MB

Electric properties:
Dipole moment                           ... YES
Quadrupole moment                       ...  NO
Static polarizability (Dipole/Dipole)   ...  NO
Static polarizability (Dipole/Quad.)    ...  NO
Static polarizability (Quad./Quad.)     ...  NO
Static polarizability (Velocity)        ...  NO

Atomic electric properties:
Dipole moment                           ...  NO
Quadrupole moment                       ...  NO
Static polarizability                   ...  NO

Choice of electric origin               ... Center of mass
Position of electric origin             ...    -0.000014    -0.000020     0.000003

General magnetic properties:
Magnetizability                         ...  NO

EPR properties:
g-Tensor (aka g-matrix)                 ...  NO
Zero-Field splitting spin-orbit         ...  NO
Zero-field splitting spin-spin          ...  NO
Hyperfine couplings                     ...  NO (   0 nuclei)
Quadrupole couplings                    ...  NO (   0 nuclei)
Contact density                         ...  NO (   0 nuclei)

NMR properties:
Chemical shifts                         ...  NO (   0 nuclei)
Spin-rotation constants                 ...  NO (   0 nuclei)
Spin-spin couplings                     ...  NO (   0 nuclei,    0 pairs)

Choice of magnetic origin               ... GIAO
Position of magnetic origin             ...     0.000000     0.000000     0.000000

Properties with geometric perturbations:
SCF Hessian                             ...  NO
IR spectrum                             ...  NO
VCD spectrum                            ...  NO
X-ray spectroscopy properties:
SCF XES/XAS/RIXS spectra                ...  NO


-------------
DIPOLE MOMENT
-------------

Method             : SCF
Type of density    : Electron Density
Multiplicity       :   1
Irrep              :   0
Energy             :  -385.5326166035686128 Eh
Relativity type    : 
Basis              : AO
                                X                 Y                 Z
Electronic contribution:      3.489299402       5.256915172      -1.598521478
Nuclear contribution   :     -3.390908764      -5.928385455       1.288630050
                        -----------------------------------------
Total Dipole Moment    :      0.098390638      -0.671470283      -0.309891428
                        -----------------------------------------
Magnitude (a.u.)       :      0.746046752
Magnitude (Debye)      :      1.896300141



--------------------
Rotational spectrum 
--------------------
 
Rotational constants in cm-1:             0.130905             0.033403             0.030756 
Rotational constants in MHz :          3924.447764          1001.394939           922.055498 

Dipole components along the rotational axes: 
x,y,z [a.u.] :     0.014236    -0.647017    -0.371150 
x,y,z [Debye]:     0.036185    -1.644586    -0.943388 

 

Dipole moment calculation done in   0.0 sec 

Maximum memory used throughout the entire PROP-calculation: 8.0 MB

--------------------------------
SUGGESTED CITATIONS FOR THIS RUN
--------------------------------

Below you find a list of papers that are relevant to this ORCA run
We neither can nor want to force you to cite these papers, but we appreciate if you do
You receive ORCA, which is the product of decades of hard work by many enthusiastic individuals, for free
The only thing we kindly ask in return is that you cite our papers,
We deeply appreciate it, if you show your appreciation for ORCA by not just citing the generic ORCA reference.

Please note that relegating all ORCA citations to the supporting information does *not* help us.
SI sections are not indexed - citations you put there will not count into any citation statistics
But we need these citations in order to attract the funding resources that allow us to do what we are doing

Therefore, if you are a happy ORCA user, please consider citing a few of the papers listed below in the main body of your paper

In addition to the list printed below, the program has created the file sp.bibtex that contains the list in bibtex format
You can import this file easily into all common literature databanks and citation aid programs


List of essential papers. We consider these as the minimum necessary citations

  1. Neese,F.
     Software update: the ORCA program system, version 5.0
     WIRES Comput. Molec. Sci., 2022 12(1)e1606
     doi.org/10.1002/wcms.1606

List of papers to cite with high priority. The work reported in these papers was absolutely
necessary for this run to complete.
Our perspective: the developers of density functionals and basis sets usually get cited in chemistry papers
Good! But without the algorithms to do something with them, the functionals or basis sets would not do anything.
Hence, in our opinion, the algorithm design and method developments papers are equally worthy of getting cited

  1. Neese,F.
     An improvement of the resolution of the identity approximation for the formation of the Coulomb matrix
     J. Comp. Chem., 2003 24(14)1740-1747
     doi.org/10.1002/jcc.10318
  2. Neese,F.
     The SHARK Integral Generation and Digestion System
     J. Comp. Chem., 2022  1-16
     doi.org/10.1002/jcc.26942
  3. Caldeweyher,E.; Bannwarth,C.; Grimme,S.
     Extension of the D3 dispersion coefficient model
     J. Chem. Phys., 2017 147 034112-XXXX
     doi.org/10.1063/1.4993215
  4. Caldeweyher,E.; Ehlert,S.; Hansen,A.; Neugebauer,H.; Spicher,S.; Bannwarth,C.; Grimme,S.
     A generally applicable atomic-charge dependent London dispersion correction
     J. Chem. Phys., 2019 150 154122-XXXX
     doi.org/10.1063/1.5090222
  5. Caldeweyher,E.; Mewes,J.; Ehlert,S.; Grimme,S.
     Extension and evaluation of the D4 London-dispersion model for periodic systems
     Phys. Chem. Chem. Phys., 2020 22(16)8499-8512
     doi.org/10.1039/D0CP00502A

List of suggested additional citations. These are papers that are important in the 'surrounding' of 
of this run, or papers that preceded the highly important papers. If you like your results we are grateful for a citation.

  1. Neese,F.
     The ORCA program system
     WIRES Comput. Molec. Sci., 2012 2(1)73-78
     doi.org/10.1002/wcms.81
  2. Neese,F.
     Software update: the ORCA program system, version 4.0
     WIRES Comput. Molec. Sci., 2018 8(1)1-6
     doi.org/10.1002/wcms.1327
  3. Neese,F.; Wennmohs,F.; Becker,U.; Riplinger,C.
     The ORCA quantum chemistry program package
     J. Chem. Phys., 2020 152 Art. No. L224108
     doi.org/10.1063/5.0004608

List of optional additional citations

  1. Neese,F.
     Approximate second-order SCF convergence for spin unrestricted wavefunctions
     Chem. Phys. Lett., 2000 325(1-3)93-98
     doi.org/10.1016/s0009-2614(00)00662-x

Timings for individual modules:

Sum of individual times          ...       10.025 sec (=   0.167 min)
Startup calculation              ...        0.750 sec (=   0.012 min)   7.5 %
SCF iterations                   ...        9.163 sec (=   0.153 min)  91.4 %
Property calculations            ...        0.112 sec (=   0.002 min)   1.1 %
                             ****ORCA TERMINATED NORMALLY****
TOTAL RUN TIME: 0 days 0 hours 0 minutes 10 seconds 735 msec
