      -----------------------------------------------------------      
     |                   =====================                   |     
     |                           x T B                           |     
     |                   =====================                   |     
     |                         S. Grimme                         |     
     |          Mulliken Center for Theoretical Chemistry        |     
     |                    University of Bonn                     |     
      -----------------------------------------------------------      

   * xtb version 6.7.1 (edcfbbe) compiled by 'albert@albert-system' on 2024-07-22

   xtb is free software: you can redistribute it and/or modify it under
   the terms of the GNU Lesser General Public License as published by
   the Free Software Foundation, either version 3 of the License, or
   (at your option) any later version.
   
   xtb is distributed in the hope that it will be useful,
   but WITHOUT ANY WARRANTY; without even the implied warranty of
   MERCHANTABILITY or FITNESS FOR A PARTICULAR PURPOSE.  See the
   GNU Lesser General Public License for more details.
   
   Cite this work as:
   * C. Bannwarth, E. Caldeweyher, S. Ehlert, A. Hansen, P. Pracht,
     J. Seibert, S. Spicher, S. Grimme, WIREs Comput. Mol. Sci., 2020, 11,
     e01493. DOI: 10.1002/wcms.1493
   
   for GFN2-xTB:
   * C. Bannwarth, S. Ehlert and S. Grimme., J. Chem. Theory Comput., 2019,
     15, 1652-1671. DOI: 10.1021/acs.jctc.8b01176
   for GFN1-xTB:
   * S. Grimme, C. Bannwarth, P. Shushkov, J. Chem. Theory Comput., 2017,
     13, 1989-2009. DOI: 10.1021/acs.jctc.7b00118
   for GFN0-xTB:
   * P. Pracht, E. Caldeweyher, S. Ehlert, S. Grimme, ChemRxiv, 2019, preprint.
     DOI: 10.26434/chemrxiv.8326202.v1
   for GFN-FF:
   * S. Spicher and S. Grimme, Angew. Chem. Int. Ed., 2020, 59, 15665-15673.
     DOI: 10.1002/anie.202004239
   
   for ALPB and GBSA implicit solvation:
   * S. Ehlert, M. Stahn, S. Spicher, S. Grimme, J. Chem. Theory Comput.,
     2021, 17, 4250-4261. DOI: 10.1021/acs.jctc.1c00471
   
   for ddCOSMO and CPCM-X implicit solvation:
   * M. Stahn, S. Ehlert, S. Grimme, J. Phys. Chem. A,
     2023, XX, XXXX-XXXX. DOI: 10.1021/acs.jpca.3c04382
   
   for DFT-D4:
   * E. Caldeweyher, C. Bannwarth and S. Grimme, J. Chem. Phys., 2017,
     147, 034112. DOI: 10.1063/1.4993215
   * E. Caldeweyher, S. Ehlert, A. Hansen, H. Neugebauer, S. Spicher,
     C. Bannwarth and S. Grimme, J. Chem. Phys., 2019, 150, 154122.
     DOI: 10.1063/1.5090222
   * E. Caldeweyher, J.-M. Mewes, S. Ehlert and S. Grimme, Phys. Chem. Chem. Phys.
     2020, 22, 8499-8512. DOI: 10.1039/D0CP00502A
   
   for sTDA-xTB:
   * S. Grimme and C. Bannwarth, J. Chem. Phys., 2016, 145, 054103.
     DOI: 10.1063/1.4959605
   
   in the mass-spec context:
   * V. Asgeirsson, C. Bauer and S. Grimme, Chem. Sci., 2017, 8, 4879.
     DOI: 10.1039/c7sc00601b
   * J. Koopman and S. Grimme, ACS Omega 2019, 4, 12, 15120-15133.
     DOI: 10.1021/acsomega.9b02011
   
   for metadynamics refer to:
   * S. Grimme, J. Chem. Theory Comput., 2019, 155, 2847-2862
     DOI: 10.1021/acs.jctc.9b00143
   
   for SPH calculations refer to:
   * S. Spicher and S. Grimme, J. Chem. Theory Comput., 2021, 17, 1701-1714
     DOI: 10.1021/acs.jctc.0c01306
   
   for ONIOM refer to:
   * C. Plett, A. Katbashev, S. Ehlert, S. Grimme, M. Bursch,
     Phys. Chem. Chem. Phys., 2023, 25, 17860-17868. DOI: 10.1039/D3CP02178E
   
   for DIPRO refer to:
   * J. Kohn, N. Gildemeister, S. Grimme, D. Fazzi, A. Hansen,
     J. Chem. Phys., 2023, just accepted.
   
   for PTB refer to:
   * S. Grimme, M. Mueller, A. Hansen, J. Chem. Phys., 2023, 158, 124111.
     DOI: 10.1063/5.0137838
   
   with help from (in alphabetical order)
   P. Atkinson, C. Bannwarth, F. Bohle, G. Brandenburg, E. Caldeweyher
   M. Checinski, S. Dohm, S. Ehlert, S. Ehrlich, I. Gerasimov, C. Hölzer
   A. Katbashev, J. Kohn, J. Koopman, C. Lavigne, S. Lehtola, F. März, M. Müller,
   F. Musil, H. Neugebauer, J. Pisarek, C. Plett, P. Pracht, F. Pultar,
   J. Seibert, P. Shushkov, S. Spicher, M. Stahn, M. Steiner, T. Strunk,
   J. Stückrath, T. Rose, and J. Unsleber
   
 * started run on 2025/04/11 at 16:44:16.921     
   ID    Z sym.   atoms
    1    6 C      1-4, 7, 8
    2    8 O      5, 6
    3    1 H      9-20

           -------------------------------------------------
          |                Calculation Setup                |
           -------------------------------------------------

          program call               : /srv/scratch/z5358697/.xtb/bin/xtb xtb_opt.coord --opt normal --orca -I xtb_opt-xcontrol-inp
          hostname                   : k061
          coordinate file            : xtb_opt.coord
          omp threads                :                    16

           -------------------------------------------------
          |                   Orca driver                   |
           -------------------------------------------------
orca executable           : /apps/z_install_tree/linux-rocky8-ivybridge/gcc-12.2.0/orca-6.0.0-srtngmq3qlimg2qxbl6avaaiffipurdx/bin/orca
orca input file           : xtb_opt.inp
orca input line           : 
orca parallel             : true
orca number of threads    : 16
                         * ORCA takes the control...
  ------------------------------------------------------------------------

                                 *****************
                                 * O   R   C   A *
                                 *****************

                                            #,                                       
                                            ###                                      
                                            ####                                     
                                            #####                                    
                                            ######                                   
                                           ########,                                 
                                     ,,################,,,,,                         
                               ,,#################################,,                 
                          ,,##########################################,,             
                       ,#########################################, ''#####,          
                    ,#############################################,,   '####,        
                  ,##################################################,,,,####,       
                ,###########''''           ''''###############################       
              ,#####''   ,,,,##########,,,,          '''####'''          '####       
            ,##' ,,,,###########################,,,                        '##       
           ' ,,###''''                  '''############,,,                           
         ,,##''                                '''############,,,,        ,,,,,,###''
      ,#''                                            '''#######################'''  
     '                                                          ''''####''''         
             ,#######,   #######,   ,#######,      ##                                
            ,#'     '#,  ##    ##  ,#'     '#,    #''#        ,####,   ,####,        
            ##       ##  ##   ,#'  ##            #'  '#       #'       #'  '#        
            ##       ##  #######   ##           ,######,      #####,   #    #        
            '#,     ,#'  ##    ##  '#,     ,#' ,#      #,     #,   #   #,  ,#        
             '#######'   ##     ##  '#######'  #'      '#     '####' # '####'        



                #########################################################
                #                        -***-                          #
                #          Department of theory and spectroscopy        #
                #                                                       #
                #                      Frank Neese                      #
                #                                                       #
                #     Directorship, Architecture, Infrastructure        #
                #                    SHARK, DRIVERS                     #
                #        Core code/Algorithms in most modules           #
                #                                                       #
                #        Max Planck Institute fuer Kohlenforschung      #
                #                Kaiser Wilhelm Platz 1                 #
                #                 D-45470 Muelheim/Ruhr                 #
                #                      Germany                          #
                #                                                       #
                #                  All rights reserved                  #
                #                        -***-                          #
                #########################################################


                         Program Version 6.0.0  -   RELEASE  -


 With contributions from (in alphabetic order):
   Daniel Aravena         : Magnetic Suceptibility
   Michael Atanasov       : Ab Initio Ligand Field Theory (pilot matlab implementation)
   Alexander A. Auer      : GIAO ZORA, VPT2 properties, NMR spectrum
   Ute Becker             : All parallelization in ORCA, NUMFREQ, NUMCALC
   Giovanni Bistoni       : ED, misc. LED, open-shell LED, HFLD
   Martin Brehm           : Molecular dynamics
   Dmytro Bykov           : pre 5.0 version of the SCF Hessian
   Marcos Casanova-Páez   : Triplet and SCS-CIS(D). UHF-(DLPNO)-IP/EA/STEOM-CCSD. UHF-CVS-IP/STEOM-CCSD
   Vijay G. Chilkuri      : MRCI spin determinant printing, contributions to CSF-ICE
   Pauline Colinet        : FMM embedding
   Dipayan Datta          : RHF DLPNO-CCSD density
   Achintya Kumar Dutta   : EOM-CC, STEOM-CC
   Nicolas Foglia         : Exact transition moments, OPA infrastructure, MCD improvements
   Dmitry Ganyushin       : Spin-Orbit,Spin-Spin,Magnetic field MRCI
   Miquel Garcia          : C-PCM and meta-GGA Hessian, CCSD/C-PCM, Gaussian charge scheme
   Tiago L. C. Gouveia    : GS-ROHF, GS-ROCIS
   Yang Guo               : DLPNO-NEVPT2, F12-NEVPT2, CIM, IAO-localization
   Andreas Hansen         : Spin unrestricted coupled pair/coupled cluster methods
   Ingolf Harden          : AUTO-CI MPn and infrastructure 
   Benjamin Helmich-Paris : MC-RPA, TRAH-(SCF,CASSCF), AVAS, COSX integrals, SCF dyn. polar.
   Lee Huntington         : MR-EOM, pCC
   Robert Izsak           : Overlap fitted RIJCOSX, COSX-SCS-MP3, EOM
   Riya Kayal             : Wick's Theorem for AUTO-CI, AUTO-CI UHF-CCSDT
   Emily Kempfer          : AUTO-CI, RHF CISDT and CCSDT
   Christian Kollmar      : KDIIS, OOCD, Brueckner-CCSD(T), CCSD density, CASPT2, CASPT2-K, improved NEVPT2
   Axel Koslowski         : Symmetry handling
   Simone Kossmann        : Meta GGA functionals, TD-DFT gradient, OOMP2, (MP2 Hessian; deprecated post 5.0)
   Lucas Lang             : DCDCAS
   Marvin Lechner         : AUTO-CI (C++ implementation), FIC-MRCC
   Spencer Leger          : CASSCF response
   Dagmar Lenk            : GEPOL surface, SMD, ORCA-2-JSON
   Dimitrios Liakos       : Extrapolation schemes; Compound Job, initial MDCI parallelization
   Dimitrios Manganas     : Further ROCIS development; embedding schemes. LFT, Crystal Embedding
   Dimitrios Pantazis     : SARC Basis sets
   Anastasios Papadopoulos: AUTO-CI, single reference methods and gradients
   Taras Petrenko         : pre 6.0 DFT Hessian and TD-DFT gradient, (ASA, deprecated), ECA, 1-Electron XAS/XES, NRVS
   Peter Pinski           : DLPNO-MP2, DLPNO-MP2 Gradient
   Christoph Reimann      : Effective Core Potentials
   Marius Retegan         : Local ZFS, SOC
   Christoph Riplinger    : Optimizer, TS searches, QM/MM, DLPNO-CCSD(T), (RO)-DLPNO pert. Triples
   Michael Roemelt        : Original ROCIS implementation
   Masaaki Saitow         : Open-shell DLPNO-CCSD energy and density
   Barbara Sandhoefer     : DKH picture change effects
   Kantharuban Sivalingam : CASSCF convergence/infrastructure, NEVPT2 and variants, FIC-MRCI
   Bernardo de Souza      : ESD, SOC TD-DFT
   Georgi Stoychev        : AutoAux, RI-MP2 NMR, DLPNO-MP2 response, X2C
   Van Anh Tran           : RI-MP2 g-tensors
   Willem Van den Heuvel  : Paramagnetic NMR
   Zikuan Wang            : NOTCH, Electric field optimization 
   Frank Wennmohs         : Technical directorship and infrastructure
   Hang Xu                : AUTO-CI-Response properties 


 We gratefully acknowledge several colleagues who have allowed us to
 interface, adapt or use parts of their codes:
   Stefan Grimme, W. Hujo, H. Kruse, P. Pracht,  : VdW corrections, initial TS optimization,
                  C. Bannwarth, S. Ehlert,         DFT functionals, gCP, sTDA/sTD-DF
                  L. Wittmann, M. Mueller
   Ed Valeev, F. Pavosevic, A. Kumar             : LibInt (2-el integral package), F12 methods
   Garnet Chan, S. Sharma, J. Yang, R. Olivares  : DMRG
   Ulf Ekstrom                                   : XCFun DFT Library
   Mihaly Kallay                                 : mrcc  (arbitrary order and MRCC methods)
   Frank Weinhold                                : gennbo (NPA and NBO analysis)
   Simon Mueller                                 : openCOSMO-RS
   Christopher J. Cramer and Donald G. Truhlar   : smd solvation model
   Lars Goerigk                                  : TD-DFT with DH, B97 family of functionals
   V. Asgeirsson, H. Jonsson                     : NEB implementation
   FAccTs GmbH                                   : IRC, NEB, NEB-TS, DLPNO-Multilevel, CI-OPT
                                                   MM, QMMM, 2- and 3-layer-ONIOM, Crystal-QMMM,
                                                   LR-CPCM, SF, NACMEs, symmetry and pop. for TD-DFT,
                                                   nearIR, NL-DFT gradient (VV10), updates on ESD,
                                                   ML-optimized integration grids, MBIS, APM,
                                                   GOAT, DOCKER, SOLVATOR, interface openCOSMO-RS
   S Lehtola, MJT Oliveira, MAL Marques          : LibXC Library
   Liviu Ungur et al                             : ANISO software


 Your calculation uses the libint2 library for the computation of 2-el integrals
 For citations please refer to: http://libint.valeyev.net

 Your ORCA version has been built with support for libXC version: 6.2.2
 For citations please refer to: https://libxc.gitlab.io

 This ORCA versions uses:
   CBLAS   interface :  Fast vector & matrix operations
   LAPACKE interface :  Fast linear algebra routines
   SCALAPACK package :  Parallel linear algebra routines
   Shared memory     :  Shared parallel matrices
   BLAS/LAPACK       :  OpenBLAS 0.3.27  USE64BITINT DYNAMIC_ARCH NO_AFFINITY SkylakeX SINGLE_THREADED
        Core in use  :  SkylakeX
   Copyright (c) 2011-2014, The OpenBLAS Project




***************************************
The coordinates will be read from file: xtb_opt.xyz
***************************************


Your calculation utilizes the geometrical counterpoise correction gCP
Please cite in your paper:
H.Kruse, S. Grimme J.Chem.Phys., 136, (2012), 154101 
   

Your calculation utilizes the atom-pairwise dispersion correction
based on EEQ partial charges (D4)


Your calculation utilizes the SMD solvation module
Please cite in your paper:
A.V. Marenich, C.J. Cramer, D.G. Truhlar J. Phys. Chem. B, 113, (2009), 6378 

================================================================================

----- Orbital basis set information -----
Your calculation utilizes the basis: def2-mTZVPP
   Stefan Grimme, Andreas Hansen, Sebastian Ehlert, and Jan-Michael Mewes 
   J. Chem. Phys. 154, 064103 (2021). DOI: 10.1063/5.0040021

----- AuxJ basis set information -----
Your calculation utilizes the auxiliary basis: def2/J
   F. Weigend, Phys. Chem. Chem. Phys. 8, 1057 (2006).

================================================================================
                                        WARNINGS
                       Please study these warnings very carefully!
================================================================================

WARNING: Old DensityContainer found on disk!
         Will remove this file - 
         If you want to keep old densities, please start your calculation with a different basename. 

Using LibXC functional ID 497 : Re-regularized SCAN exchange by Furness et al
[ 1]  J. W. Furness, A. D. Kaplan, J. Ning, J. P. Perdew, and J. Sun.,  J. Phys. Chem. Lett. 11, 8208-8215 (2020)
[ 2]  J. W. Furness, A. D. Kaplan, J. Ning, J. P. Perdew, and J. Sun.,  J. Phys. Chem. Lett. 11, 9248-9248 (2020)
Using LibXC functional ID 498 : Re-regularized SCAN correlation by Furness et al
[ 1]  J. W. Furness, A. D. Kaplan, J. Ning, J. P. Perdew, and J. Sun.,  J. Phys. Chem. Lett. 11, 8208-8215 (2020)
[ 2]  J. W. Furness, A. D. Kaplan, J. Ning, J. P. Perdew, and J. Sun.,  J. Phys. Chem. Lett. 11, 9248-9248 (2020)
Using LibXC functional ID 497 : Re-regularized SCAN exchange by Furness et al
[ 1]  J. W. Furness, A. D. Kaplan, J. Ning, J. P. Perdew, and J. Sun.,  J. Phys. Chem. Lett. 11, 8208-8215 (2020)
[ 2]  J. W. Furness, A. D. Kaplan, J. Ning, J. P. Perdew, and J. Sun.,  J. Phys. Chem. Lett. 11, 9248-9248 (2020)
Using LibXC functional ID 498 : Re-regularized SCAN correlation by Furness et al
[ 1]  J. W. Furness, A. D. Kaplan, J. Ning, J. P. Perdew, and J. Sun.,  J. Phys. Chem. Lett. 11, 8208-8215 (2020)
[ 2]  J. W. Furness, A. D. Kaplan, J. Ning, J. P. Perdew, and J. Sun.,  J. Phys. Chem. Lett. 11, 9248-9248 (2020)

================================================================================
                                       INPUT FILE
================================================================================
NAME = xtb_opt.inp
|  1> ! r2scan-3c def2/J RI DEFGRID2 scfconv7 ENGRAD tightSCF miniprint
|  2> %cpcm
|  3>     smd true
|  4>     smdsolvent "water"
|  5> end
|  6> * xyzfile 0 1 xtb_opt.xyz
|  7> 
|  8>                          ****END OF INPUT****
================================================================================

                     *******************************
                     * Energy+Gradient Calculation *
                     *******************************

---------------------------------
CARTESIAN COORDINATES (ANGSTROEM)
---------------------------------
  C     -2.779354   -1.143393   -0.124111
  C     -2.528136    0.359009   -0.032049
  C     -1.223107    0.684937    0.696078
  C     -0.009217    0.212088   -0.056141
  O      0.121170    0.274435   -1.268456
  O      0.939222   -0.271897    0.769404
  C      2.213326   -0.665167    0.165821
  C      3.109809    0.537293   -0.021796
  H     -3.717445   -1.354755   -0.646573
  H     -1.973787   -1.648672   -0.669534
  H     -2.840519   -1.590812    0.874000
  H     -3.348394    0.841401    0.509738
  H     -2.504907    0.801854   -1.033655
  H     -1.215937    0.263062    1.704719
  H     -1.106104    1.772396    0.797685
  H      2.636201   -1.371996    0.882167
  H      2.014180   -1.183436   -0.775472
  H      2.673597    1.254001   -0.723054
  H      3.290301    1.038657    0.933555
  H      4.072844    0.206646   -0.423451

----------------------------
CARTESIAN COORDINATES (A.U.)
----------------------------
  NO LB      ZA    FRAG     MASS         X           Y           Z
   0 C     6.0000    0    12.011   -5.252218   -2.160699   -0.234535
   1 C     6.0000    0    12.011   -4.777484    0.678429   -0.060563
   2 C     6.0000    0    12.011   -2.311338    1.294344    1.315398
   3 C     6.0000    0    12.011   -0.017419    0.400788   -0.106090
   4 O     8.0000    0    15.999    0.228978    0.518606   -2.397035
   5 O     8.0000    0    15.999    1.774873   -0.513811    1.453963
   6 C     6.0000    0    12.011    4.182579   -1.256983    0.313356
   7 C     6.0000    0    12.011    5.876688    1.015336   -0.041189
   8 H     1.0000    0     1.008   -7.024954   -2.560116   -1.221847
   9 H     1.0000    0     1.008   -3.729917   -3.115539   -1.265235
  10 H     1.0000    0     1.008   -5.367802   -3.006199    1.651620
  11 H     1.0000    0     1.008   -6.327548    1.590017    0.963265
  12 H     1.0000    0     1.008   -4.733588    1.515285   -1.953325
  13 H     1.0000    0     1.008   -2.297788    0.497114    3.221451
  14 H     1.0000    0     1.008   -2.090233    3.349344    1.507406
  15 H     1.0000    0     1.008    4.981698   -2.592696    1.667053
  16 H     1.0000    0     1.008    3.806248   -2.236370   -1.465430
  17 H     1.0000    0     1.008    5.052367    2.369719   -1.366374
  18 H     1.0000    0     1.008    6.217767    1.962777    1.764164
  19 H     1.0000    0     1.008    7.696560    0.390504   -0.800207

------------------------------------------------------------------------------
                   ___                                                        
                  /   \      - P O W E R E D   B Y -                         
                 /     \                                                     
                 |  |  |   _    _      __       _____    __    __             
                 |  |  |  | |  | |    /  \     |  _  \  |  |  /  |          
                  \  \/   | |  | |   /    \    | | | |  |  | /  /          
                 / \  \   | |__| |  /  /\  \   | |_| |  |  |/  /          
                |  |  |   |  __  | /  /__\  \  |    /   |      \           
                |  |  |   | |  | | |   __   |  |    \   |  |\   \          
                \     /   | |  | | |  |  |  |  | |\  \  |  | \   \       
                 \___/    |_|  |_| |__|  |__|  |_| \__\ |__|  \__/        
                                                                              
                      - O R C A' S   B I G   F R I E N D -                    
                                      &                                       
                       - I N T E G R A L  F E E D E R -                       
                                                                              
 v1 FN, 2020, v2 2021, v3 2022-2024                                           
------------------------------------------------------------------------------


----------------------
SHARK INTEGRAL PACKAGE
----------------------

Number of atoms                             ...     20
Number of basis functions                   ...    222
Number of shells                            ...    110
Maximum angular momentum                    ...      2
Integral batch strategy                     ... SHARK/LIBINT Hybrid
RI-J (if used) integral strategy            ... SPLIT-RIJ (Revised 2003 algorithm where possible)
Printlevel                                  ...      1
Contraction scheme used                     ... SEGMENTED contraction
Prescreening option                         ... SCHWARTZ
   Thresh                                   ... 3.000e-11
   Tcut                                     ... 1.000e-12
   Tpresel                                  ... 1.000e-12 
Coulomb Range Separation                    ... NOT USED
Exchange Range Separation                   ... NOT USED
Multipole approximations                    ... NOT USED
Finite Nucleus Model                        ... NOT USED
CABS basis                                  ... NOT available
Auxiliary Coulomb fitting basis             ... AVAILABLE
   # of basis functions in Aux-J            ...    524
   # of shells in Aux-J                     ...    180
   Maximum angular momentum in Aux-J        ...      4
Auxiliary J/K fitting basis                 ... NOT available
Auxiliary Correlation fitting basis         ... NOT available
Auxiliary 'external' fitting basis          ... NOT available

Checking pre-screening integrals            ... done (  0.0 sec) Dimension = 110
Check shell pair data                       ... done (  0.0 sec)
Shell pair information
Shell pair cut-off parameter TPreSel        ...   1.0e-12
Total number of shell pairs                 ...      6105
Shell pairs after pre-screening             ...      5366
Total number of primitive shell pairs       ...     21533
Primitive shell pairs kept                  ...     13479
          la=0 lb=0:   1799 shell pairs
          la=1 lb=0:   2019 shell pairs
          la=1 lb=1:    590 shell pairs
          la=2 lb=0:    579 shell pairs
          la=2 lb=1:    327 shell pairs
          la=2 lb=2:     52 shell pairs

Calculating one electron integrals          ... done (  0.0 sec)
Calculating RI/J V-Matrix + Cholesky decomp.... done (  0.1 sec)
Calculating Nuclear repulsion               ... done (  0.0 sec) ENN=    393.040879903177 Eh

Diagonalization of the overlap matrix:
Smallest eigenvalue                        ... 1.700e-04
Time for diagonalization                   ...    0.010 sec
Threshold for overlap eigenvalues          ... 1.000e-07
Number of eigenvalues below threshold      ... 0
Time for construction of square roots      ...    0.022 sec
Total time needed                          ...    0.045 sec

-------------------
DFT GRID GENERATION
-------------------

General Integration Accuracy     IntAcc      ... 4.388
Radial Grid Type                 RadialGrid  ... OptM3 with GC (2021)
Angular Grid (max. ang.)         AngularGrid ... 4 (Lebedev-302)
Angular grid pruning method      GridPruning ... 4 (adaptive)
Weight generation scheme         WeightScheme... mBecke (2022)
Basis function cutoff            BFCut       ... 1.0000e-11
Integration weight cutoff        WCut        ... 1.0000e-14
Partially contracted basis set               ... off
Rotationally invariant grid construction     ... off
Angular grids for H and He will be reduced by one unit
Diffuse basis detected: some atoms will have their outermost
                        angular grid increased by 1.

Total number of grid points                  ...    87385
Total number of batches                      ...     1376
Average number of points per batch           ...       63
Average number of grid points per atom       ...     4369
Initializing property integral containers    ... done (  0.0 sec)

SHARK setup successfully completed in   1.4 seconds

Maximum memory used throughout the entire STARTUP-calculation: 39.4 MB
Occupation numbers will be reassigned to an Aufbau configuration
             **** ENERGY FILE WAS UPDATED (xtb_opt.en.tmp) ****
Finished Guess after   0.3 sec
Maximum memory used throughout the entire GUESS-calculation: 15.2 MB
--------------------
CPCM SOLVATION MODEL
--------------------
CPCM parameters:
  Epsilon                                         ...      78.3550
  Refrac                                          ...       1.3328
  Rsolv                                           ...       1.3000
  Surface type                                    ... GAUSSIAN VDW
  Discretization scheme                           ... Constant charge density
    Threshold for H atoms                         ...       5.0000 (charges/Ang^2)
    Threshold for non-H atoms                     ...       5.0000 (charges/Ang^2)
  Epsilon function type                           ...         CPCM
Solvent:                                          ... WATER
SMD-CDS solvent descriptors:
  Soln                                            ...       1.3328
  Soln25                                          ...       1.3323
  Sola                                            ...       0.0000
  Solb                                            ...       0.0000
  Solg                                            ...       0.0000
  Solc                                            ...       0.0000
  Solh                                            ...       0.0000
Radii:
  Scheme                                          ... Element-dependent radii
  Radius for C  used is    3.4960 Bohr (=   1.8500 Ang.)
  Radius for O  used is    2.8724 Bohr (=   1.5200 Ang.)
  Radius for H  used is    2.2677 Bohr (=   1.2000 Ang.)
Calculating surface                               ...        done! (  0.0s)
Cavity surface points                             ...         1516
Cavity Volume                                     ...     887.6158
Cavity Surface-area                               ...     593.4173
Calculating surface distance matrix               ...        done! (  0.0s)
Performing Cholesky decomposition & store         ...        done! (  0.2s)
Overall time for CPCM initialization              ...                 0.3s

----------------------------------------D-I-I-S--------------------------------------------
Iteration    Energy (Eh)           Delta-E    RMSDP     MaxDP     DIISErr   Damp  Time(sec)
-------------------------------------------------------------------------------------------
               ***  Starting incremental Fock matrix formation  ***
                              *** Initializing SOSCF ***
---------------------------------------S-O-S-C-F--------------------------------------
Iteration    Energy (Eh)           Delta-E    RMSDP     MaxDP     MaxGrad    Time(sec)
--------------------------------------------------------------------------------------
    1    -386.2573838776347657     0.00e+00  4.20e-06  1.79e-04  2.82e-05     3.4
               *** Restarting incremental Fock matrix formation ***
    2    -386.2573838341448891     4.35e-08  7.36e-06  3.09e-04  6.32e-05     3.3
    3    -386.2573834209764527     4.13e-07  5.41e-06  2.12e-04  1.74e-04     2.7
    4    -386.2573839573811938    -5.36e-07  1.47e-06  5.81e-05  1.55e-05     2.7
                  *** Gradient check signals convergence ***

               *****************************************************
               *                     SUCCESS                       *
               *           SCF CONVERGED AFTER   4 CYCLES          *
               *****************************************************


SMD CDS free energy correction energy :                 4.80565     Kcal/mol
Total Energy after SMD CDS correction =              -386.249725669 Eh
             **** ENERGY FILE WAS UPDATED (xtb_opt.en.tmp) ****

----------------
TOTAL SCF ENERGY
----------------

Total Energy       :       -386.24972566915346 Eh          -10510.38937 eV

Components:
Nuclear Repulsion  :        393.04087990317669 Eh           10695.18607 eV
Electronic Energy  :       -779.28247158435875 Eh          -21205.35411 eV
One Electron Energy:      -1303.64283763159187 Eh          -35473.92507 eV
Two Electron Energy:        524.36036604723313 Eh           14268.57096 eV
CPCM Dielectric    :         -0.01579227619909 Eh              -0.42973 eV
SMD CDS (Gcds)     :          0.00765828822774 Eh               0.20839 eV

Virial components:
Potential Energy   :       -770.69469550413964 Eh          -20971.66884 eV
Kinetic Energy     :        384.44496983498613 Eh           10461.27947 eV
Virial Ratio       :          2.00469444517623

DFT components:
N(Alpha)           :       31.999979540870 electrons
N(Beta)            :       31.999979540870 electrons
N(Total)           :       63.999959081740 electrons
E(X)               :      -52.035924111957 Eh       
E(C)               :       -2.035743304993 Eh       
E(XC)              :      -54.071667416951 Eh       

CPCM Solvation Model Properties:
Surface-charge          :         -0.04741444633025
Corrected charge        :          0.00000000000000
Outlying charge corr.   :          0.00016923510286 Eh               0.00461 eV
Free-energy (cav+disp)  :          0.00765828822774 Eh               0.20839 eV

---------------
SCF CONVERGENCE
---------------

  Last Energy change         ...    5.3640e-07  Tolerance :   1.0000e-07
  Last MAX-Density change    ...    5.8088e-05  Tolerance :   1.0000e-07
  Last RMS-Density change    ...    1.4709e-06  Tolerance :   5.0000e-09
  Last DIIS Error            ...    2.4643e-04  Tolerance :   1.0000e-07
  Last Orbital Gradient      ...    1.5462e-05  Tolerance :   1.0000e-04
  Last Orbital Rotation      ...    5.2224e-05  Tolerance :   1.0000e-04


----------------
ORBITAL ENERGIES
----------------

  NO   OCC          E(Eh)            E(eV) 
   0   2.0000     -19.001259      -517.0505 
   1   2.0000     -18.944690      -515.5112 
   2   2.0000     -10.164710      -276.5958 
   3   2.0000     -10.084352      -274.4092 
   4   2.0000     -10.037764      -273.1414 
   5   2.0000     -10.028710      -272.8951 
   6   2.0000     -10.020538      -272.6727 
   7   2.0000     -10.014039      -272.4959 
   8   2.0000      -1.067992       -29.0615 
   9   2.0000      -0.983671       -26.7671 
  10   2.0000      -0.766366       -20.8539 
  11   2.0000      -0.731338       -19.9007 
  12   2.0000      -0.672282       -18.2937 
  13   2.0000      -0.614860       -16.7312 
  14   2.0000      -0.560402       -15.2493 
  15   2.0000      -0.514618       -14.0035 
  16   2.0000      -0.472862       -12.8672 
  17   2.0000      -0.457687       -12.4543 
  18   2.0000      -0.440330       -11.9820 
  19   2.0000      -0.419736       -11.4216 
  20   2.0000      -0.404028       -10.9941 
  21   2.0000      -0.384603       -10.4656 
  22   2.0000      -0.370211       -10.0740 
  23   2.0000      -0.358016        -9.7421 
  24   2.0000      -0.350534        -9.5385 
  25   2.0000      -0.337772        -9.1912 
  26   2.0000      -0.309702        -8.4274 
  27   2.0000      -0.307142        -8.3577 
  28   2.0000      -0.302714        -8.2373 
  29   2.0000      -0.300685        -8.1821 
  30   2.0000      -0.279472        -7.6048 
  31   2.0000      -0.252226        -6.8634 
  32   0.0000      -0.026637        -0.7248 
  33   0.0000       0.076470         2.0809 
  34   0.0000       0.089397         2.4326 
  35   0.0000       0.118008         3.2112 
  36   0.0000       0.126689         3.4474 
  37   0.0000       0.136491         3.7141 
  38   0.0000       0.139261         3.7895 
  39   0.0000       0.143013         3.8916 
  40   0.0000       0.150981         4.1084 
  41   0.0000       0.162908         4.4329 
  42   0.0000       0.175175         4.7667 
*Only the first 10 virtual orbitals were printed.
Total SCF time: 0 days 0 hours 0 min 12 sec 
Finished LeanSCF after  13.1 sec

Maximum memory used throughout the entire LEANSCF-calculation: 31.0 MB


-------------------------------------------------------------------------------
                          DFT DISPERSION CORRECTION                            
                                                                               
                                DFTD4 V3.4.0                                   
-------------------------------------------------------------------------------
-------------------------   ----------------
Dispersion correction           -0.005083924
-------------------------   ----------------

------------------   -----------------
gCP correction             0.011521201
------------------   -----------------

-------------------------   --------------------
FINAL SINGLE POINT ENERGY      -386.243288391507
-------------------------   --------------------

------------------------------------------------------------------------------
                         ORCA SCF GRADIENT CALCULATION
------------------------------------------------------------------------------

Nuc. rep. gradient        (SHARK) ... done (  0.0 sec)
HCore & Overlap gradient  (SHARK) ... done (  0.3 sec)
Split-RIJ-J gradient      (SHARK) ... done (  1.6 sec)
XC gradient                       ... done (  6.7 sec)
CPCM gradient                     ... done (  1.0 sec)
SMD gradient                      ... done (  0.0 sec)
Dispersion correction             ... done (  0.0 sec)

-------------------
DISPERSION GRADIENT
-------------------

   1   C   :   -0.000075333   -0.000045721   -0.000006261
   2   C   :   -0.000067053    0.000018013   -0.000002054
   3   C   :   -0.000054301    0.000038619    0.000033711
   4   C   :    0.000006204    0.000012640   -0.000003796
   5   O   :    0.000011795    0.000016686   -0.000069265
   6   O   :    0.000055365   -0.000012958    0.000027449
   7   C   :    0.000073947   -0.000027630   -0.000000282
   8   C   :    0.000080802    0.000012845   -0.000003392
   9   H   :   -0.000028798   -0.000018789   -0.000007459
  10   H   :   -0.000033495   -0.000023582   -0.000010668
  11   H   :   -0.000032362   -0.000023355    0.000005991
  12   H   :   -0.000026743    0.000008563    0.000004540
  13   H   :   -0.000022674    0.000008307   -0.000010171
  14   H   :   -0.000016632    0.000010229    0.000027208
  15   H   :   -0.000016789    0.000031903    0.000013152
  16   H   :    0.000025780   -0.000016037    0.000009524
  17   H   :    0.000027148   -0.000012084   -0.000005536
  18   H   :    0.000031924    0.000009893   -0.000007359
  19   H   :    0.000032894    0.000008772    0.000007266
  20   H   :    0.000028322    0.000003684   -0.000002597

Difference to translation invariance:
           :    0.0000000000    0.0000000000    0.0000000000

Difference to rotation invariance:
           :   -0.0000000000   -0.0000000000    0.0000000000

Norm of the Dispersion gradient    ...    0.0002333188
RMS gradient                       ...    0.0000301213
MAX gradient                       ...    0.0000808023
gCP correction                   ... done

------------------
CARTESIAN GRADIENT
------------------

   1   C   :    0.000010848   -0.000025847    0.000041586
   2   C   :   -0.000065019    0.000062893    0.000036761
   3   C   :    0.000056007    0.000082267    0.000095988
   4   C   :    0.000248421   -0.000261770    0.000794884
   5   O   :    0.000029862    0.000094814   -0.000524862
   6   O   :   -0.000010050    0.000067345   -0.000460226
   7   C   :   -0.000476898    0.000003339    0.000255826
   8   C   :    0.000175716    0.000036151    0.000012694
   9   H   :   -0.000040840   -0.000009584   -0.000047990
  10   H   :    0.000051961   -0.000057759   -0.000015834
  11   H   :   -0.000040688   -0.000043513    0.000041078
  12   H   :    0.000024817    0.000004784    0.000011750
  13   H   :   -0.000005799    0.000025690   -0.000035385
  14   H   :    0.000071173    0.000059840   -0.000023462
  15   H   :   -0.000023996   -0.000003987   -0.000099306
  16   H   :    0.000006919   -0.000064526   -0.000015134
  17   H   :    0.000074676   -0.000052267   -0.000112560
  18   H   :   -0.000078043    0.000045878   -0.000003011
  19   H   :   -0.000012083    0.000002569    0.000077577
  20   H   :    0.000003015    0.000033682   -0.000030372

Difference to translation invariance:
           :    0.0000000000   -0.0000000000    0.0000000000

Difference to rotation invariance:
           :    0.0000807609    0.0000984315   -0.0003220141

Norm of the Cartesian gradient     ...    0.0013038802
RMS gradient                       ...    0.0001683302
MAX gradient                       ...    0.0007948838

-------
TIMINGS
-------

Total SCF gradient time     ....       10.727 sec

Densities                   ....       0.001 sec  (  0.0%)
One electron gradient       ....       0.305 sec  (  2.8%)
RI-J Coulomb gradient       ....       1.592 sec  ( 14.8%)
XC gradient                 ....       6.651 sec  ( 62.0%)
CPCM gradient               ....       1.015 sec  (  9.5%)
   A-Matrix (El+Nuc)        ....       0.085 sec  (  0.8%)
   Potential                ....       0.929 sec  (  8.7%)
SMD gradient                ....       0.013 sec  (  0.1%)

Maximum memory used throughout the entire SCFGRAD-calculation: 35.4 MB

------------------------------------------------------------------------------
                              ORCA PROPERTY CALCULATIONS
------------------------------------------------------------------------------

GBWName                                 ... xtb_opt.gbw
Number of atoms                         ...     20
Number of basis functions               ...    222
Max core memory                         ...   1024 MB

Electric properties:
Dipole moment                           ... YES
Quadrupole moment                       ...  NO
Static polarizability (Dipole/Dipole)   ...  NO
Static polarizability (Dipole/Quad.)    ...  NO
Static polarizability (Quad./Quad.)     ...  NO
Static polarizability (Velocity)        ...  NO

Atomic electric properties:
Dipole moment                           ...  NO
Quadrupole moment                       ...  NO
Static polarizability                   ...  NO

Choice of electric origin               ... Center of mass
Position of electric origin             ...     0.005133    -0.018249     0.016232

General magnetic properties:
Magnetizability                         ...  NO

EPR properties:
g-Tensor (aka g-matrix)                 ...  NO
Zero-Field splitting spin-orbit         ...  NO
Zero-field splitting spin-spin          ...  NO
Hyperfine couplings                     ...  NO (   0 nuclei)
Quadrupole couplings                    ...  NO (   0 nuclei)
Contact density                         ...  NO (   0 nuclei)

NMR properties:
Chemical shifts                         ...  NO (   0 nuclei)
Spin-rotation constants                 ...  NO (   0 nuclei)
Spin-spin couplings                     ...  NO (   0 nuclei,    0 pairs)

Choice of magnetic origin               ... GIAO
Position of magnetic origin             ...     0.000000     0.000000     0.000000

Properties with geometric perturbations:
SCF Hessian                             ...  NO
IR spectrum                             ...  NO
VCD spectrum                            ...  NO
X-ray spectroscopy properties:
SCF XES/XAS/RIXS spectra                ...  NO


-------------
DIPOLE MOMENT
-------------

Method             : SCF
Type of density    : Electron Density
Multiplicity       :   1
Irrep              :   0
Energy             :  -386.2497256691534631 Eh
Relativity type    : 
Basis              : AO
                                X                 Y                 Z
Electronic contribution:      2.188169154       0.733272492      -0.240353193
Nuclear contribution   :     -1.910068465      -0.802537853       1.237369408
                        -----------------------------------------
Total Dipole Moment    :      0.278100689      -0.069265361       0.997016215
                        -----------------------------------------
Magnitude (a.u.)       :      1.037390484
Magnitude (Debye)      :      2.636837057



--------------------
Rotational spectrum 
--------------------
 
Rotational constants in cm-1:             0.165185             0.032436             0.032205 
Rotational constants in MHz :          4952.134925           972.397425           965.491448 

Dipole components along the rotational axes: 
x,y,z [a.u.] :    -0.290023    -0.759403    -0.644494 
x,y,z [Debye]:    -0.737180    -1.930249    -1.638174 

 

Dipole moment calculation done in   0.0 sec 

Maximum memory used throughout the entire PROP-calculation: 14.0 MB

--------------------------------
SUGGESTED CITATIONS FOR THIS RUN
--------------------------------

Below you find a list of papers that are relevant to this ORCA run
We neither can nor want to force you to cite these papers, but we appreciate if you do
You receive ORCA, which is the product of decades of hard work by many enthusiastic individuals, for free
The only thing we kindly ask in return is that you cite our papers,
We deeply appreciate it, if you show your appreciation for ORCA by not just citing the generic ORCA reference.

Please note that relegating all ORCA citations to the supporting information does *not* help us.
SI sections are not indexed - citations you put there will not count into any citation statistics
But we need these citations in order to attract the funding resources that allow us to do what we are doing

Therefore, if you are a happy ORCA user, please consider citing a few of the papers listed below in the main body of your paper

In addition to the list printed below, the program has created the file xtb_opt.bibtex that contains the list in bibtex format
You can import this file easily into all common literature databanks and citation aid programs


List of essential papers. We consider these as the minimum necessary citations

  1. Neese,F.
     Software update: the ORCA program system, version 5.0
     WIRES Comput. Molec. Sci., 2022 12(1)e1606
     doi.org/10.1002/wcms.1606
  2. Grimme,S.; Hansen,A.; Ehlert,S.; Mewes,J.
     r2SCAN-3c: A 'Swiss army knife' composite electronic-structure method
     J. Chem. Phys., 2021 154 064103
     doi.org/10.1063/5.0040021

List of papers to cite with high priority. The work reported in these papers was absolutely
necessary for this run to complete.
Our perspective: the developers of density functionals and basis sets usually get cited in chemistry papers
Good! But without the algorithms to do something with them, the functionals or basis sets would not do anything.
Hence, in our opinion, the algorithm design and method developments papers are equally worthy of getting cited

  1. Neese,F.
     An improvement of the resolution of the identity approximation for the formation of the Coulomb matrix
     J. Comp. Chem., 2003 24(14)1740-1747
     doi.org/10.1002/jcc.10318
  2. Garcia-Rates,M.; Neese,F.
     Effect of the Solute Cavity on the Solvation Energy and its Derivatives within the Framework of the Gaussian Charge Scheme
     J. Comput. Chem., 2020 41 922-939
     doi.org/10.1002/jcc.26139
  3. Neese,F.
     The SHARK Integral Generation and Digestion System
     J. Comp. Chem., 2022  1-16
     doi.org/10.1002/jcc.26942
  4. Lehtola,S.; Steigemann,C.; Oliveira,M.; Marques,M.
     Recent developments in Libxc - A comprehensive library of functionals for density functional theory
     Software X, 2018 7 
     doi.org/10.1016/j.softx.2017.11.002
  5. Caldeweyher,E.; Bannwarth,C.; Grimme,S.
     Extension of the D3 dispersion coefficient model
     J. Chem. Phys., 2017 147 034112-XXXX
     doi.org/10.1063/1.4993215
  6. Caldeweyher,E.; Ehlert,S.; Hansen,A.; Neugebauer,H.; Spicher,S.; Bannwarth,C.; Grimme,S.
     A generally applicable atomic-charge dependent London dispersion correction
     J. Chem. Phys., 2019 150 154122-XXXX
     doi.org/10.1063/1.5090222
  7. Caldeweyher,E.; Mewes,J.; Ehlert,S.; Grimme,S.
     Extension and evaluation of the D4 London-dispersion model for periodic systems
     Phys. Chem. Chem. Phys., 2020 22(16)8499-8512
     doi.org/10.1039/D0CP00502A

List of suggested additional citations. These are papers that are important in the 'surrounding' of 
of this run, or papers that preceded the highly important papers. If you like your results we are grateful for a citation.

  1. Neese,F.
     The ORCA program system
     WIRES Comput. Molec. Sci., 2012 2(1)73-78
     doi.org/10.1002/wcms.81
  2. Neese,F.
     Software update: the ORCA program system, version 4.0
     WIRES Comput. Molec. Sci., 2018 8(1)1-6
     doi.org/10.1002/wcms.1327
  3. Neese,F.; Wennmohs,F.; Becker,U.; Riplinger,C.
     The ORCA quantum chemistry program package
     J. Chem. Phys., 2020 152 Art. No. L224108
     doi.org/10.1063/5.0004608

List of optional additional citations

  1. Neese,F.
     Approximate second-order SCF convergence for spin unrestricted wavefunctions
     Chem. Phys. Lett., 2000 325(1-3)93-98
     doi.org/10.1016/s0009-2614(00)00662-x

Timings for individual modules:

Sum of individual times          ...       25.930 sec (=   0.432 min)
Startup calculation              ...        1.474 sec (=   0.025 min)   5.7 %
SCF iterations                   ...       13.457 sec (=   0.224 min)  51.9 %
Property calculations            ...        0.157 sec (=   0.003 min)   0.6 %
SCF Gradient evaluation          ...       10.842 sec (=   0.181 min)  41.8 %
                             ****ORCA TERMINATED NORMALLY****
TOTAL RUN TIME: 0 days 0 hours 0 minutes 26 seconds 994 msec
  ------------------------------------------------------------------------
          * successful ORCA run, taking over control again...

         :::::::::::::::::::::::::::::::::::::::::::::::::::::
         ::                  ORCA SUMMARY                   ::
         :::::::::::::::::::::::::::::::::::::::::::::::::::::
         :: total energy            -386.243288391507 Eh    ::
         :: gradient norm              0.001303880244 Eh/a0 ::
         :: HOMO-LUMO gap              0.000000000000 eV    ::
         :::::::::::::::::::::::::::::::::::::::::::::::::::::

      ----------------------------------------------------------- 
     |                       L-ANC optimizer                     |
      ----------------------------------------------------------- 
          low memory version by Sebastian Ehlert

          ...................................................
          :                      SETUP                      :
          :.................................................:
          :   energy convergence        0.5000000E-05 Eh    :
          :   grad. convergence         0.1000000E-02 Eh/a0 :
          :   optimization log               true           :
          :   writing optlog all                1     steps :
          :   Hessian reset                     8     steps :
          :   maximium step len.        1.0000000     a0    :
          :   LBFGS images                      8           :
          ...................................................
 * calculating model hessian...
Using Lindh-Hessian (1995)
 Shifting diagonal of input Hessian by   1.000000000000000E-002
 Lowest  eigenvalues of input Hessian
    0.000000    0.000000    0.000000    0.000000    0.000000    0.000000
    0.011264    0.011824    0.014586    0.014734    0.018125    0.020040
    0.025476    0.026795    0.038606    0.040945    0.051140    0.054779
 Highest eigenvalues
    1.204634    1.234731    1.261086    1.294519    1.726304    2.266044
 

........................................................................
.............................. CYCLE    1 ..............................
........................................................................
                         * ORCA takes the control...
  ------------------------------------------------------------------------

                                 *****************
                                 * O   R   C   A *
                                 *****************

                                            #,                                       
                                            ###                                      
                                            ####                                     
                                            #####                                    
                                            ######                                   
                                           ########,                                 
                                     ,,################,,,,,                         
                               ,,#################################,,                 
                          ,,##########################################,,             
                       ,#########################################, ''#####,          
                    ,#############################################,,   '####,        
                  ,##################################################,,,,####,       
                ,###########''''           ''''###############################       
              ,#####''   ,,,,##########,,,,          '''####'''          '####       
            ,##' ,,,,###########################,,,                        '##       
           ' ,,###''''                  '''############,,,                           
         ,,##''                                '''############,,,,        ,,,,,,###''
      ,#''                                            '''#######################'''  
     '                                                          ''''####''''         
             ,#######,   #######,   ,#######,      ##                                
            ,#'     '#,  ##    ##  ,#'     '#,    #''#        ,####,   ,####,        
            ##       ##  ##   ,#'  ##            #'  '#       #'       #'  '#        
            ##       ##  #######   ##           ,######,      #####,   #    #        
            '#,     ,#'  ##    ##  '#,     ,#' ,#      #,     #,   #   #,  ,#        
             '#######'   ##     ##  '#######'  #'      '#     '####' # '####'        



                #########################################################
                #                        -***-                          #
                #          Department of theory and spectroscopy        #
                #                                                       #
                #                      Frank Neese                      #
                #                                                       #
                #     Directorship, Architecture, Infrastructure        #
                #                    SHARK, DRIVERS                     #
                #        Core code/Algorithms in most modules           #
                #                                                       #
                #        Max Planck Institute fuer Kohlenforschung      #
                #                Kaiser Wilhelm Platz 1                 #
                #                 D-45470 Muelheim/Ruhr                 #
                #                      Germany                          #
                #                                                       #
                #                  All rights reserved                  #
                #                        -***-                          #
                #########################################################


                         Program Version 6.0.0  -   RELEASE  -


 With contributions from (in alphabetic order):
   Daniel Aravena         : Magnetic Suceptibility
   Michael Atanasov       : Ab Initio Ligand Field Theory (pilot matlab implementation)
   Alexander A. Auer      : GIAO ZORA, VPT2 properties, NMR spectrum
   Ute Becker             : All parallelization in ORCA, NUMFREQ, NUMCALC
   Giovanni Bistoni       : ED, misc. LED, open-shell LED, HFLD
   Martin Brehm           : Molecular dynamics
   Dmytro Bykov           : pre 5.0 version of the SCF Hessian
   Marcos Casanova-Páez   : Triplet and SCS-CIS(D). UHF-(DLPNO)-IP/EA/STEOM-CCSD. UHF-CVS-IP/STEOM-CCSD
   Vijay G. Chilkuri      : MRCI spin determinant printing, contributions to CSF-ICE
   Pauline Colinet        : FMM embedding
   Dipayan Datta          : RHF DLPNO-CCSD density
   Achintya Kumar Dutta   : EOM-CC, STEOM-CC
   Nicolas Foglia         : Exact transition moments, OPA infrastructure, MCD improvements
   Dmitry Ganyushin       : Spin-Orbit,Spin-Spin,Magnetic field MRCI
   Miquel Garcia          : C-PCM and meta-GGA Hessian, CCSD/C-PCM, Gaussian charge scheme
   Tiago L. C. Gouveia    : GS-ROHF, GS-ROCIS
   Yang Guo               : DLPNO-NEVPT2, F12-NEVPT2, CIM, IAO-localization
   Andreas Hansen         : Spin unrestricted coupled pair/coupled cluster methods
   Ingolf Harden          : AUTO-CI MPn and infrastructure 
   Benjamin Helmich-Paris : MC-RPA, TRAH-(SCF,CASSCF), AVAS, COSX integrals, SCF dyn. polar.
   Lee Huntington         : MR-EOM, pCC
   Robert Izsak           : Overlap fitted RIJCOSX, COSX-SCS-MP3, EOM
   Riya Kayal             : Wick's Theorem for AUTO-CI, AUTO-CI UHF-CCSDT
   Emily Kempfer          : AUTO-CI, RHF CISDT and CCSDT
   Christian Kollmar      : KDIIS, OOCD, Brueckner-CCSD(T), CCSD density, CASPT2, CASPT2-K, improved NEVPT2
   Axel Koslowski         : Symmetry handling
   Simone Kossmann        : Meta GGA functionals, TD-DFT gradient, OOMP2, (MP2 Hessian; deprecated post 5.0)
   Lucas Lang             : DCDCAS
   Marvin Lechner         : AUTO-CI (C++ implementation), FIC-MRCC
   Spencer Leger          : CASSCF response
   Dagmar Lenk            : GEPOL surface, SMD, ORCA-2-JSON
   Dimitrios Liakos       : Extrapolation schemes; Compound Job, initial MDCI parallelization
   Dimitrios Manganas     : Further ROCIS development; embedding schemes. LFT, Crystal Embedding
   Dimitrios Pantazis     : SARC Basis sets
   Anastasios Papadopoulos: AUTO-CI, single reference methods and gradients
   Taras Petrenko         : pre 6.0 DFT Hessian and TD-DFT gradient, (ASA, deprecated), ECA, 1-Electron XAS/XES, NRVS
   Peter Pinski           : DLPNO-MP2, DLPNO-MP2 Gradient
   Christoph Reimann      : Effective Core Potentials
   Marius Retegan         : Local ZFS, SOC
   Christoph Riplinger    : Optimizer, TS searches, QM/MM, DLPNO-CCSD(T), (RO)-DLPNO pert. Triples
   Michael Roemelt        : Original ROCIS implementation
   Masaaki Saitow         : Open-shell DLPNO-CCSD energy and density
   Barbara Sandhoefer     : DKH picture change effects
   Kantharuban Sivalingam : CASSCF convergence/infrastructure, NEVPT2 and variants, FIC-MRCI
   Bernardo de Souza      : ESD, SOC TD-DFT
   Georgi Stoychev        : AutoAux, RI-MP2 NMR, DLPNO-MP2 response, X2C
   Van Anh Tran           : RI-MP2 g-tensors
   Willem Van den Heuvel  : Paramagnetic NMR
   Zikuan Wang            : NOTCH, Electric field optimization 
   Frank Wennmohs         : Technical directorship and infrastructure
   Hang Xu                : AUTO-CI-Response properties 


 We gratefully acknowledge several colleagues who have allowed us to
 interface, adapt or use parts of their codes:
   Stefan Grimme, W. Hujo, H. Kruse, P. Pracht,  : VdW corrections, initial TS optimization,
                  C. Bannwarth, S. Ehlert,         DFT functionals, gCP, sTDA/sTD-DF
                  L. Wittmann, M. Mueller
   Ed Valeev, F. Pavosevic, A. Kumar             : LibInt (2-el integral package), F12 methods
   Garnet Chan, S. Sharma, J. Yang, R. Olivares  : DMRG
   Ulf Ekstrom                                   : XCFun DFT Library
   Mihaly Kallay                                 : mrcc  (arbitrary order and MRCC methods)
   Frank Weinhold                                : gennbo (NPA and NBO analysis)
   Simon Mueller                                 : openCOSMO-RS
   Christopher J. Cramer and Donald G. Truhlar   : smd solvation model
   Lars Goerigk                                  : TD-DFT with DH, B97 family of functionals
   V. Asgeirsson, H. Jonsson                     : NEB implementation
   FAccTs GmbH                                   : IRC, NEB, NEB-TS, DLPNO-Multilevel, CI-OPT
                                                   MM, QMMM, 2- and 3-layer-ONIOM, Crystal-QMMM,
                                                   LR-CPCM, SF, NACMEs, symmetry and pop. for TD-DFT,
                                                   nearIR, NL-DFT gradient (VV10), updates on ESD,
                                                   ML-optimized integration grids, MBIS, APM,
                                                   GOAT, DOCKER, SOLVATOR, interface openCOSMO-RS
   S Lehtola, MJT Oliveira, MAL Marques          : LibXC Library
   Liviu Ungur et al                             : ANISO software


 Your calculation uses the libint2 library for the computation of 2-el integrals
 For citations please refer to: http://libint.valeyev.net

 Your ORCA version has been built with support for libXC version: 6.2.2
 For citations please refer to: https://libxc.gitlab.io

 This ORCA versions uses:
   CBLAS   interface :  Fast vector & matrix operations
   LAPACKE interface :  Fast linear algebra routines
   SCALAPACK package :  Parallel linear algebra routines
   Shared memory     :  Shared parallel matrices
   BLAS/LAPACK       :  OpenBLAS 0.3.27  USE64BITINT DYNAMIC_ARCH NO_AFFINITY SkylakeX SINGLE_THREADED
        Core in use  :  SkylakeX
   Copyright (c) 2011-2014, The OpenBLAS Project




***************************************
The coordinates will be read from file: xtb_opt.xyz
***************************************


Your calculation utilizes the geometrical counterpoise correction gCP
Please cite in your paper:
H.Kruse, S. Grimme J.Chem.Phys., 136, (2012), 154101 
   

Your calculation utilizes the atom-pairwise dispersion correction
based on EEQ partial charges (D4)


Your calculation utilizes the SMD solvation module
Please cite in your paper:
A.V. Marenich, C.J. Cramer, D.G. Truhlar J. Phys. Chem. B, 113, (2009), 6378 

================================================================================

----- Orbital basis set information -----
Your calculation utilizes the basis: def2-mTZVPP
   Stefan Grimme, Andreas Hansen, Sebastian Ehlert, and Jan-Michael Mewes 
   J. Chem. Phys. 154, 064103 (2021). DOI: 10.1063/5.0040021

----- AuxJ basis set information -----
Your calculation utilizes the auxiliary basis: def2/J
   F. Weigend, Phys. Chem. Chem. Phys. 8, 1057 (2006).

================================================================================
                                        WARNINGS
                       Please study these warnings very carefully!
================================================================================

WARNING: Old DensityContainer found on disk!
         Will remove this file - 
         If you want to keep old densities, please start your calculation with a different basename. 

Using LibXC functional ID 497 : Re-regularized SCAN exchange by Furness et al
[ 1]  J. W. Furness, A. D. Kaplan, J. Ning, J. P. Perdew, and J. Sun.,  J. Phys. Chem. Lett. 11, 8208-8215 (2020)
[ 2]  J. W. Furness, A. D. Kaplan, J. Ning, J. P. Perdew, and J. Sun.,  J. Phys. Chem. Lett. 11, 9248-9248 (2020)
Using LibXC functional ID 498 : Re-regularized SCAN correlation by Furness et al
[ 1]  J. W. Furness, A. D. Kaplan, J. Ning, J. P. Perdew, and J. Sun.,  J. Phys. Chem. Lett. 11, 8208-8215 (2020)
[ 2]  J. W. Furness, A. D. Kaplan, J. Ning, J. P. Perdew, and J. Sun.,  J. Phys. Chem. Lett. 11, 9248-9248 (2020)
Using LibXC functional ID 497 : Re-regularized SCAN exchange by Furness et al
[ 1]  J. W. Furness, A. D. Kaplan, J. Ning, J. P. Perdew, and J. Sun.,  J. Phys. Chem. Lett. 11, 8208-8215 (2020)
[ 2]  J. W. Furness, A. D. Kaplan, J. Ning, J. P. Perdew, and J. Sun.,  J. Phys. Chem. Lett. 11, 9248-9248 (2020)
Using LibXC functional ID 498 : Re-regularized SCAN correlation by Furness et al
[ 1]  J. W. Furness, A. D. Kaplan, J. Ning, J. P. Perdew, and J. Sun.,  J. Phys. Chem. Lett. 11, 8208-8215 (2020)
[ 2]  J. W. Furness, A. D. Kaplan, J. Ning, J. P. Perdew, and J. Sun.,  J. Phys. Chem. Lett. 11, 9248-9248 (2020)

================================================================================
                                       INPUT FILE
================================================================================
NAME = xtb_opt.inp
|  1> ! r2scan-3c def2/J RI DEFGRID2 scfconv7 ENGRAD tightSCF miniprint
|  2> %cpcm
|  3>     smd true
|  4>     smdsolvent "water"
|  5> end
|  6> * xyzfile 0 1 xtb_opt.xyz
|  7> 
|  8>                          ****END OF INPUT****
================================================================================

                     *******************************
                     * Energy+Gradient Calculation *
                     *******************************

---------------------------------
CARTESIAN COORDINATES (ANGSTROEM)
---------------------------------
  C     -2.779505   -1.143030   -0.124959
  C     -2.528260    0.359100   -0.032505
  C     -1.223742    0.684132    0.696643
  C     -0.009225    0.212483   -0.055275
  O      0.121354    0.274101   -1.267156
  O      0.939634   -0.270895    0.770933
  C      2.213787   -0.664595    0.166498
  C      3.110145    0.537243   -0.023039
  H     -3.717926   -1.354433   -0.646561
  H     -1.974248   -1.647839   -0.670989
  H     -2.839622   -1.590421    0.873132
  H     -3.348786    0.841240    0.509154
  H     -2.504567    0.802308   -1.033842
  H     -1.217673    0.260809    1.704757
  H     -1.106627    1.771434    0.800318
  H      2.637027   -1.370536    0.883404
  H      2.013116   -1.183760   -0.773781
  H      2.674757    1.253100   -0.725465
  H      3.291028    1.039902    0.931435
  H      4.073076    0.205306   -0.423828

----------------------------
CARTESIAN COORDINATES (A.U.)
----------------------------
  NO LB      ZA    FRAG     MASS         X           Y           Z
   0 C     6.0000    0    12.011   -5.252502   -2.160014   -0.236138
   1 C     6.0000    0    12.011   -4.777719    0.678601   -0.061426
   2 C     6.0000    0    12.011   -2.312537    1.292822    1.316465
   3 C     6.0000    0    12.011   -0.017434    0.401535   -0.104454
   4 O     8.0000    0    15.999    0.229326    0.517976   -2.394579
   5 O     8.0000    0    15.999    1.775651   -0.511917    1.456852
   6 C     6.0000    0    12.011    4.183451   -1.255903    0.314636
   7 C     6.0000    0    12.011    5.877323    1.015243   -0.043538
   8 H     1.0000    0     1.008   -7.025862   -2.559507   -1.221822
   9 H     1.0000    0     1.008   -3.730788   -3.113964   -1.267986
  10 H     1.0000    0     1.008   -5.366108   -3.005459    1.649981
  11 H     1.0000    0     1.008   -6.328288    1.589714    0.962163
  12 H     1.0000    0     1.008   -4.732946    1.516143   -1.953679
  13 H     1.0000    0     1.008   -2.301069    0.492857    3.221524
  14 H     1.0000    0     1.008   -2.091222    3.347525    1.512382
  15 H     1.0000    0     1.008    4.983259   -2.589937    1.669392
  16 H     1.0000    0     1.008    3.804237   -2.236981   -1.462234
  17 H     1.0000    0     1.008    5.054557    2.368016   -1.370931
  18 H     1.0000    0     1.008    6.219142    1.965129    1.760158
  19 H     1.0000    0     1.008    7.696999    0.387972   -0.800919

------------------------------------------------------------------------------
                   ___                                                        
                  /   \      - P O W E R E D   B Y -                         
                 /     \                                                     
                 |  |  |   _    _      __       _____    __    __             
                 |  |  |  | |  | |    /  \     |  _  \  |  |  /  |          
                  \  \/   | |  | |   /    \    | | | |  |  | /  /          
                 / \  \   | |__| |  /  /\  \   | |_| |  |  |/  /          
                |  |  |   |  __  | /  /__\  \  |    /   |      \           
                |  |  |   | |  | | |   __   |  |    \   |  |\   \          
                \     /   | |  | | |  |  |  |  | |\  \  |  | \   \       
                 \___/    |_|  |_| |__|  |__|  |_| \__\ |__|  \__/        
                                                                              
                      - O R C A' S   B I G   F R I E N D -                    
                                      &                                       
                       - I N T E G R A L  F E E D E R -                       
                                                                              
 v1 FN, 2020, v2 2021, v3 2022-2024                                           
------------------------------------------------------------------------------


----------------------
SHARK INTEGRAL PACKAGE
----------------------

Number of atoms                             ...     20
Number of basis functions                   ...    222
Number of shells                            ...    110
Maximum angular momentum                    ...      2
Integral batch strategy                     ... SHARK/LIBINT Hybrid
RI-J (if used) integral strategy            ... SPLIT-RIJ (Revised 2003 algorithm where possible)
Printlevel                                  ...      1
Contraction scheme used                     ... SEGMENTED contraction
Prescreening option                         ... SCHWARTZ
   Thresh                                   ... 3.000e-11
   Tcut                                     ... 1.000e-12
   Tpresel                                  ... 1.000e-12 
Coulomb Range Separation                    ... NOT USED
Exchange Range Separation                   ... NOT USED
Multipole approximations                    ... NOT USED
Finite Nucleus Model                        ... NOT USED
CABS basis                                  ... NOT available
Auxiliary Coulomb fitting basis             ... AVAILABLE
   # of basis functions in Aux-J            ...    524
   # of shells in Aux-J                     ...    180
   Maximum angular momentum in Aux-J        ...      4
Auxiliary J/K fitting basis                 ... NOT available
Auxiliary Correlation fitting basis         ... NOT available
Auxiliary 'external' fitting basis          ... NOT available

Checking pre-screening integrals            ... done (  0.0 sec) Dimension = 110
Check shell pair data                       ... done (  0.0 sec)
Shell pair information
Shell pair cut-off parameter TPreSel        ...   1.0e-12
Total number of shell pairs                 ...      6105
Shell pairs after pre-screening             ...      5366
Total number of primitive shell pairs       ...     21533
Primitive shell pairs kept                  ...     13479
          la=0 lb=0:   1799 shell pairs
          la=1 lb=0:   2019 shell pairs
          la=1 lb=1:    590 shell pairs
          la=2 lb=0:    579 shell pairs
          la=2 lb=1:    327 shell pairs
          la=2 lb=2:     52 shell pairs

Calculating one electron integrals          ... done (  0.0 sec)
Calculating RI/J V-Matrix + Cholesky decomp.... done (  0.1 sec)
Calculating Nuclear repulsion               ... done (  0.0 sec) ENN=    393.042695816910 Eh

Diagonalization of the overlap matrix:
Smallest eigenvalue                        ... 1.698e-04
Time for diagonalization                   ...    0.008 sec
Threshold for overlap eigenvalues          ... 1.000e-07
Number of eigenvalues below threshold      ... 0
Time for construction of square roots      ...    0.021 sec
Total time needed                          ...    0.039 sec

-------------------
DFT GRID GENERATION
-------------------

General Integration Accuracy     IntAcc      ... 4.388
Radial Grid Type                 RadialGrid  ... OptM3 with GC (2021)
Angular Grid (max. ang.)         AngularGrid ... 4 (Lebedev-302)
Angular grid pruning method      GridPruning ... 4 (adaptive)
Weight generation scheme         WeightScheme... mBecke (2022)
Basis function cutoff            BFCut       ... 1.0000e-11
Integration weight cutoff        WCut        ... 1.0000e-14
Partially contracted basis set               ... off
Rotationally invariant grid construction     ... off
Angular grids for H and He will be reduced by one unit
Diffuse basis detected: some atoms will have their outermost
                        angular grid increased by 1.

Total number of grid points                  ...    87380
Total number of batches                      ...     1376
Average number of points per batch           ...       63
Average number of grid points per atom       ...     4369
Initializing property integral containers    ... done (  0.0 sec)

SHARK setup successfully completed in   1.3 seconds

Maximum memory used throughout the entire STARTUP-calculation: 39.4 MB
Occupation numbers will be reassigned to an Aufbau configuration
             **** ENERGY FILE WAS UPDATED (xtb_opt.en.tmp) ****
Finished Guess after   0.3 sec
Maximum memory used throughout the entire GUESS-calculation: 15.2 MB
--------------------
CPCM SOLVATION MODEL
--------------------
CPCM parameters:
  Epsilon                                         ...      78.3550
  Refrac                                          ...       1.3328
  Rsolv                                           ...       1.3000
  Surface type                                    ... GAUSSIAN VDW
  Discretization scheme                           ... Constant charge density
    Threshold for H atoms                         ...       5.0000 (charges/Ang^2)
    Threshold for non-H atoms                     ...       5.0000 (charges/Ang^2)
  Epsilon function type                           ...         CPCM
Solvent:                                          ... WATER
SMD-CDS solvent descriptors:
  Soln                                            ...       1.3328
  Soln25                                          ...       1.3323
  Sola                                            ...       0.0000
  Solb                                            ...       0.0000
  Solg                                            ...       0.0000
  Solc                                            ...       0.0000
  Solh                                            ...       0.0000
Radii:
  Scheme                                          ... Element-dependent radii
  Radius for C  used is    3.4960 Bohr (=   1.8500 Ang.)
  Radius for O  used is    2.8724 Bohr (=   1.5200 Ang.)
  Radius for H  used is    2.2677 Bohr (=   1.2000 Ang.)
Calculating surface                               ...        done! (  0.0s)
Cavity surface points                             ...         1513
Cavity Volume                                     ...     887.4872
Cavity Surface-area                               ...     593.3133
Calculating surface distance matrix               ...        done! (  0.0s)
Performing Cholesky decomposition & store         ...        done! (  0.1s)
Overall time for CPCM initialization              ...                 0.1s

----------------------------------------D-I-I-S--------------------------------------------
Iteration    Energy (Eh)           Delta-E    RMSDP     MaxDP     DIISErr   Damp  Time(sec)
-------------------------------------------------------------------------------------------
               ***  Starting incremental Fock matrix formation  ***
                              *** Initializing SOSCF ***
---------------------------------------S-O-S-C-F--------------------------------------
Iteration    Energy (Eh)           Delta-E    RMSDP     MaxDP     MaxGrad    Time(sec)
--------------------------------------------------------------------------------------
    1    -386.2573843068290671     0.00e+00  1.74e-05  3.35e-04  3.27e-05     3.4
               *** Restarting incremental Fock matrix formation ***
    2    -386.2573873685479384    -3.06e-06  1.17e-05  3.66e-04  1.28e-04     3.5
    3    -386.2573868545380265     5.14e-07  6.94e-06  2.41e-04  2.97e-04     2.8
    4    -386.2573877088233303    -8.54e-07  1.68e-06  3.19e-05  1.00e-05     2.8
                  *** Gradient check signals convergence ***

               *****************************************************
               *                     SUCCESS                       *
               *           SCF CONVERGED AFTER   4 CYCLES          *
               *****************************************************


SMD CDS free energy correction energy :                 4.80448     Kcal/mol
Total Energy after SMD CDS correction =              -386.249731289 Eh
             **** ENERGY FILE WAS UPDATED (xtb_opt.en.tmp) ****

----------------
TOTAL SCF ENERGY
----------------

Total Energy       :       -386.24973128859511 Eh          -10510.38953 eV

Components:
Nuclear Repulsion  :        393.04269581691017 Eh           10695.23549 eV
Electronic Energy  :       -779.28431224311123 Eh          -21205.40420 eV
One Electron Energy:      -1303.64645750607474 Eh          -35474.02357 eV
Two Electron Energy:        524.36214526296351 Eh           14268.61938 eV
CPCM Dielectric    :         -0.01577128262224 Eh              -0.42916 eV
SMD CDS (Gcds)     :          0.00765642022821 Eh               0.20834 eV

Virial components:
Potential Energy   :       -770.69805414803375 Eh          -20971.76024 eV
Kinetic Energy     :        384.44832285943863 Eh           10461.37071 eV
Virial Ratio       :          2.00468569719789

DFT components:
N(Alpha)           :       31.999979708369 electrons
N(Beta)            :       31.999979708369 electrons
N(Total)           :       63.999959416738 electrons
E(X)               :      -52.036339518560 Eh       
E(C)               :       -2.035761759722 Eh       
E(XC)              :      -54.072101278282 Eh       

CPCM Solvation Model Properties:
Surface-charge          :         -0.04741049933019
Corrected charge        :         -0.00000000000000
Outlying charge corr.   :          0.00016920982857 Eh               0.00460 eV
Free-energy (cav+disp)  :          0.00765642022821 Eh               0.20834 eV

---------------
SCF CONVERGENCE
---------------

  Last Energy change         ...    8.5429e-07  Tolerance :   1.0000e-07
  Last MAX-Density change    ...    3.1938e-05  Tolerance :   1.0000e-07
  Last RMS-Density change    ...    1.6850e-06  Tolerance :   5.0000e-09
  Last DIIS Error            ...    6.2195e-04  Tolerance :   1.0000e-07
  Last Orbital Gradient      ...    1.0046e-05  Tolerance :   1.0000e-04
  Last Orbital Rotation      ...    2.9588e-05  Tolerance :   1.0000e-04


----------------
ORBITAL ENERGIES
----------------

  NO   OCC          E(Eh)            E(eV) 
   0   2.0000     -19.001155      -517.0477 
   1   2.0000     -18.944813      -515.5146 
   2   2.0000     -10.164651      -276.5942 
   3   2.0000     -10.084307      -274.4079 
   4   2.0000     -10.037743      -273.1409 
   5   2.0000     -10.028681      -272.8943 
   6   2.0000     -10.020512      -272.6720 
   7   2.0000     -10.013986      -272.4944 
   8   2.0000      -1.067867       -29.0581 
   9   2.0000      -0.983755       -26.7693 
  10   2.0000      -0.766379       -20.8542 
  11   2.0000      -0.731350       -19.9011 
  12   2.0000      -0.672297       -18.2941 
  13   2.0000      -0.614759       -16.7284 
  14   2.0000      -0.560400       -15.2493 
  15   2.0000      -0.514539       -14.0013 
  16   2.0000      -0.472914       -12.8687 
  17   2.0000      -0.457605       -12.4521 
  18   2.0000      -0.440353       -11.9826 
  19   2.0000      -0.419813       -11.4237 
  20   2.0000      -0.403990       -10.9931 
  21   2.0000      -0.384633       -10.4664 
  22   2.0000      -0.370252       -10.0751 
  23   2.0000      -0.358028        -9.7424 
  24   2.0000      -0.350609        -9.5405 
  25   2.0000      -0.337738        -9.1903 
  26   2.0000      -0.309715        -8.4278 
  27   2.0000      -0.307154        -8.3581 
  28   2.0000      -0.302725        -8.2376 
  29   2.0000      -0.300698        -8.1824 
  30   2.0000      -0.279478        -7.6050 
  31   2.0000      -0.252276        -6.8648 
  32   0.0000      -0.026566        -0.7229 
  33   0.0000       0.076433         2.0798 
  34   0.0000       0.089298         2.4299 
  35   0.0000       0.118018         3.2114 
  36   0.0000       0.126734         3.4486 
  37   0.0000       0.136528         3.7151 
  38   0.0000       0.139240         3.7889 
  39   0.0000       0.143004         3.8913 
  40   0.0000       0.151040         4.1100 
  41   0.0000       0.162880         4.4322 
  42   0.0000       0.175216         4.7679 
*Only the first 10 virtual orbitals were printed.
Total SCF time: 0 days 0 hours 0 min 13 sec 
Finished LeanSCF after  13.3 sec

Maximum memory used throughout the entire LEANSCF-calculation: 30.9 MB


-------------------------------------------------------------------------------
                          DFT DISPERSION CORRECTION                            
                                                                               
                                DFTD4 V3.4.0                                   
-------------------------------------------------------------------------------
-------------------------   ----------------
Dispersion correction           -0.005083762
-------------------------   ----------------

------------------   -----------------
gCP correction             0.011523559
------------------   -----------------

[...]
  Last RMS-Density change    ...    7.2926e-07  Tolerance :   5.0000e-09
  Last DIIS Error            ...    2.0996e-05  Tolerance :   1.0000e-07
  Last Orbital Gradient      ...    4.8516e-06  Tolerance :   1.0000e-04
  Last Orbital Rotation      ...    1.0376e-05  Tolerance :   1.0000e-04


----------------
ORBITAL ENERGIES
----------------

  NO   OCC          E(Eh)            E(eV) 
   0   2.0000     -19.001142      -517.0474 
   1   2.0000     -18.944852      -515.5156 
   2   2.0000     -10.164630      -276.5936 
   3   2.0000     -10.084303      -274.4078 
   4   2.0000     -10.037733      -273.1406 
   5   2.0000     -10.028681      -272.8943 
   6   2.0000     -10.020510      -272.6719 
   7   2.0000     -10.013987      -272.4944 
   8   2.0000      -1.067862       -29.0580 
   9   2.0000      -0.983759       -26.7694 
  10   2.0000      -0.766376       -20.8541 
  11   2.0000      -0.731347       -19.9010 
  12   2.0000      -0.672294       -18.2940 
  13   2.0000      -0.614755       -16.7283 
  14   2.0000      -0.560398       -15.2492 
  15   2.0000      -0.514536       -14.0012 
  16   2.0000      -0.472914       -12.8686 
  17   2.0000      -0.457605       -12.4521 
  18   2.0000      -0.440352       -11.9826 
  19   2.0000      -0.419814       -11.4237 
  20   2.0000      -0.403987       -10.9930 
  21   2.0000      -0.384631       -10.4664 
  22   2.0000      -0.370250       -10.0750 
  23   2.0000      -0.358027        -9.7424 
  24   2.0000      -0.350610        -9.5406 
  25   2.0000      -0.337736        -9.1903 
  26   2.0000      -0.309714        -8.4277 
  27   2.0000      -0.307153        -8.3581 
  28   2.0000      -0.302722        -8.2375 
  29   2.0000      -0.300697        -8.1824 
  30   2.0000      -0.279478        -7.6050 
  31   2.0000      -0.252285        -6.8650 
  32   0.0000      -0.026564        -0.7228 
  33   0.0000       0.076434         2.0799 
  34   0.0000       0.089301         2.4300 
  35   0.0000       0.118019         3.2115 
  36   0.0000       0.126735         3.4486 
  37   0.0000       0.136529         3.7151 
  38   0.0000       0.139242         3.7890 
  39   0.0000       0.143006         3.8914 
  40   0.0000       0.151041         4.1100 
  41   0.0000       0.162881         4.4322 
  42   0.0000       0.175217         4.7679 
*Only the first 10 virtual orbitals were printed.
Total SCF time: 0 days 0 hours 0 min 7 sec 
Finished LeanSCF after   7.9 sec

Maximum memory used throughout the entire LEANSCF-calculation: 30.9 MB


-------------------------------------------------------------------------------
                          DFT DISPERSION CORRECTION                            
                                                                               
                                DFTD4 V3.4.0                                   
-------------------------------------------------------------------------------
-------------------------   ----------------
Dispersion correction           -0.005083762
-------------------------   ----------------

------------------   -----------------
gCP correction             0.011523559
------------------   -----------------

-------------------------   --------------------
FINAL SINGLE POINT ENERGY      -386.243291493146
-------------------------   --------------------

------------------------------------------------------------------------------
                         ORCA SCF GRADIENT CALCULATION
------------------------------------------------------------------------------

Nuc. rep. gradient        (SHARK) ... done (  0.0 sec)
HCore & Overlap gradient  (SHARK) ... done (  0.3 sec)
Split-RIJ-J gradient      (SHARK) ... done (  1.7 sec)
XC gradient                       ... done (  6.5 sec)
CPCM gradient                     ... done (  1.1 sec)
SMD gradient                      ... done (  0.0 sec)
Dispersion correction             ... done (  0.0 sec)

-------------------
DISPERSION GRADIENT
-------------------

   1   C   :   -0.000075306   -0.000045690   -0.000006290
   2   C   :   -0.000067045    0.000018009   -0.000002071
   3   C   :   -0.000054311    0.000038559    0.000033734
   4   C   :    0.000006184    0.000012655   -0.000003742
   5   O   :    0.000011807    0.000016658   -0.000069206
   6   O   :    0.000055399   -0.000012945    0.000027484
   7   C   :    0.000073895   -0.000027606   -0.000000231
   8   C   :    0.000080790    0.000012839   -0.000003442
   9   H   :   -0.000028795   -0.000018781   -0.000007473
  10   H   :   -0.000033479   -0.000023563   -0.000010700
  11   H   :   -0.000032363   -0.000023345    0.000005975
  12   H   :   -0.000026738    0.000008558    0.000004524
  13   H   :   -0.000022668    0.000008310   -0.000010182
  14   H   :   -0.000016632    0.000010195    0.000027186
  15   H   :   -0.000016775    0.000031888    0.000013194
  16   H   :    0.000025778   -0.000016013    0.000009530
  17   H   :    0.000027166   -0.000012080   -0.000005530
  18   H   :    0.000031901    0.000009897   -0.000007389
  19   H   :    0.000032881    0.000008783    0.000007241
  20   H   :    0.000028313    0.000003671   -0.000002610

Difference to translation invariance:
           :   -0.0000000000   -0.0000000000   -0.0000000000

Difference to rotation invariance:
           :   -0.0000000000   -0.0000000000   -0.0000000000

Norm of the Dispersion gradient    ...    0.0002332513
RMS gradient                       ...    0.0000301126
MAX gradient                       ...    0.0000807904
gCP correction                   ... done

------------------
CARTESIAN GRADIENT
------------------

   1   C   :   -0.000000819   -0.000001732    0.000018714
   2   C   :   -0.000012092   -0.000020790   -0.000010865
   3   C   :    0.000011313   -0.000021580   -0.000012551
   4   C   :    0.000190649   -0.000006729    0.000089732
   5   O   :   -0.000026343    0.000014923    0.000029645
   6   O   :   -0.000015219   -0.000033726   -0.000223708
   7   C   :   -0.000150051   -0.000016619    0.000062469
   8   C   :    0.000040237    0.000029812    0.000018498
   9   H   :    0.000015158    0.000007159   -0.000003856
  10   H   :    0.000004377    0.000009092    0.000030956
  11   H   :   -0.000018934    0.000009376    0.000002263
  12   H   :    0.000004022   -0.000010052    0.000022840
  13   H   :   -0.000011230   -0.000003562    0.000013540
  14   H   :    0.000017346    0.000050656    0.000014549
  15   H   :    0.000000313    0.000011768   -0.000073557
  16   H   :   -0.000015248   -0.000021868   -0.000019522
  17   H   :    0.000017287    0.000010049   -0.000016358
  18   H   :   -0.000019496    0.000010914    0.000044261
  19   H   :   -0.000007730   -0.000034733    0.000015761
  20   H   :   -0.000023540    0.000017642   -0.000002811

Difference to translation invariance:
           :    0.0000000000    0.0000000000   -0.0000000000

Difference to rotation invariance:
           :    0.0000738763    0.0000834796   -0.0003253189

Norm of the Cartesian gradient     ...    0.0003834068
RMS gradient                       ...    0.0000494976
MAX gradient                       ...    0.0002237080

-------
TIMINGS
-------

Total SCF gradient time     ....       10.663 sec

Densities                   ....       0.001 sec  (  0.0%)
One electron gradient       ....       0.323 sec  (  3.0%)
RI-J Coulomb gradient       ....       1.651 sec  ( 15.5%)
XC gradient                 ....       6.537 sec  ( 61.3%)
CPCM gradient               ....       1.100 sec  ( 10.3%)
   A-Matrix (El+Nuc)        ....       0.159 sec  (  1.5%)
   Potential                ....       0.941 sec  (  8.8%)
SMD gradient                ....       0.013 sec  (  0.1%)

Maximum memory used throughout the entire SCFGRAD-calculation: 35.4 MB

------------------------------------------------------------------------------
                              ORCA PROPERTY CALCULATIONS
------------------------------------------------------------------------------

GBWName                                 ... xtb_opt.gbw
Number of atoms                         ...     20
Number of basis functions               ...    222
Max core memory                         ...   1024 MB

Electric properties:
Dipole moment                           ... YES
Quadrupole moment                       ...  NO
Static polarizability (Dipole/Dipole)   ...  NO
Static polarizability (Dipole/Quad.)    ...  NO
Static polarizability (Quad./Quad.)     ...  NO
Static polarizability (Velocity)        ...  NO

Atomic electric properties:
Dipole moment                           ...  NO
Quadrupole moment                       ...  NO
Static polarizability                   ...  NO

Choice of electric origin               ... Center of mass
Position of electric origin             ...     0.005257    -0.017985     0.016843

General magnetic properties:
Magnetizability                         ...  NO

EPR properties:
g-Tensor (aka g-matrix)                 ...  NO
Zero-Field splitting spin-orbit         ...  NO
Zero-field splitting spin-spin          ...  NO
Hyperfine couplings                     ...  NO (   0 nuclei)
Quadrupole couplings                    ...  NO (   0 nuclei)
Contact density                         ...  NO (   0 nuclei)

NMR properties:
Chemical shifts                         ...  NO (   0 nuclei)
Spin-rotation constants                 ...  NO (   0 nuclei)
Spin-spin couplings                     ...  NO (   0 nuclei,    0 pairs)

Choice of magnetic origin               ... GIAO
Position of magnetic origin             ...     0.000000     0.000000     0.000000

Properties with geometric perturbations:
SCF Hessian                             ...  NO
IR spectrum                             ...  NO
VCD spectrum                            ...  NO
X-ray spectroscopy properties:
SCF XES/XAS/RIXS spectra                ...  NO


-------------
DIPOLE MOMENT
-------------

Method             : SCF
Type of density    : Electron Density
Multiplicity       :   1
Irrep              :   0
Energy             :  -386.2497312905651938 Eh
Relativity type    : 
Basis              : AO
                                X                 Y                 Z
Electronic contribution:      2.188555984       0.736488979      -0.236914955
Nuclear contribution   :     -1.911244506      -0.805265221       1.231520312
                        -----------------------------------------
Total Dipole Moment    :      0.277311478      -0.068776242       0.994605357
                        -----------------------------------------
Magnitude (a.u.)       :      1.034829283
Magnitude (Debye)      :      2.630327001



--------------------
Rotational spectrum 
--------------------
 
Rotational constants in cm-1:             0.165272             0.032429             0.032200 
Rotational constants in MHz :          4954.728193           972.201252           965.337560 

Dipole components along the rotational axes: 
x,y,z [a.u.] :    -0.289273     0.762309     0.637242 
x,y,z [Debye]:    -0.735273     1.937637     1.619740 

 

Dipole moment calculation done in   0.0 sec 

Maximum memory used throughout the entire PROP-calculation: 14.0 MB

--------------------------------
SUGGESTED CITATIONS FOR THIS RUN
--------------------------------

Below you find a list of papers that are relevant to this ORCA run
We neither can nor want to force you to cite these papers, but we appreciate if you do
You receive ORCA, which is the product of decades of hard work by many enthusiastic individuals, for free
The only thing we kindly ask in return is that you cite our papers,
We deeply appreciate it, if you show your appreciation for ORCA by not just citing the generic ORCA reference.

Please note that relegating all ORCA citations to the supporting information does *not* help us.
SI sections are not indexed - citations you put there will not count into any citation statistics
But we need these citations in order to attract the funding resources that allow us to do what we are doing

Therefore, if you are a happy ORCA user, please consider citing a few of the papers listed below in the main body of your paper

In addition to the list printed below, the program has created the file xtb_opt.bibtex that contains the list in bibtex format
You can import this file easily into all common literature databanks and citation aid programs


List of essential papers. We consider these as the minimum necessary citations

  1. Neese,F.
     Software update: the ORCA program system, version 5.0
     WIRES Comput. Molec. Sci., 2022 12(1)e1606
     doi.org/10.1002/wcms.1606
  2. Grimme,S.; Hansen,A.; Ehlert,S.; Mewes,J.
     r2SCAN-3c: A 'Swiss army knife' composite electronic-structure method
     J. Chem. Phys., 2021 154 064103
     doi.org/10.1063/5.0040021

List of papers to cite with high priority. The work reported in these papers was absolutely
necessary for this run to complete.
Our perspective: the developers of density functionals and basis sets usually get cited in chemistry papers
Good! But without the algorithms to do something with them, the functionals or basis sets would not do anything.
Hence, in our opinion, the algorithm design and method developments papers are equally worthy of getting cited

  1. Neese,F.
     An improvement of the resolution of the identity approximation for the formation of the Coulomb matrix
     J. Comp. Chem., 2003 24(14)1740-1747
     doi.org/10.1002/jcc.10318
  2. Garcia-Rates,M.; Neese,F.
     Effect of the Solute Cavity on the Solvation Energy and its Derivatives within the Framework of the Gaussian Charge Scheme
     J. Comput. Chem., 2020 41 922-939
     doi.org/10.1002/jcc.26139
  3. Neese,F.
     The SHARK Integral Generation and Digestion System
     J. Comp. Chem., 2022  1-16
     doi.org/10.1002/jcc.26942
  4. Lehtola,S.; Steigemann,C.; Oliveira,M.; Marques,M.
     Recent developments in Libxc - A comprehensive library of functionals for density functional theory
     Software X, 2018 7 
     doi.org/10.1016/j.softx.2017.11.002
  5. Caldeweyher,E.; Bannwarth,C.; Grimme,S.
     Extension of the D3 dispersion coefficient model
     J. Chem. Phys., 2017 147 034112-XXXX
     doi.org/10.1063/1.4993215
  6. Caldeweyher,E.; Ehlert,S.; Hansen,A.; Neugebauer,H.; Spicher,S.; Bannwarth,C.; Grimme,S.
     A generally applicable atomic-charge dependent London dispersion correction
     J. Chem. Phys., 2019 150 154122-XXXX
     doi.org/10.1063/1.5090222
  7. Caldeweyher,E.; Mewes,J.; Ehlert,S.; Grimme,S.
     Extension and evaluation of the D4 London-dispersion model for periodic systems
     Phys. Chem. Chem. Phys., 2020 22(16)8499-8512
     doi.org/10.1039/D0CP00502A

List of suggested additional citations. These are papers that are important in the 'surrounding' of 
of this run, or papers that preceded the highly important papers. If you like your results we are grateful for a citation.

  1. Neese,F.
     The ORCA program system
     WIRES Comput. Molec. Sci., 2012 2(1)73-78
     doi.org/10.1002/wcms.81
  2. Neese,F.
     Software update: the ORCA program system, version 4.0
     WIRES Comput. Molec. Sci., 2018 8(1)1-6
     doi.org/10.1002/wcms.1327
  3. Neese,F.; Wennmohs,F.; Becker,U.; Riplinger,C.
     The ORCA quantum chemistry program package
     J. Chem. Phys., 2020 152 Art. No. L224108
     doi.org/10.1063/5.0004608

List of optional additional citations

  1. Neese,F.
     Approximate second-order SCF convergence for spin unrestricted wavefunctions
     Chem. Phys. Lett., 2000 325(1-3)93-98
     doi.org/10.1016/s0009-2614(00)00662-x

Timings for individual modules:

Sum of individual times          ...       20.543 sec (=   0.342 min)
Startup calculation              ...        1.294 sec (=   0.022 min)   6.3 %
SCF iterations                   ...        8.332 sec (=   0.139 min)  40.6 %
Property calculations            ...        0.140 sec (=   0.002 min)   0.7 %
SCF Gradient evaluation          ...       10.777 sec (=   0.180 min)  52.5 %
                             ****ORCA TERMINATED NORMALLY****
TOTAL RUN TIME: 0 days 0 hours 0 minutes 21 seconds 474 msec
  ------------------------------------------------------------------------
          * successful ORCA run, taking over control again...

         :::::::::::::::::::::::::::::::::::::::::::::::::::::
         ::                  ORCA SUMMARY                   ::
         :::::::::::::::::::::::::::::::::::::::::::::::::::::
         :: total energy            -386.243291493146 Eh    ::
         :: gradient norm              0.000383406848 Eh/a0 ::
         :: HOMO-LUMO gap              0.000000000000 eV    ::
         :::::::::::::::::::::::::::::::::::::::::::::::::::::

           -------------------------------------------------
          |                Property Printout                |
           -------------------------------------------------
           -------------------------------------------------
          |                Geometry Summary                 |
           -------------------------------------------------

      molecular mass/u    :      116.1585142
   center of mass at/Å    :        0.0027895      -0.0095169       0.0089093
  moments of inertia/u·Å² :        0.1019980E+03   0.5198159E+03   0.5235129E+03
rotational constants/cm⁻¹ :        0.1652741E+00   0.3243000E-01   0.3220099E-01

 * 17 selected distances

     #   Z          #   Z                                           value/Å
     1   6 C        2   6 C                                       1.5258007
     2   6 C        3   6 C                                       1.5294023 (max)
     4   6 C        5   8 O                                       1.2204528
     4   6 C        6   8 O                                       1.3478160
     7   6 C        8   6 C                                       1.5112243
     1   6 C        9   1 H                                       1.0942549
     1   6 C       10   1 H                                       1.0960927
     1   6 C       11   1 H                                       1.0954261
     2   6 C       12   1 H                                       1.0950419
     2   6 C       13   1 H                                       1.0952952
     3   6 C       14   1 H                                       1.0934045
     3   6 C       15   1 H                                       1.0984942
     7   6 C       16   1 H                                       1.0915307 (min)
     7   6 C       17   1 H                                       1.0926693
     8   6 C       18   1 H                                       1.0933511
     8   6 C       19   1 H                                       1.0938036
     8   6 C       20   1 H                                       1.0945550

 * 3 distinct bonds (by element types)

   Z      Z             #   av. dist./Å        max./Å        min./Å
   1 H    6 C          12     1.0944933     1.0984942     1.0915307
   6 C    6 C           3     1.5221424     1.5294023     1.5112243
   6 C    8 O           2     1.2841344     1.3478160     1.2204528


optimized geometry written to: xtbopt.coord


           -------------------------------------------------
          | TOTAL ENERGY             -386.243291493146 Eh   |
          | GRADIENT NORM               0.000383406848 Eh/α |
           -------------------------------------------------

------------------------------------------------------------------------
 * finished run on 2025/04/11 at 16:45:32.632     
------------------------------------------------------------------------
 total:
 * wall-time:     0 d,  0 h,  1 min, 15.710 sec
 *  cpu-time:     0 d,  0 h,  0 min,  2.061 sec
 * ratio c/w:     0.027 speedup
 SCF:
 * wall-time:     0 d,  0 h,  0 min, 27.180 sec
 *  cpu-time:     0 d,  0 h,  0 min,  0.474 sec
 * ratio c/w:     0.017 speedup
 ANC optimizer:
 * wall-time:     0 d,  0 h,  0 min, 48.463 sec
 *  cpu-time:     0 d,  0 h,  0 min,  1.425 sec
 * ratio c/w:     0.029 speedup

