
                                 *****************
                                 * O   R   C   A *
                                 *****************

                                            #,                                       
                                            ###                                      
                                            ####                                     
                                            #####                                    
                                            ######                                   
                                           ########,                                 
                                     ,,################,,,,,                         
                               ,,#################################,,                 
                          ,,##########################################,,             
                       ,#########################################, ''#####,          
                    ,#############################################,,   '####,        
                  ,##################################################,,,,####,       
                ,###########''''           ''''###############################       
              ,#####''   ,,,,##########,,,,          '''####'''          '####       
            ,##' ,,,,###########################,,,                        '##       
           ' ,,###''''                  '''############,,,                           
         ,,##''                                '''############,,,,        ,,,,,,###''
      ,#''                                            '''#######################'''  
     '                                                          ''''####''''         
             ,#######,   #######,   ,#######,      ##                                
            ,#'     '#,  ##    ##  ,#'     '#,    #''#        ,####,   ,####,        
            ##       ##  ##   ,#'  ##            #'  '#       #'       #'  '#        
            ##       ##  #######   ##           ,######,      #####,   #    #        
            '#,     ,#'  ##    ##  '#,     ,#' ,#      #,     #,   #   #,  ,#        
             '#######'   ##     ##  '#######'  #'      '#     '####' # '####'        



                #########################################################
                #                        -***-                          #
                #          Department of theory and spectroscopy        #
                #                                                       #
                #                      Frank Neese                      #
                #                                                       #
                #     Directorship, Architecture, Infrastructure        #
                #                    SHARK, DRIVERS                     #
                #        Core code/Algorithms in most modules           #
                #                                                       #
                #        Max Planck Institute fuer Kohlenforschung      #
                #                Kaiser Wilhelm Platz 1                 #
                #                 D-45470 Muelheim/Ruhr                 #
                #                      Germany                          #
                #                                                       #
                #                  All rights reserved                  #
                #                        -***-                          #
                #########################################################


                         Program Version 6.0.1  -  RELEASE   -


 With contributions from (in alphabetic order):
[Max-Planck-Institut fuer Kohlenforschung]                               
  Daniel Aravena         : Magnetic Suceptibility                        
  Michael Atanasov       : Ab Initio Ligand Field Theory (pilot matlab implementation)
  Alexander A. Auer      : GIAO ZORA, VPT2 properties, NMR spectrum      
  Ute Becker             : All parallelization in ORCA, NUMFREQ, NUMCALC 
  Giovanni Bistoni       : ED, misc. LED, open-shell LED, HFLD           
  Martin Brehm           : Molecular dynamics                            
  Dmytro Bykov           : pre 5.0 version of the SCF Hessian            
  Marcos Casanova-Páez   : Triplet and SCS-CIS(D). UHF-(DLPNO)-IP/EA/STEOM-CCSD. UHF-CVS-IP/STEOM-CCSD   
  Vijay G. Chilkuri      : MRCI spin determinant printing, contributions to CSF-ICE 
  Pauline Colinet        : FMM embedding                                 
  Dipayan Datta          : RHF DLPNO-CCSD density                        
  Achintya Kumar Dutta   : EOM-CC, STEOM-CC                              
  Nicolas Foglia         : Exact transition moments, OPA infrastructure, MCD improvements    
  Dmitry Ganyushin       : Spin-Orbit,Spin-Spin,Magnetic field MRCI      
  Miquel Garcia-Rates    : C-PCM and meta-GGA Hessian, CCSD/C-PCM, Gaussian charge scheme 
  Tiago L. C. Gouveia    : GS-ROHF, GS-ROCIS                             
  Yang Guo               : DLPNO-NEVPT2, F12-NEVPT2, CIM, IAO-localization        
  Andreas Hansen         : Spin unrestricted coupled pair/coupled cluster methods 
  Ingolf Harden          : AUTO-CI MPn and infrastructure                
  Benjamin Helmich-Paris : MC-RPA, TRAH-(SCF,CASSCF), AVAS, COSX integrals, SCF dyn. polar. 
  Lee Huntington         : MR-EOM, pCC                                   
  Robert Izsak           : Overlap fitted RIJCOSX, COSX-SCS-MP3, EOM     
  Riya Kayal             : Wick's Theorem for AUTO-CI, AUTO-CI UHF-CCSDT 
  Emily Kempfer          : AUTO-CI, RHF CISDT and CCSDT                  
  Christian Kollmar      : KDIIS, OOCD, Brueckner-CCSD(T), CCSD density, CASPT2, CASPT2-K, improved NEVPT2 
  Axel Koslowski         : Symmetry handling                             
  Simone Kossmann        : meta-GGA functionals, TD-DFT gradient, OOMP2, (MP2 Hessian; deprecated post 5.0) 
  Lucas Lang             : DCDCAS                                        
  Marvin Lechner         : AUTO-CI (C++ implementation), FIC-MRCC        
  Spencer Leger          : CASSCF response                               
  Dagmar Lenk            : GEPOL surface, SMD, ORCA-2-JSON               
  Dimitrios Liakos       : Extrapolation schemes; Compound Job, initial MDCI parallelization 
  Dimitrios Manganas     : Further ROCIS development; embedding schemes. LFT, Crystal Embedding 
  Dimitrios Pantazis     : SARC Basis sets                               
  Anastasios Papadopoulos: AUTO-CI, single reference methods and gradients 
  Taras Petrenko         : pre 6.0 DFT Hessian and TD-DFT gradient, (ASA, deprecated), ECA, 1-Electron XAS/XES, NRVS 
  Peter Pinski           : DLPNO-MP2, DLPNO-MP2 Gradient                 
  Christoph Reimann      : Effective Core Potentials                     
  Marius Retegan         : Local ZFS, SOC                                
  Christoph Riplinger    : Optimizer, TS searches, QM/MM, DLPNO-CCSD(T), (RO)-DLPNO pert. Triples 
  Michael Roemelt        : Original ROCIS implementation                 
  Masaaki Saitow         : Open-shell DLPNO-CCSD energy and density      
  Barbara Sandhoefer     : DKH picture change effects                    
  Kantharuban Sivalingam : CASSCF convergence/infrastructure, NEVPT2 and variants, FIC-MRCI 
  Bernardo de Souza      : ESD, SOC TD-DFT                               
  Georgi L. Stoychev     : AutoAux, RI-MP2 NMR, DLPNO-MP2 response, X2C  
  Van Anh Tran           : RI-MP2 g-tensors                              
  Willem Van den Heuvel  : Paramagnetic NMR                              
  Zikuan Wang            : NOTCH, Electric field optimization            
  Frank Wennmohs         : Technical directorship and infrastructure     
  Hang Xu                : AUTO-CI-Response properties                   
                                                                         
[FACCTs GmbH]                                                            
  Markus Bursch, Miquel Garcia-Rates, Christoph Riplinger, Bernardo de Souza, Georgi L. Stoychev 
                                                                 
  APM, Basis sets (HGBS, AHGBS, def-TZVP (Ac-Lr), def2-XVPD (La-Lu)), CI-OPT, improved COSX, DLPNO-Multilevel,           
  DOCKER, DRACO, updates on ESD, GOAT, IRC, LR-CPCM, MBIS, meta-GGA TD-DFT gradient, ML-optimized integration grids, 
  MM, NACMEs, nearIR, NEB, NEB-TS, NL-DFT gradient (VV10), 2- and 3-layer-ONIOM, interface openCOSMO-RS, QMMM,   
  Crystal-QMMM, SF, symmetry and pop. for TD-DFT, r2SCAN hybrids, SOLVATOR                                   
                                                                         
[Other institutions]                                                     
  V. Asgeirsson          : NEB                                           
  Christoph Bannwarth    : sTDA-DFT, sTD-DFT, PBEh-3c, B97-3c, D3        
  Sebastian Ehlert       : rSCAN, r2SCAN, r2SCAN-3c, D4, dhf basis sets  
  Marvin Friede          : D4 for Fr, Ra, Ac-Lr                          
  Lars Goerigk           : TD-DFT with DH, B97 family of functionals     
  Stefan Grimme          : VdW corrections, initial TS optimization, DFT functionals, gCP, sTDA/sTD-DF 
  Waldemar Hujo          : DFT-NL                                        
  H. Jonsson             : NEB                                           
  Holger Kruse           : gCP                                           
  Marcel Mueller         : wB97X-3c, vDZP basis set                      
  Hagen Neugebauer       : wr2SCAN                                       
  Tobias Risthaus        : range-separated hybrid DFT                    
  Lukas Wittmann         : regularized MP2, r2SCAN double-hybrids, wr2SCAN        
                                                                         
We gratefully acknowledge several colleagues who have allowed us to      
interface, adapt or use parts of their codes:                            
  Ed Valeev, F. Pavosevic, A. Kumar             : LibInt (2-el integral package), F12 methods 
  Garnet Chan, S. Sharma, J. Yang, R. Olivares  : DMRG                   
  Ulf Ekstrom                                   : XCFun DFT Library      
  Mihaly Kallay                                 : mrcc  (arbitrary order and MRCC methods)
  Frank Weinhold                                : gennbo (NPA and NBO analysis)           
  Simon Mueller                                 : openCOSMO-RS                            
  Christopher J. Cramer and Donald G. Truhlar   : smd solvation model                     
  S Lehtola, MJT Oliveira, MAL Marques          : LibXC Library                           
  Liviu Ungur et al                             : ANISO software                          


 Your calculation uses the libint2 library for the computation of 2-el integrals
 For citations please refer to: http://libint.valeyev.net

 Your ORCA version has been built with support for libXC version: 6.2.2
 For citations please refer to: https://libxc.gitlab.io

 This ORCA versions uses:
   CBLAS   interface :  Fast vector & matrix operations
   LAPACKE interface :  Fast linear algebra routines
   SCALAPACK package :  Parallel linear algebra routines
   Shared memory     :  Shared parallel matrices
   BLAS/LAPACK       :  OpenBLAS 0.3.27  USE64BITINT DYNAMIC_ARCH NO_AFFINITY Zen SINGLE_THREADED
        Core in use  :  Zen
   Copyright (c) 2011-2014, The OpenBLAS Project


Your calculation utilizes the geometrical counterpoise correction gCP
Please cite in your paper:
H.Kruse, S. Grimme J.Chem.Phys., 136, (2012), 154101 
   

Your calculation utilizes the atom-pairwise dispersion correction
based on EEQ partial charges (D4)


Your calculation utilizes the SMD solvation module
Please cite in your paper:
A.V. Marenich, C.J. Cramer, D.G. Truhlar J. Phys. Chem. B, 113, (2009), 6378 

================================================================================

----- Orbital basis set information -----
Your calculation utilizes the basis: def2-mTZVPP
   Stefan Grimme, Andreas Hansen, Sebastian Ehlert, and Jan-Michael Mewes 
   J. Chem. Phys. 154, 064103 (2021). DOI: 10.1063/5.0040021

----- AuxJ basis set information -----
Your calculation utilizes the auxiliary basis: def2/J
   F. Weigend, Phys. Chem. Chem. Phys. 8, 1057 (2006).

================================================================================
                                        WARNINGS
                       Please study these warnings very carefully!
================================================================================



WARNING: SCAN, rSCAN, or r2SCAN functional requested.
  ===> : libXC variant has now been activated.



================================================================================
                                       INPUT FILE
================================================================================
NAME = sp_solv.inp
|  1> ! r2scan-3c def2/J RI DEFGRID2 scfconv6 printgap
|  2> %output
|  3>     printlevel normal
|  4> end
|  5> %cpcm
|  6>     smd true
|  7>     smdsolvent "water"
|  8> end
|  9> * xyz 0 1
| 10> C -3.7830403709 0.9398036264 -1.6422144405
| 11> C -3.3077142666 -0.1014916351 -0.6279094675
| 12> H -3.5831106915 -1.1073210901 -0.9526192044
| 13> C -1.8088672569 -0.0392184416 -0.4340977054
| 14> C -1.2031281298 1.0987693895 0.0869471168
| 15> C 0.166765775 1.1582526119 0.2479138359
| 16> C 0.9892918705 0.0858370645 -0.0970395643
| 17> C 0.3552197771 -1.0396446408 -0.6117775904
| 18> C -1.0120373006 -1.1199644743 -0.7836671533
| 19> F 1.0985460382 -2.1188438786 -0.9971426398
| 20> C 2.448017987 0.1627637138 0.080181077
| 21> C 3.1606578068 -0.8930656747 0.6421742479
| 22> C 4.5299303268 -0.799725719 0.81298342
| 23> C 5.2053286177 0.3444544208 0.4227295552
| 24> C 4.5039406751 1.3993065934 -0.1381648314
| 25> C 3.1346601011 1.3119512215 -0.3059671739
| 26> C -3.9359872429 0.133111442 0.7323804535
| 27> O -4.1787944995 1.2193976219 1.2077329995
| 28> O -4.1615955501 -1.0005145451 1.3738872906
| 29> H -3.6337419526 1.9412544385 -1.248529508
| 30> H -3.2246349654 0.8338572478 -2.5675105313
| 31> H -4.8415900568 0.8054979868 -1.8480390722
| 32> H -1.8139580299 1.9381796213 0.3815966909
| 33> H 0.6194011059 2.0434135676 0.6663452261
| 34> H -1.4360350627 -2.0226399487 -1.1940131336
| 35> H 2.6400016169 -1.7851766619 0.9570766219
| 36> H 5.070446 -1.6241751367 1.2529945082
| 37> H 6.2743074348 0.4135715481 0.5548333014
| 38> H 5.0260615632 2.2923551776 -0.4467837904
| 39> H 2.5915433735 2.128730456 -0.7571176985
| 40> H -4.5317445533 -0.8670529799 2.2687856512
| 41> *
| 42> 
| 43>                          ****END OF INPUT****
================================================================================

                       ****************************
                       * Single Point Calculation *
                       ****************************

---------------------------------
CARTESIAN COORDINATES (ANGSTROEM)
---------------------------------
  C     -3.783040    0.939804   -1.642214
  C     -3.307714   -0.101492   -0.627909
  H     -3.583111   -1.107321   -0.952619
  C     -1.808867   -0.039218   -0.434098
  C     -1.203128    1.098769    0.086947
  C      0.166766    1.158253    0.247914
  C      0.989292    0.085837   -0.097040
  C      0.355220   -1.039645   -0.611778
  C     -1.012037   -1.119964   -0.783667
  F      1.098546   -2.118844   -0.997143
  C      2.448018    0.162764    0.080181
  C      3.160658   -0.893066    0.642174
  C      4.529930   -0.799726    0.812983
  C      5.205329    0.344454    0.422730
  C      4.503941    1.399307   -0.138165
  C      3.134660    1.311951   -0.305967
  C     -3.935987    0.133111    0.732380
  O     -4.178794    1.219398    1.207733
  O     -4.161596   -1.000515    1.373887
  H     -3.633742    1.941254   -1.248530
  H     -3.224635    0.833857   -2.567511
  H     -4.841590    0.805498   -1.848039
  H     -1.813958    1.938180    0.381597
  H      0.619401    2.043414    0.666345
  H     -1.436035   -2.022640   -1.194013
  H      2.640002   -1.785177    0.957077
  H      5.070446   -1.624175    1.252995
  H      6.274307    0.413572    0.554833
  H      5.026062    2.292355   -0.446784
  H      2.591543    2.128730   -0.757118
  H     -4.531745   -0.867053    2.268786

----------------------------
CARTESIAN COORDINATES (A.U.)
----------------------------
  NO LB      ZA    FRAG     MASS         X           Y           Z
   0 C     6.0000    0    12.011   -7.148910    1.775971   -3.103336
   1 C     6.0000    0    12.011   -6.250674   -0.191791   -1.186577
   2 H     1.0000    0     1.008   -6.771098   -2.092534   -1.800189
   3 C     6.0000    0    12.011   -3.418264   -0.074112   -0.820326
   4 C     6.0000    0    12.011   -2.273583    2.076373    0.164306
   5 C     6.0000    0    12.011    0.315142    2.188780    0.468489
   6 C     6.0000    0    12.011    1.869491    0.162209   -0.183378
   7 C     6.0000    0    12.011    0.671268   -1.964644   -1.156092
   8 C     6.0000    0    12.011   -1.912473   -2.116426   -1.480916
   9 F     9.0000    0    18.998    2.075951   -4.004035   -1.884327
  10 C     6.0000    0    12.011    4.626084    0.307579    0.151520
  11 C     6.0000    0    12.011    5.972778   -1.687650    1.213533
  12 C     6.0000    0    12.011    8.560328   -1.511263    1.536316
  13 C     6.0000    0    12.011    9.836646    0.650925    0.798843
  14 C     6.0000    0    12.011    8.511214    2.644306   -0.261094
  15 C     6.0000    0    12.011    5.923649    2.479229   -0.578194
  16 C     6.0000    0    12.011   -7.437938    0.251544    1.383998
  17 O     8.0000    0    15.999   -7.896777    2.304328    2.282285
  18 O     8.0000    0    15.999   -7.864276   -1.890698    2.596271
  19 H     1.0000    0     1.008   -6.866777    3.668439   -2.359379
  20 H     1.0000    0     1.008   -6.093677    1.575762   -4.851892
  21 H     1.0000    0     1.008   -9.149279    1.522171   -3.492288
  22 H     1.0000    0     1.008   -3.427884    3.662629    0.721113
  23 H     1.0000    0     1.008    1.170498    3.861492    1.259210
  24 H     1.0000    0     1.008   -2.713713   -3.822236   -2.256358
  25 H     1.0000    0     1.008    4.988880   -3.373495    1.808613
  26 H     1.0000    0     1.008    9.581754   -3.069246    2.367816
  27 H     1.0000    0     1.008   11.856723    0.781537    1.048483
  28 H     1.0000    0     1.008    9.497880    4.331923   -0.844299
  29 H     1.0000    0     1.008    4.897307    4.022718   -1.430745
  30 H     1.0000    0     1.008   -8.563756   -1.638493    4.287384

--------------------------------
INTERNAL COORDINATES (ANGSTROEM)
--------------------------------
 C      0   0   0     0.000000000000     0.00000000     0.00000000
 C      1   0   0     1.529393770520     0.00000000     0.00000000
 H      2   1   0     1.092232803312   110.57700235     0.00000000
 C      2   1   3     1.512608114564   111.40224265   121.39787055
 C      4   2   1     1.390476141677   120.88913356    63.16747971
 C      5   4   2     1.380600539190   120.74427312   180.76717163
 C      6   5   4     1.394853803233   121.54406448   359.69625480
 C      7   6   5     1.390579636018   116.41863065     0.11436613
 C      8   7   6     1.380358364342   123.01361437     0.00000000
 F      8   7   6     1.365910372831   119.72017391   178.67736545
 C      7   6   5     1.471464151121   120.97089298   180.01686992
 C     11   7   6     1.392288595990   121.09015098   135.01212076
 C     12  11   7     1.383038450164   120.35956861   180.59554114
 C     13  12  11     1.384777643759   120.25397642   359.82143485
 C     14  13  12     1.385373835823   119.75539828     0.13253205
 C     15  14  13     1.382287190667   120.16863626     0.11111240
 C      2   1   3     1.516625928074   111.14777303   240.38801978
 O     17   2   1     1.210344195462   125.04318692   324.30136582
 O     17   2   1     1.321944782868   111.91925566   146.07973574
 H      1   2   3     1.086361621579   110.15663758   171.94457357
 H      1   2   3     1.085916243400   109.80779368   292.18593852
 H      1   2   3     1.086705673751   110.13343528    52.36771871
 H      5   4   2     1.079139043694   119.49432860     1.66831719
 H      6   5   4     1.078644282690   119.79937941   180.84745626
 H      9   8   7     1.078415939189   119.04679268   179.65437576
 H     12  11   7     1.079864985410   119.82887431   359.87735386
 H     13  12  11     1.079575746791   119.63597958   179.79816451
 H     14  13  12     1.079325849063   120.09750861   180.15988325
 H     15  14  13     1.079533073781   120.05084828   180.18156464
 H     16  15  14     1.079648504633   120.08165198   180.93940722
 H     19  17   2     0.977581377564   113.06510619   177.56522279

---------------------------
INTERNAL COORDINATES (A.U.)
---------------------------
 C      0   0   0     0.000000000000     0.00000000     0.00000000
 C      1   0   0     2.890135377207     0.00000000     0.00000000
 H      2   1   0     2.064020872745   110.57700235     0.00000000
 C      2   1   3     2.858415084472   111.40224265   121.39787055
 C      4   2   1     2.627619103521   120.88913356    63.16747971
 C      5   4   2     2.608956919414   120.74427312   180.76717163
 C      6   5   4     2.635891684969   121.54406448   359.69625480
 C      7   6   5     2.627814679481   116.41863065     0.11436613
 C      8   7   6     2.608499275273   123.01361437     0.00000000
 F      8   7   6     2.581196528133   119.72017391   178.67736545
 C      7   6   5     2.780664261502   120.97089298   180.01686992
 C     11   7   6     2.631044145802   121.09015098   135.01212076
 C     12  11   7     2.613563903492   120.35956861   180.59554114
 C     13  12  11     2.616850503081   120.25397642   359.82143485
 C     14  13  12     2.617977142805   119.75539828     0.13253205
 C     15  14  13     2.612144228788   120.16863626     0.11111240
 C      2   1   3     2.866007651665   111.14777303   240.38801978
 O     17   2   1     2.287219057204   125.04318692   324.30136582
 O     17   2   1     2.498113603787   111.91925566   146.07973574
 H      1   2   3     2.052925947187   110.15663758   171.94457357
 H      1   2   3     2.052084304402   109.80779368   292.18593852
 H      1   2   3     2.053576111567   110.13343528    52.36771871
 H      5   4   2     2.039277253003   119.49432860     1.66831719
 H      6   5   4     2.038342290204   119.79937941   180.84745626
 H      9   8   7     2.037910783523   119.04679268   179.65437576
 H     12  11   7     2.040649084036   119.82887431   359.87735386
 H     13  12  11     2.040102502259   119.63597958   179.79816451
 H     14  13  12     2.039630263990   120.09750861   180.15988325
 H     15  14  13     2.040021861956   120.05084828   180.18156464
 H     16  15  14     2.040239994654   120.08165198   180.93940722
 H     19  17   2     1.847361077218   113.06510619   177.56522279

---------------------
BASIS SET INFORMATION
---------------------
There are 4 groups of distinct atoms

 Group   1 Type C   : 11s6p1d contracted to 5s3p1d pattern {62111/411/1}
 Group   2 Type H   : 4s1p contracted to 2s1p pattern {31/1}
 Group   3 Type F   : 11s6p2d contracted to 5s3p2d pattern {62111/411/11}
 Group   4 Type O   : 11s6p2d contracted to 5s3p2d pattern {62111/411/11}

Atom   0C    basis set group =>   1
Atom   1C    basis set group =>   1
Atom   2H    basis set group =>   2
Atom   3C    basis set group =>   1
Atom   4C    basis set group =>   1
Atom   5C    basis set group =>   1
Atom   6C    basis set group =>   1
Atom   7C    basis set group =>   1
Atom   8C    basis set group =>   1
Atom   9F    basis set group =>   3
Atom  10C    basis set group =>   1
Atom  11C    basis set group =>   1
Atom  12C    basis set group =>   1
Atom  13C    basis set group =>   1
Atom  14C    basis set group =>   1
Atom  15C    basis set group =>   1
Atom  16C    basis set group =>   1
Atom  17O    basis set group =>   4
Atom  18O    basis set group =>   4
Atom  19H    basis set group =>   2
Atom  20H    basis set group =>   2
Atom  21H    basis set group =>   2
Atom  22H    basis set group =>   2
Atom  23H    basis set group =>   2
Atom  24H    basis set group =>   2
Atom  25H    basis set group =>   2
Atom  26H    basis set group =>   2
Atom  27H    basis set group =>   2
Atom  28H    basis set group =>   2
Atom  29H    basis set group =>   2
Atom  30H    basis set group =>   2
---------------------------------
AUXILIARY/J BASIS SET INFORMATION
---------------------------------
There are 4 groups of distinct atoms

 Group   1 Type C   : 12s5p4d2f1g contracted to 6s4p3d1f1g pattern {711111/2111/211/2/1}
 Group   2 Type H   : 5s2p1d contracted to 3s1p1d pattern {311/2/1}
 Group   3 Type F   : 12s5p4d2f1g contracted to 6s4p3d1f1g pattern {711111/2111/211/2/1}
 Group   4 Type O   : 12s5p4d2f1g contracted to 6s4p3d1f1g pattern {711111/2111/211/2/1}

Atom   0C    basis set group =>   1
Atom   1C    basis set group =>   1
Atom   2H    basis set group =>   2
Atom   3C    basis set group =>   1
Atom   4C    basis set group =>   1
Atom   5C    basis set group =>   1
Atom   6C    basis set group =>   1
Atom   7C    basis set group =>   1
Atom   8C    basis set group =>   1
Atom   9F    basis set group =>   3
Atom  10C    basis set group =>   1
Atom  11C    basis set group =>   1
Atom  12C    basis set group =>   1
Atom  13C    basis set group =>   1
Atom  14C    basis set group =>   1
Atom  15C    basis set group =>   1
Atom  16C    basis set group =>   1
Atom  17O    basis set group =>   4
Atom  18O    basis set group =>   4
Atom  19H    basis set group =>   2
Atom  20H    basis set group =>   2
Atom  21H    basis set group =>   2
Atom  22H    basis set group =>   2
Atom  23H    basis set group =>   2
Atom  24H    basis set group =>   2
Atom  25H    basis set group =>   2
Atom  26H    basis set group =>   2
Atom  27H    basis set group =>   2
Atom  28H    basis set group =>   2
Atom  29H    basis set group =>   2
Atom  30H    basis set group =>   2

Checking for AutoStart:
The File: sp_solv.gbw exists
Trying to determine its content:
     ... Fine, the file contains calculation information
     ... Fine, the calculation information was read
     ... Fine, the file contains a basis set
     ... Fine, the basis set was read
     ... Fine, the file contains a geometry
     ... Fine, the geometry was read
     ... Fine, the file contains a set of orbitals
     ... Fine, the orbitals can be read
     => possible old guess file was deleted
     => GBW file was renamed to GES file
     => GES file is set as startup file
     => Guess is set to MORead
     ... now leaving AutoStart

------------------------------------------------------------------------------
                             ORCA STARTUP CALCULATIONS
                           -- RI-GTO INTEGRALS CHOSEN --
------------------------------------------------------------------------------
------------------------------------------------------------------------------
                   ___                                                        
                  /   \      - P O W E R E D   B Y -                         
                 /     \                                                     
                 |  |  |   _    _      __       _____    __    __             
                 |  |  |  | |  | |    /  \     |  _  \  |  |  /  |          
                  \  \/   | |  | |   /    \    | | | |  |  | /  /          
                 / \  \   | |__| |  /  /\  \   | |_| |  |  |/  /          
                |  |  |   |  __  | /  /__\  \  |    /   |      \           
                |  |  |   | |  | | |   __   |  |    \   |  |\   \          
                \     /   | |  | | |  |  |  |  | |\  \  |  | \   \       
                 \___/    |_|  |_| |__|  |__|  |_| \__\ |__|  \__/        
                                                                              
                      - O R C A' S   B I G   F R I E N D -                    
                                      &                                       
                       - I N T E G R A L  F E E D E R -                       
                                                                              
 v1 FN, 2020, v2 2021, v3 2022-2024                                           
------------------------------------------------------------------------------


----------------------
SHARK INTEGRAL PACKAGE
----------------------

Number of atoms                             ...     31
Number of basis functions                   ...    422
Number of shells                            ...    204
Maximum angular momentum                    ...      2
Integral batch strategy                     ... SHARK/LIBINT Hybrid
RI-J (if used) integral strategy            ... SPLIT-RIJ (Revised 2003 algorithm where possible)
Printlevel                                  ...      1
Contraction scheme used                     ... SEGMENTED contraction
Prescreening option                         ... SCHWARTZ
   Thresh                                   ... 1.000e-10
   Tcut                                     ... 1.000e-11
   Tpresel                                  ... 1.000e-11 
Coulomb Range Separation                    ... NOT USED
Exchange Range Separation                   ... NOT USED
Multipole approximations                    ... NOT USED
Finite Nucleus Model                        ... NOT USED
CABS basis                                  ... NOT available
Auxiliary Coulomb fitting basis             ... AVAILABLE
   # of basis functions in Aux-J            ...   1025
   # of shells in Aux-J                     ...    335
   Maximum angular momentum in Aux-J        ...      4
Auxiliary J/K fitting basis                 ... NOT available
Auxiliary Correlation fitting basis         ... NOT available
Auxiliary 'external' fitting basis          ... NOT available

Checking pre-screening integrals            ... done (  0.0 sec) Dimension = 204
Check shell pair data                       ... done (  0.0 sec)
Shell pair information
Shell pair cut-off parameter TPreSel        ...   1.0e-11
Total number of shell pairs                 ...     20910
Shell pairs after pre-screening             ...     14819
Total number of primitive shell pairs       ...     77463
Primitive shell pairs kept                  ...     35295
          la=0 lb=0:   4542 shell pairs
          la=1 lb=0:   5672 shell pairs
          la=1 lb=1:   1791 shell pairs
          la=2 lb=0:   1631 shell pairs
          la=2 lb=1:   1026 shell pairs
          la=2 lb=2:    157 shell pairs

Calculating one electron integrals          ... done (  0.1 sec)
Calculating RI/J V-Matrix + Cholesky decomp.... done (  0.1 sec)
Calculating Nuclear repulsion               ... done (  0.0 sec) ENN=   1225.853074126335 Eh

Diagonalization of the overlap matrix:
Smallest eigenvalue                        ... 1.911e-05
Time for diagonalization                   ...    0.027 sec
Threshold for overlap eigenvalues          ... 1.000e-07
Number of eigenvalues below threshold      ... 0
Time for construction of square roots      ...    0.021 sec
Total time needed                          ...    0.051 sec

-------------------
DFT GRID GENERATION
-------------------

General Integration Accuracy     IntAcc      ... 4.388
Radial Grid Type                 RadialGrid  ... OptM3 with GC (2021)
Angular Grid (max. ang.)         AngularGrid ... 4 (Lebedev-302)
Angular grid pruning method      GridPruning ... 4 (adaptive)
Weight generation scheme         WeightScheme... mBecke (2022)
Basis function cutoff            BFCut       ... 1.0000e-10
Integration weight cutoff        WCut        ... 1.0000e-14
Partially contracted basis set               ... off
Rotationally invariant grid construction     ... off
Angular grids for H and He will be reduced by one unit
Diffuse basis detected: some atoms will have their outermost
                        angular grid increased by 1.

Total number of grid points                  ...   149947
Total number of batches                      ...     2360
Average number of points per batch           ...       63
Average number of grid points per atom       ...     4837
Initializing property integral containers    ... done (  0.0 sec)

SHARK setup successfully completed in   3.0 seconds

Maximum memory used throughout the entire STARTUP-calculation: 77.1 MB
-------------------------------------------------------------------------------
                                 ORCA GUESS
                   Start orbitals & Density for SCF / CASSCF
-------------------------------------------------------------------------------

------------
SCF SETTINGS
------------
Hamiltonian:
 Density Functional     Method          .... DFT(GTOs)
  Functional kind                       .... Exchange
  Functional name                       .... Re-regularized SCAN exchange by Furness et al
  Functional family                     .... MGGA
  Functional refs                              
    [ 0] J. W. Furness, A. D. Kaplan, J. Ning, J. P. Perdew, and J. Sun.,  J. Phys. Chem. Lett. 11, 8208-8215 (2020), doi: 10.1021/acs.jpclett.0c02405
    [ 1] J. W. Furness, A. D. Kaplan, J. Ning, J. P. Perdew, and J. Sun.,  J. Phys. Chem. Lett. 11, 9248-9248 (2020), doi: 10.1021/acs.jpclett.0c03077
  Functional external parameters        .... 6
    Parameter  0 _c1        =  6.670000e-01 : c1 parameter        
    Parameter  1 _c2        =  8.000000e-01 : c2 parameter        
    Parameter  2 _d         =  1.240000e+00 : d parameter         
    Parameter  3 _k1        =  6.500000e-02 : k1 parameter        
    Parameter  4 _eta       =  1.000000e-03 : eta parameter       
    Parameter  5 _dp2       =  3.610000e-01 : dp2 parameter       
  Functional kind                       .... Correlation
  Functional name                       .... Re-regularized SCAN correlation by Furness et al
  Functional family                     .... MGGA
  Functional refs                              
    [ 0] J. W. Furness, A. D. Kaplan, J. Ning, J. P. Perdew, and J. Sun.,  J. Phys. Chem. Lett. 11, 8208-8215 (2020), doi: 10.1021/acs.jpclett.0c02405
    [ 1] J. W. Furness, A. D. Kaplan, J. Ning, J. P. Perdew, and J. Sun.,  J. Phys. Chem. Lett. 11, 9248-9248 (2020), doi: 10.1021/acs.jpclett.0c03077
  Functional external parameters        .... 1
    Parameter  0 _eta       =  1.000000e-03 : Regularization parameter
 Gradients option       PostSCFGGA      .... off
 RI-approximation to the Coulomb term is turned on
   Number of AuxJ basis functions       .... 1025


General Settings:
 Integral files         IntName         .... sp_solv
 Hartree-Fock type      HFTyp           .... RHF
 Total Charge           Charge          ....    0
 Multiplicity           Mult            ....    1
 Number of Electrons    NEL             ....  128
 Basis Dimension        Dim             ....  422
 Nuclear Repulsion      ENuc            ....   1225.8530741263 Eh

Convergence Acceleration:
 AO-DIIS                CNVDIIS         .... on
   Start iteration      DIISMaxIt       ....    12
   Startup error        DIISStart       ....  0.200000
   # of expansion vecs  DIISMaxEq       ....     5
   Bias factor          DIISBfac        ....   1.050
   Max. coefficient     DIISMaxC        ....  10.000
 MO-DIIS                CNVKDIIS        .... off
 Trust-Rad. Augm. Hess. CNVTRAH         .... auto
   Auto Start mean grad. ratio tolernc. ....  1.125000
   Auto Start start iteration           ....     1
   Auto Start num. interpolation iter.  ....    10
   Max. Number of Micro iterations      ....    24
   Max. Number of Macro iterations      .... Maxiter - #DIIS iter
   Number of Davidson start vectors     ....     2
   Converg. threshold    (grad. norm)   ....   3.330e-04
   Grad. Scal. Fac. for Micro threshold ....   0.100
   Minimum threshold for Micro iter.    ....   1.000e-02
   NR start threshold (gradient norm)   ....   1.000e-04
   Initial trust radius                 ....   0.400
   Minimum AH scaling param. (alpha)    ....   1.000
   Maximum AH scaling param. (alpha)    .... 1000.000
   Quad. conv. algorithm                .... NR
   White noise on init. David. guess    .... on
   Maximum white noise                  ....   0.010
   Pseudo random numbers                .... off
   Inactive MOs                         .... canonical
   Orbital update algorithm             .... Taylor
   Preconditioner                       .... Diag
   Full preconditioner red. dimension   ....   250
   COSX micro iterations for RIJONX calc.... off
 SOSCF                  CNVSOSCF        .... on
   Start iteration      SOSCFMaxIt      ....   150
   Startup grad/error   SOSCFStart      ....  0.003300
   Hessian update       SOSCFHessUp     .... L-BFGS
 Level Shifting         CNVShift        .... on
   Level shift para.    LevelShift      ....    0.2500
   Turn off err/grad.   ShiftErr        ....    0.0010
 Zerner damping         CNVZerner       .... off
 Static damping         CNVDamp         .... on
   Fraction old density DampFac         ....    0.7000
   Max. Damping (<1)    DampMax         ....    0.9800
   Min. Damping (>=0)   DampMin         ....    0.0000
   Turn off err/grad.   DampErr         ....    0.1000

SCF Procedure:
 Maximum # iterations   MaxIter         ....   125
 SCF integral mode      SCFMode         .... Direct
   Integral package                     .... SHARK and LIBINT hybrid scheme
 Reset frequency        DirectResetFreq ....    20
 Integral Threshold     Thresh          ....  1.000e-10 Eh
 Primitive CutOff       TCut            ....  1.000e-11 Eh

Convergence Tolerance:
 Convergence Check Mode ConvCheckMode   .... Total+1el-Energy
 Convergence forced     ConvForced      .... 0
 Energy Change          TolE            ....  1.000e-06 Eh
 1-El. energy change                    ....  1.000e-03 Eh
 Orbital Gradient       TolG            ....  3.330e-04
 Orbital Rotation angle TolX            ....  3.330e-04
 DIIS Error             TolErr          ....  1.000e-06

---------------------
INITIAL GUESS: MOREAD
---------------------
Guess MOs are being read from file: sp_solv.ges
Input Geometry matches current geometry (good)
Atom 0: N(Shells)= 9 and 6 - projection required
Input basis set needs projection
NBasis(read)= 278
NBasis(calc)= 422
Basis set overlap was calculated
Using GuessMode=FMatrix for the initial guess
C*T matrix was formed
Effective Fockian was calculated
Effective Fockian was diagonalized
Initial density was built
                      ------------------
                      INITIAL GUESS DONE (   0.2 sec)
                      ------------------
             **** ENERGY FILE WAS UPDATED (sp_solv.en.tmp) ****
Finished Guess after   0.3 sec
Maximum memory used throughout the entire GUESS-calculation: 41.5 MB

-------------------------------------------------------------------------------------------
                                      ORCA LEAN-SCF
                              memory conserving SCF solver
-------------------------------------------------------------------------------------------

--------------------
CPCM SOLVATION MODEL
--------------------
CPCM parameters:
  Epsilon                                         ...      78.3550
  Refrac                                          ...       1.3328
  Rsolv                                           ...       1.3000
  Surface type                                    ... GAUSSIAN VDW
  Discretization scheme                           ... Constant charge density
    Threshold for H atoms                         ...       5.0000 (charges/Ang^2)
    Threshold for non-H atoms                     ...       5.0000 (charges/Ang^2)
  Epsilon function type                           ...         CPCM
Solvent:                                          ... WATER
SMD-CDS solvent descriptors:
  Soln                                            ...       1.3328
  Soln25                                          ...       1.3323
  Sola                                            ...       0.0000
  Solb                                            ...       0.0000
  Solg                                            ...       0.0000
  Solc                                            ...       0.0000
  Solh                                            ...       0.0000
Radii:
  Scheme                                          ... Element-dependent radii
  Radius for C  used is    3.4960 Bohr (=   1.8500 Ang.)
  Radius for H  used is    2.2677 Bohr (=   1.2000 Ang.)
  Radius for F  used is    3.2692 Bohr (=   1.7300 Ang.)
  Radius for O  used is    2.8724 Bohr (=   1.5200 Ang.)
Calculating surface                               ...        done! (  0.0s)
Cavity surface points                             ...         2382
Cavity Volume                                     ...    1632.3187
Cavity Surface-area                               ...     952.5086
Calculating surface distance matrix               ...        done! (  0.1s)
Performing Cholesky decomposition & store         ...        done! (  0.4s)
Overall time for CPCM initialization              ...                 0.5s

----------------------------------------D-I-I-S--------------------------------------------
Iteration    Energy (Eh)           Delta-E    RMSDP     MaxDP     DIISErr   Damp  Time(sec)
-------------------------------------------------------------------------------------------
               ***  Starting incremental Fock matrix formation  ***
    1    -829.2107728004439196     0.00e+00  1.01e-02  6.39e-01  8.28e-01  0.700  14.5
    2    -829.3264736584442289    -1.16e-01  7.46e-03  4.46e-01  5.83e-01  0.700  13.4
    3    -829.4081604770253762    -8.17e-02  5.28e-03  3.09e-01  4.09e-01  0.700   9.0
    4    -829.4655293484211143    -5.74e-02  3.71e-03  2.15e-01  2.87e-01  0.700   7.1
    5    -829.5057860217279995    -4.03e-02  2.60e-03  1.51e-01  2.01e-01  0.700   7.2
                               ***Turning on AO-DIIS***
    6    -829.5340163684436448    -2.82e-02  1.83e-03  1.06e-01  1.40e-01  0.700   7.2
    7    -829.5538043498518164    -1.98e-02  1.29e-03  7.43e-02  9.82e-02  0.700  10.4
    8    -829.5676722626913033    -1.39e-02  3.01e-03  1.73e-01  6.88e-02  0.000   8.8
                              *** Initializing SOSCF ***
---------------------------------------S-O-S-C-F--------------------------------------
Iteration    Energy (Eh)           Delta-E    RMSDP     MaxDP     MaxGrad    Time(sec)
--------------------------------------------------------------------------------------
    9    -829.6000851997455356    -3.24e-02  1.80e-05  1.23e-03  5.71e-04     6.6
               *** Restarting incremental Fock matrix formation ***
   10    -829.6000851308863275     6.89e-08  2.08e-05  8.05e-04  1.24e-04     7.9
   11    -829.6000816293812932     3.50e-06  1.42e-05  8.19e-04  3.19e-04     5.4
   12    -829.6000860662898049    -4.44e-06  5.93e-06  4.86e-04  2.82e-05     5.3
                  *** Gradient check signals convergence ***

               *****************************************************
               *                     SUCCESS                       *
               *           SCF CONVERGED AFTER  12 CYCLES          *
               *****************************************************


SMD CDS free energy correction energy :                 7.45878     Kcal/mol
Total Energy after SMD CDS correction =              -829.588199750 Eh
             **** ENERGY FILE WAS UPDATED (sp_solv.en.tmp) ****

----------------
TOTAL SCF ENERGY
----------------

Total Energy       :       -829.58819974982237 Eh          -22574.24257 eV

Components:
Nuclear Repulsion  :       1225.85307412633529 Eh           33357.15799 eV
Electronic Energy  :      -2055.42418459390365 Eh          -55930.93554 eV
One Electron Energy:      -3564.06480186245062 Eh          -96983.13379 eV
Two Electron Energy:       1508.64061726854698 Eh           41052.19825 eV
CPCM Dielectric    :         -0.02897559872138 Eh              -0.78847 eV
SMD CDS (Gcds)     :          0.01188631646744 Eh               0.32344 eV

Virial components:
Potential Energy   :      -1656.02355785351165 Eh          -45062.69195 eV
Kinetic Energy     :        826.43535810368928 Eh           22488.44938 eV
Virial Ratio       :          2.00381498881336

DFT components:
N(Alpha)           :       64.000004751188 electrons
N(Beta)            :       64.000004751188 electrons
N(Total)           :      128.000009502377 electrons
E(X)               :     -109.513703257750 Eh       
E(C)               :       -4.202413975118 Eh       
E(XC)              :     -113.716117232868 Eh       

CPCM Solvation Model Properties:
Surface-charge          :         -0.05435051292263
Corrected charge        :          0.00000000000000
Outlying charge corr.   :          0.00017462046882 Eh               0.00475 eV
Free-energy (cav+disp)  :          0.01188631646744 Eh               0.32344 eV

---------------
SCF CONVERGENCE
---------------

  Last Energy change         ...    4.4369e-06  Tolerance :   1.0000e-06
  Last MAX-Density change    ...    4.8587e-04  Tolerance :   1.0000e-05
  Last RMS-Density change    ...    5.9250e-06  Tolerance :   1.0000e-06
  Last DIIS Error            ...    5.7073e-04  Tolerance :   1.0000e-06
  Last Orbital Gradient      ...    2.8172e-05  Tolerance :   3.3300e-04
  Last Orbital Rotation      ...    8.6928e-05  Tolerance :   3.3300e-04


----------------
ORBITAL ENERGIES
----------------

  NO   OCC          E(Eh)            E(eV) 
   0   2.0000     -24.502368      -666.7433 
   1   2.0000     -19.004156      -517.1294 
   2   2.0000     -18.948425      -515.6129 
   3   2.0000     -10.171430      -276.7787 
   4   2.0000     -10.124693      -275.5069 
   5   2.0000     -10.059374      -273.7295 
   6   2.0000     -10.058072      -273.6941 
   7   2.0000     -10.056358      -273.6474 
   8   2.0000     -10.052307      -273.5372 
   9   2.0000     -10.044257      -273.3181 
  10   2.0000     -10.043283      -273.2916 
  11   2.0000     -10.036703      -273.1126 
  12   2.0000     -10.036592      -273.1096 
  13   2.0000     -10.036346      -273.1029 
  14   2.0000     -10.035317      -273.0749 
  15   2.0000     -10.035100      -273.0689 
  16   2.0000     -10.034317      -273.0476 
  17   2.0000     -10.022215      -272.7183 
  18   2.0000      -1.186464       -32.2853 
  19   2.0000      -1.082609       -29.4593 
  20   2.0000      -0.991435       -26.9783 
  21   2.0000      -0.852503       -23.1978 
  22   2.0000      -0.830341       -22.5947 
  23   2.0000      -0.785347       -21.3704 
  24   2.0000      -0.741613       -20.1803 
  25   2.0000      -0.724714       -19.7205 
  26   2.0000      -0.718280       -19.5454 
  27   2.0000      -0.691267       -18.8103 
  28   2.0000      -0.646687       -17.5972 
  29   2.0000      -0.607620       -16.5342 
  30   2.0000      -0.598348       -16.2819 
  31   2.0000      -0.571973       -15.5642 
  32   2.0000      -0.564408       -15.3583 
  33   2.0000      -0.551557       -15.0086 
  34   2.0000      -0.509079       -13.8527 
  35   2.0000      -0.492725       -13.4077 
  36   2.0000      -0.478544       -13.0218 
  37   2.0000      -0.461778       -12.5656 
  38   2.0000      -0.457161       -12.4400 
  39   2.0000      -0.447015       -12.1639 
  40   2.0000      -0.441303       -12.0085 
  41   2.0000      -0.434161       -11.8141 
  42   2.0000      -0.419491       -11.4149 
  43   2.0000      -0.415150       -11.2968 
  44   2.0000      -0.406590       -11.0639 
  45   2.0000      -0.395881       -10.7725 
  46   2.0000      -0.388599       -10.5743 
  47   2.0000      -0.379911       -10.3379 
  48   2.0000      -0.373249       -10.1566 
  49   2.0000      -0.368347       -10.0232 
  50   2.0000      -0.355103        -9.6628 
  51   2.0000      -0.350421        -9.5354 
  52   2.0000      -0.339664        -9.2427 
  53   2.0000      -0.331593        -9.0231 
  54   2.0000      -0.329106        -8.9554 
  55   2.0000      -0.318315        -8.6618 
  56   2.0000      -0.311383        -8.4732 
  57   2.0000      -0.303047        -8.2463 
  58   2.0000      -0.302594        -8.2340 
  59   2.0000      -0.264593        -7.2000 
  60   2.0000      -0.253936        -6.9099 
  61   2.0000      -0.242544        -6.6000 
  62   2.0000      -0.239809        -6.5255 
  63   2.0000      -0.216941        -5.9033 
  64   0.0000      -0.063610        -1.7309 
  65   0.0000      -0.038576        -1.0497 
  66   0.0000      -0.035315        -0.9610 
  67   0.0000      -0.027769        -0.7556 
  68   0.0000      -0.005776        -0.1572 
  69   0.0000       0.055808         1.5186 
  70   0.0000       0.070191         1.9100 
  71   0.0000       0.092598         2.5197 
  72   0.0000       0.101358         2.7581 
  73   0.0000       0.101718         2.7679 
  74   0.0000       0.111683         3.0391 
*Only the first 10 virtual orbitals were printed.

                    ********************************
                    * MULLIKEN POPULATION ANALYSIS *
                    ********************************

-----------------------
MULLIKEN ATOMIC CHARGES
-----------------------
   0 C :   -0.544189
   1 C :    0.004981
   2 H :    0.182424
   3 C :    0.106119
   4 C :   -0.269909
   5 C :   -0.210465
   6 C :    0.075176
   7 C :    0.307408
   8 C :   -0.358230
   9 F :   -0.250150
  10 C :    0.061565
  11 C :   -0.212134
  12 C :   -0.211186
  13 C :   -0.163315
  14 C :   -0.212733
  15 C :   -0.213703
  16 C :    0.353166
  17 O :   -0.480193
  18 O :   -0.357735
  19 H :    0.181070
  20 H :    0.175295
  21 H :    0.172861
  22 H :    0.193381
  23 H :    0.186684
  24 H :    0.199114
  25 H :    0.183205
  26 H :    0.178584
  27 H :    0.180388
  28 H :    0.178785
  29 H :    0.184442
  30 H :    0.379294
Sum of atomic charges:    0.0000000

--------------------------------
MULLIKEN REDUCED ORBITAL CHARGES
--------------------------------
  0 C s       :     3.379259  s :     3.379259
      pz      :     1.025722  p :     3.138646
      px      :     1.102674
      py      :     1.010250
      dz2     :     0.005214  d :     0.026284
      dxz     :     0.005063
      dyz     :     0.005773
      dx2y2   :     0.008089
      dxy     :     0.002144

  1 C s       :     2.988692  s :     2.988692
      pz      :     0.918512  p :     2.961306
      px      :     0.946598
      py      :     1.096196
      dz2     :     0.010996  d :     0.045021
      dxz     :     0.010407
      dyz     :     0.006719
      dx2y2   :     0.011088
      dxy     :     0.005811

  2 H s       :     0.799883  s :     0.799883
      pz      :     0.003744  p :     0.017693
      px      :     0.003529
      py      :     0.010421

  3 C s       :     3.141391  s :     3.141391
      pz      :     0.980525  p :     2.704349
      px      :     0.827337
      py      :     0.896486
      dz2     :     0.004990  d :     0.048141
      dxz     :     0.007490
      dyz     :     0.007137
      dx2y2   :     0.013961
      dxy     :     0.014564

  4 C s       :     3.206337  s :     3.206337
      pz      :     0.998450  p :     3.026482
      px      :     1.016548
      py      :     1.011485
      dz2     :     0.003846  d :     0.037090
      dxz     :     0.006516
      dyz     :     0.004303
      dx2y2   :     0.010458
      dxy     :     0.011967

  5 C s       :     3.239084  s :     3.239084
      pz      :     0.981254  p :     2.933689
      px      :     0.969797
      py      :     0.982637
      dz2     :     0.003362  d :     0.037692
      dxz     :     0.007383
      dyz     :     0.004150
      dx2y2   :     0.010551
      dxy     :     0.012246

  6 C s       :     3.162776  s :     3.162776
      pz      :     0.979391  p :     2.715524
      px      :     0.778541
      py      :     0.957593
      dz2     :     0.004992  d :     0.046524
      dxz     :     0.007976
      dyz     :     0.006674
      dx2y2   :     0.013192
      dxy     :     0.013691

  7 C s       :     3.149858  s :     3.149858
      pz      :     0.929956  p :     2.467477
      px      :     0.812112
      py      :     0.725410
      dz2     :     0.007521  d :     0.075257
      dxz     :     0.011766
      dyz     :     0.011549
      dx2y2   :     0.021877
      dxy     :     0.022544

  8 C s       :     3.248937  s :     3.248937
      pz      :     1.036751  p :     3.073781
      px      :     0.976344
      py      :     1.060687
      dz2     :     0.003589  d :     0.035512
      dxz     :     0.006537
      dyz     :     0.004275
      dx2y2   :     0.012312
      dxy     :     0.008799

  9 F s       :     3.924358  s :     3.924358
      pz      :     1.878187  p :     5.309287
      px      :     1.803367
      py      :     1.627733
      dz2     :     0.001575  d :     0.016505
      dxz     :     0.002385
      dyz     :     0.003238
      dx2y2   :     0.004976
      dxy     :     0.004330

 10 C s       :     3.257494  s :     3.257494
      pz      :     0.963681  p :     2.632746
      px      :     0.765918
      py      :     0.903147
      dz2     :     0.005263  d :     0.048195
      dxz     :     0.007861
      dyz     :     0.006945
      dx2y2   :     0.014830
      dxy     :     0.013296

 11 C s       :     3.232319  s :     3.232319
      pz      :     0.961711  p :     2.942488
      px      :     0.974292
      py      :     1.006484
      dz2     :     0.003986  d :     0.037328
      dxz     :     0.006942
      dyz     :     0.004194
      dx2y2   :     0.010318
      dxy     :     0.011889

 12 C s       :     3.248069  s :     3.248069
      pz      :     0.996517  p :     2.925354
      px      :     0.936596
      py      :     0.992241
      dz2     :     0.003362  d :     0.037763
      dxz     :     0.006788
      dyz     :     0.004670
      dx2y2   :     0.011125
      dxy     :     0.011817

 13 C s       :     3.211219  s :     3.211219
      pz      :     0.967275  p :     2.914476
      px      :     1.037806
      py      :     0.909396
      dz2     :     0.004498  d :     0.037620
      dxz     :     0.004014
      dyz     :     0.006745
      dx2y2   :     0.012031
      dxy     :     0.010331

 14 C s       :     3.248658  s :     3.248658
      pz      :     0.981211  p :     2.926296
      px      :     0.939908
      py      :     1.005177
      dz2     :     0.004017  d :     0.037780
      dxz     :     0.006975
      dyz     :     0.004206
      dx2y2   :     0.010927
      dxy     :     0.011656

 15 C s       :     3.228869  s :     3.228869
      pz      :     0.984454  p :     2.947600
      px      :     0.979178
      py      :     0.983968
      dz2     :     0.003342  d :     0.037234
      dxz     :     0.006839
      dyz     :     0.004486
      dx2y2   :     0.010489
      dxy     :     0.012078

 16 C s       :     3.126007  s :     3.126007
      pz      :     0.879718  p :     2.394227
      px      :     0.770368
      py      :     0.744141
      dz2     :     0.024181  d :     0.126600
      dxz     :     0.009674
      dyz     :     0.039706
      dx2y2   :     0.024037
      dxy     :     0.029002

 17 O s       :     3.826406  s :     3.826406
      pz      :     1.694345  p :     4.626299
      px      :     1.514429
      py      :     1.417525
      dz2     :     0.004410  d :     0.027488
      dxz     :     0.002345
      dyz     :     0.007009
      dx2y2   :     0.008375
      dxy     :     0.005349

 18 O s       :     3.730045  s :     3.730045
      pz      :     1.390351  p :     4.604241
      px      :     1.705315
      py      :     1.508575
      dz2     :     0.008639  d :     0.023449
      dxz     :     0.001909
      dyz     :     0.004001
      dx2y2   :     0.005708
      dxy     :     0.003193

 19 H s       :     0.800485  s :     0.800485
      pz      :     0.004564  p :     0.018445
      px      :     0.003743
      py      :     0.010138

 20 H s       :     0.806341  s :     0.806341
      pz      :     0.009171  p :     0.018365
      px      :     0.005554
      py      :     0.003639

 21 H s       :     0.808858  s :     0.808858
      pz      :     0.003829  p :     0.018281
      px      :     0.010802
      py      :     0.003650

 22 H s       :     0.786612  s :     0.786612
      pz      :     0.004619  p :     0.020006
      px      :     0.006391
      py      :     0.008996

 23 H s       :     0.793473  s :     0.793473
      pz      :     0.005259  p :     0.019844
      px      :     0.004820
      py      :     0.009765

 24 H s       :     0.780977  s :     0.780977
      pz      :     0.005362  p :     0.019910
      px      :     0.004474
      py      :     0.010074

 25 H s       :     0.797126  s :     0.797126
      pz      :     0.004582  p :     0.019669
      px      :     0.005317
      py      :     0.009769

 26 H s       :     0.801907  s :     0.801907
      pz      :     0.005353  p :     0.019509
      px      :     0.005447
      py      :     0.008709

 27 H s       :     0.800084  s :     0.800084
      pz      :     0.003949  p :     0.019528
      px      :     0.012339
      py      :     0.003240

 28 H s       :     0.801698  s :     0.801698
      pz      :     0.004558  p :     0.019517
      px      :     0.005289
      py      :     0.009670

 29 H s       :     0.795806  s :     0.795806
      pz      :     0.005487  p :     0.019752
      px      :     0.005586
      py      :     0.008679

 30 H s       :     0.580026  s :     0.580026
      pz      :     0.021606  p :     0.040680
      px      :     0.011702
      py      :     0.007372


------------------------
MULLIKEN OVERLAP CHARGES
------------------------
B(  0-C ,  1-C ) :   0.5015 B(  0-C ,  3-C ) :  -0.1621 B(  0-C , 16-C ) :  -0.1877 
B(  0-C , 17-O ) :   0.0556 B(  0-C , 19-H ) :   0.8403 B(  0-C , 20-H ) :   0.8300 
B(  0-C , 21-H ) :   0.8126 B(  1-C ,  2-H ) :   0.8983 B(  1-C ,  8-C ) :  -0.1628 
B(  1-C , 16-C ) :   0.3106 B(  1-C , 17-O ) :  -0.1718 B(  1-C , 18-O ) :  -0.1135 
B(  1-C , 20-H ) :  -0.1186 B(  1-C , 21-H ) :  -0.1159 B(  2-H ,  3-C ) :  -0.1437 
B(  2-H , 16-C ) :  -0.0734 B(  3-C ,  4-C ) :   0.6182 B(  3-C ,  6-C ) :  -0.1114 
B(  3-C ,  8-C ) :   0.4539 B(  3-C , 16-C ) :   0.1249 B(  3-C , 17-O ) :  -0.0592 
B(  3-C , 18-O ) :  -0.0525 B(  3-C , 22-H ) :  -0.1101 B(  3-C , 24-H ) :  -0.0573 
B(  4-C ,  5-C ) :   0.2821 B(  4-C ,  7-C ) :  -0.1981 B(  4-C ,  8-C ) :   0.0992 
B(  4-C , 10-C ) :   0.0614 B(  4-C , 22-H ) :   0.8381 B(  5-C ,  6-C ) :   0.4894 
B(  5-C ,  7-C ) :  -0.0934 B(  5-C ,  8-C ) :  -0.2834 B(  5-C , 10-C ) :  -0.1747 
B(  5-C , 11-C ) :   0.0725 B(  5-C , 15-C ) :  -0.0535 B(  5-C , 22-H ) :  -0.0553 
B(  5-C , 23-H ) :   0.8249 B(  6-C ,  7-C ) :   0.7006 B(  6-C ,  8-C ) :  -0.0806 
B(  6-C ,  9-F ) :  -0.1763 B(  6-C , 10-C ) :   0.0719 B(  6-C , 11-C ) :  -0.1979 
B(  6-C , 15-C ) :  -0.1421 B(  6-C , 23-H ) :  -0.0936 B(  7-C ,  8-C ) :   0.4524 
B(  7-C ,  9-F ) :   0.3949 B(  7-C , 10-C ) :  -0.2390 B(  7-C , 11-C ) :  -0.0640 
B(  7-C , 15-C ) :   0.0828 B(  8-C ,  9-F ) :  -0.1236 B(  8-C , 10-C ) :   0.0694 
B(  8-C , 24-H ) :   0.7918 B( 10-C , 11-C ) :   0.7856 B( 10-C , 13-C ) :  -0.1059 
B( 10-C , 14-C ) :  -0.0950 B( 10-C , 15-C ) :   0.8263 B( 10-C , 25-H ) :  -0.1002 
B( 10-C , 29-H ) :  -0.0953 B( 11-C , 12-C ) :   0.7173 B( 11-C , 13-C ) :  -0.1207 
B( 11-C , 14-C ) :  -0.1058 B( 11-C , 15-C ) :  -0.2154 B( 11-C , 25-H ) :   0.8265 
B( 11-C , 26-H ) :  -0.0785 B( 12-C , 13-C ) :   0.8714 B( 12-C , 14-C ) :  -0.1270 
B( 12-C , 15-C ) :  -0.0871 B( 12-C , 25-H ) :  -0.0544 B( 12-C , 26-H ) :   0.8403 
B( 12-C , 27-H ) :  -0.0744 B( 13-C , 14-C ) :   0.9098 B( 13-C , 15-C ) :  -0.1635 
B( 13-C , 26-H ) :  -0.0790 B( 13-C , 27-H ) :   0.8270 B( 13-C , 28-H ) :  -0.0767 
B( 14-C , 15-C ) :   0.8038 B( 14-C , 27-H ) :  -0.0744 B( 14-C , 28-H ) :   0.8351 
B( 15-C , 28-H ) :  -0.0737 B( 15-C , 29-H ) :   0.8275 B( 16-C , 17-O ) :   1.0357 
B( 16-C , 18-O ) :   0.4663 B( 17-O , 18-O ) :  -0.2115 B( 18-O , 30-H ) :   0.6130 



                     *******************************
                     * LOEWDIN POPULATION ANALYSIS *
                     *******************************

----------------------
LOEWDIN ATOMIC CHARGES
----------------------
   0 C :   -0.375788
   1 C :   -0.140897
   2 H :    0.198905
   3 C :   -0.061285
   4 C :   -0.153568
   5 C :   -0.127665
   6 C :   -0.070131
   7 C :    0.229693
   8 C :   -0.136220
   9 F :   -0.299618
  10 C :   -0.074668
  11 C :   -0.146801
  12 C :   -0.168294
  13 C :   -0.171939
  14 C :   -0.167875
  15 C :   -0.149665
  16 C :    0.361652
  17 O :   -0.477848
  18 O :   -0.381468
  19 H :    0.170221
  20 H :    0.167061
  21 H :    0.166488
  22 H :    0.191901
  23 H :    0.189239
  24 H :    0.198606
  25 H :    0.185376
  26 H :    0.179322
  27 H :    0.178287
  28 H :    0.179364
  29 H :    0.185294
  30 H :    0.322322

-------------------------------
LOEWDIN REDUCED ORBITAL CHARGES
-------------------------------
  0 C s       :     2.963727  s :     2.963727
      pz      :     1.097295  p :     3.350256
      px      :     1.146894
      py      :     1.106066
      dz2     :     0.011778  d :     0.061805
      dxz     :     0.012109
      dyz     :     0.013891
      dx2y2   :     0.019447
      dxy     :     0.004579

  1 C s       :     2.880947  s :     2.880947
      pz      :     1.018245  p :     3.169618
      px      :     1.034917
      py      :     1.116456
      dz2     :     0.021150  d :     0.090333
      dxz     :     0.019422
      dyz     :     0.015310
      dx2y2   :     0.023682
      dxy     :     0.010770

  2 H s       :     0.756789  s :     0.756789
      pz      :     0.008940  p :     0.044306
      px      :     0.008653
      py      :     0.026713

  3 C s       :     2.858491  s :     2.858491
      pz      :     0.976737  p :     3.102619
      px      :     1.035116
      py      :     1.090765
      dz2     :     0.009219  d :     0.100175
      dxz     :     0.013962
      dyz     :     0.014071
      dx2y2   :     0.031352
      dxy     :     0.031570

  4 C s       :     2.890495  s :     2.890495
      pz      :     1.006414  p :     3.181324
      px      :     1.091734
      py      :     1.083175
      dz2     :     0.006870  d :     0.081749
      dxz     :     0.013054
      dyz     :     0.008298
      dx2y2   :     0.024759
      dxy     :     0.028767

  5 C s       :     2.894273  s :     2.894273
      pz      :     0.991550  p :     3.150919
      px      :     1.087211
      py      :     1.072157
      dz2     :     0.005916  d :     0.082473
      dxz     :     0.014574
      dyz     :     0.007987
      dx2y2   :     0.025143
      dxy     :     0.028853

  6 C s       :     2.846646  s :     2.846646
      pz      :     1.011122  p :     3.126267
      px      :     1.051945
      py      :     1.063200
      dz2     :     0.009190  d :     0.097218
      dxz     :     0.014927
      dyz     :     0.012815
      dx2y2   :     0.029253
      dxy     :     0.031034

  7 C s       :     2.789556  s :     2.789556
      pz      :     0.949816  p :     2.814114
      px      :     0.990990
      py      :     0.873309
      dz2     :     0.015858  d :     0.166637
      dxz     :     0.023304
      dyz     :     0.024985
      dx2y2   :     0.050701
      dxy     :     0.051789

  8 C s       :     2.891730  s :     2.891730
      pz      :     1.025574  p :     3.166127
      px      :     1.049578
      py      :     1.090975
      dz2     :     0.006170  d :     0.078363
      dxz     :     0.013049
      dyz     :     0.008222
      dx2y2   :     0.028422
      dxy     :     0.022500

  9 F s       :     3.743573  s :     3.743573
      pz      :     1.881815  p :     5.399749
      px      :     1.822075
      py      :     1.695860
      dz2     :     0.020415  d :     0.156296
      dxz     :     0.019645
      dyz     :     0.031763
      dx2y2   :     0.043311
      dxy     :     0.041161

 10 C s       :     2.849718  s :     2.849718
      pz      :     0.996454  p :     3.124232
      px      :     1.033776
      py      :     1.094002
      dz2     :     0.009640  d :     0.100718
      dxz     :     0.014946
      dyz     :     0.013732
      dx2y2   :     0.032929
      dxy     :     0.029472

 11 C s       :     2.898171  s :     2.898171
      pz      :     0.997665  p :     3.167037
      px      :     1.092343
      py      :     1.077030
      dz2     :     0.007211  d :     0.081592
      dxz     :     0.013921
      dyz     :     0.008108
      dx2y2   :     0.024506
      dxy     :     0.027846

 12 C s       :     2.906330  s :     2.906330
      pz      :     0.995741  p :     3.179667
      px      :     1.097111
      py      :     1.086815
      dz2     :     0.005881  d :     0.082297
      dxz     :     0.013468
      dyz     :     0.009006
      dx2y2   :     0.025942
      dxy     :     0.028001

 13 C s       :     2.907652  s :     2.907652
      pz      :     0.994823  p :     3.182408
      px      :     1.107147
      py      :     1.080439
      dz2     :     0.008063  d :     0.081879
      dxz     :     0.007657
      dyz     :     0.013677
      dx2y2   :     0.028403
      dxy     :     0.024078

 14 C s       :     2.906312  s :     2.906312
      pz      :     0.994286  p :     3.179273
      px      :     1.097334
      py      :     1.087653
      dz2     :     0.007096  d :     0.082290
      dxz     :     0.014115
      dyz     :     0.008029
      dx2y2   :     0.025616
      dxy     :     0.027434

 15 C s       :     2.897842  s :     2.897842
      pz      :     1.004001  p :     3.170417
      px      :     1.094263
      py      :     1.072153
      dz2     :     0.005980  d :     0.081406
      dxz     :     0.013543
      dyz     :     0.008745
      dx2y2   :     0.024693
      dxy     :     0.028445

 16 C s       :     2.743178  s :     2.743178
      pz      :     0.931087  p :     2.621632
      px      :     0.735117
      py      :     0.955429
      dz2     :     0.049925  d :     0.273539
      dxz     :     0.017811
      dyz     :     0.087591
      dx2y2   :     0.060762
      dxy     :     0.057450

 17 O s       :     3.544854  s :     3.544854
      pz      :     1.682060  p :     4.717468
      px      :     1.500593
      py      :     1.534815
      dz2     :     0.035527  d :     0.215525
      dxz     :     0.014845
      dyz     :     0.065973
      dx2y2   :     0.055824
      dxy     :     0.043356

 18 O s       :     3.470533  s :     3.470533
      pz      :     1.428884  p :     4.675939
      px      :     1.668749
      py      :     1.578307
      dz2     :     0.061634  d :     0.234996
      dxz     :     0.027666
      dyz     :     0.056889
      dx2y2   :     0.049910
      dxy     :     0.038897

 19 H s       :     0.784814  s :     0.784814
      pz      :     0.010790  p :     0.044965
      px      :     0.008535
      py      :     0.025640

 20 H s       :     0.788714  s :     0.788714
      pz      :     0.022696  p :     0.044225
      px      :     0.013305
      py      :     0.008224

 21 H s       :     0.789317  s :     0.789317
      pz      :     0.008563  p :     0.044195
      px      :     0.027387
      py      :     0.008245

 22 H s       :     0.761212  s :     0.761212
      pz      :     0.010616  p :     0.046887
      px      :     0.014888
      py      :     0.021383

 23 H s       :     0.764574  s :     0.764574
      pz      :     0.012055  p :     0.046187
      px      :     0.010957
      py      :     0.023175

 24 H s       :     0.754720  s :     0.754720
      pz      :     0.012483  p :     0.046674
      px      :     0.010188
      py      :     0.024003

 25 H s       :     0.768729  s :     0.768729
      pz      :     0.010317  p :     0.045895
      px      :     0.012365
      py      :     0.023213

 26 H s       :     0.775153  s :     0.775153
      pz      :     0.012224  p :     0.045526
      px      :     0.012673
      py      :     0.020628

 27 H s       :     0.776013  s :     0.776013
      pz      :     0.008854  p :     0.045700
      px      :     0.029492
      py      :     0.007354

 28 H s       :     0.775099  s :     0.775099
      pz      :     0.010284  p :     0.045537
      px      :     0.012301
      py      :     0.022951

 29 H s       :     0.768638  s :     0.768638
      pz      :     0.012596  p :     0.046068
      px      :     0.012883
      py      :     0.020589

 30 H s       :     0.561256  s :     0.561256
      pz      :     0.064086  p :     0.116422
      px      :     0.031905
      py      :     0.020431


---------------------------------
LOEWDIN BOND ORDERS (THRESH 0.050000)
---------------------------------
B(  0-C ,  1-C ) :   1.0768 B(  0-C ,  3-C ) :   0.0707 B(  0-C , 16-C ) :   0.0706 
B(  0-C , 19-H ) :   0.9072 B(  0-C , 20-H ) :   0.9142 B(  0-C , 21-H ) :   0.9167 
B(  1-C ,  2-H ) :   0.8225 B(  1-C ,  3-C ) :   1.0085 B(  1-C ,  4-C ) :   0.0784 
B(  1-C ,  8-C ) :   0.0911 B(  1-C , 16-C ) :   0.8786 B(  1-C , 17-O ) :   0.1739 
B(  1-C , 18-O ) :   0.1816 B(  3-C ,  4-C ) :   1.4037 B(  3-C ,  5-C ) :   0.0928 
B(  3-C ,  6-C ) :   0.1101 B(  3-C ,  7-C ) :   0.1027 B(  3-C ,  8-C ) :   1.4274 
B(  3-C , 16-C ) :   0.0796 B(  3-C , 22-H ) :   0.0509 B(  3-C , 24-H ) :   0.0506 
B(  4-C ,  5-C ) :   1.5251 B(  4-C ,  6-C ) :   0.0923 B(  4-C ,  7-C ) :   0.1097 
B(  4-C ,  8-C ) :   0.0855 B(  4-C , 22-H ) :   0.8472 B(  4-C , 23-H ) :   0.0544 
B(  5-C ,  6-C ) :   1.3900 B(  5-C ,  7-C ) :   0.0952 B(  5-C ,  8-C ) :   0.1214 
B(  5-C , 10-C ) :   0.0849 B(  5-C , 22-H ) :   0.0543 B(  5-C , 23-H ) :   0.8530 
B(  6-C ,  7-C ) :   1.3050 B(  6-C ,  8-C ) :   0.0908 B(  6-C ,  9-F ) :   0.1562 
B(  6-C , 10-C ) :   1.0519 B(  6-C , 11-C ) :   0.0866 B(  6-C , 15-C ) :   0.0884 
B(  6-C , 23-H ) :   0.0506 B(  7-C ,  8-C ) :   1.3916 B(  7-C ,  9-F ) :   1.3173 
B(  7-C , 10-C ) :   0.0800 B(  7-C , 24-H ) :   0.0577 B(  8-C ,  9-F ) :   0.1708 
B(  8-C , 24-H ) :   0.8485 B( 10-C , 11-C ) :   1.4152 B( 10-C , 12-C ) :   0.0908 
B( 10-C , 13-C ) :   0.1227 B( 10-C , 14-C ) :   0.0902 B( 10-C , 15-C ) :   1.4137 
B( 10-C , 25-H ) :   0.0509 B( 10-C , 29-H ) :   0.0513 B( 11-C , 12-C ) :   1.5193 
B( 11-C , 13-C ) :   0.0895 B( 11-C , 14-C ) :   0.1282 B( 11-C , 15-C ) :   0.0820 
B( 11-C , 25-H ) :   0.8570 B( 11-C , 26-H ) :   0.0555 B( 12-C , 13-C ) :   1.5039 
B( 12-C , 14-C ) :   0.0880 B( 12-C , 15-C ) :   0.1283 B( 12-C , 25-H ) :   0.0531 
B( 12-C , 26-H ) :   0.8686 B( 12-C , 27-H ) :   0.0539 B( 13-C , 14-C ) :   1.5043 
B( 13-C , 15-C ) :   0.0893 B( 13-C , 26-H ) :   0.0535 B( 13-C , 27-H ) :   0.8711 
B( 13-C , 28-H ) :   0.0535 B( 14-C , 15-C ) :   1.5197 B( 14-C , 27-H ) :   0.0538 
B( 14-C , 28-H ) :   0.8687 B( 14-C , 29-H ) :   0.0531 B( 15-C , 28-H ) :   0.0554 
B( 15-C , 29-H ) :   0.8577 B( 16-C , 17-O ) :   2.1610 B( 16-C , 18-O ) :   1.5172 
B( 16-C , 30-H ) :   0.0538 B( 17-O , 18-O ) :   0.4626 B( 18-O , 30-H ) :   0.8975 


------------------------------------------
LOEWDIN REDUCED ORBITAL POPULATIONS PER MO
-------------------------------------------
THRESHOLD FOR PRINTING IS 0.1%%
                      0         1         2         3         4         5   
                 -24.50237 -19.00416 -18.94842 -10.17143 -10.12469 -10.05937
                   2.00000   2.00000   2.00000   2.00000   2.00000   2.00000
                  --------  --------  --------  --------  --------  --------
 1 C  s               0.0       0.0       0.0       0.0       0.0       0.4
 3 C  s               0.0       0.0       0.0       0.0       0.0      99.1
 7 C  s               0.0       0.0       0.0       0.0      99.2       0.0
 8 C  px              0.0       0.0       0.0       0.0       0.1       0.0
 9 F  s             100.0       0.0       0.0       0.0       0.0       0.0
 9 F  dxy             0.0       0.0       0.0       0.0       0.2       0.0
16 C  s               0.0       0.0       0.0      98.9       0.0       0.0
17 O  s               0.0       0.0      99.9       0.0       0.0       0.0
17 O  py              0.0       0.0       0.0       0.2       0.0       0.0
17 O  dyz             0.0       0.0       0.0       0.1       0.0       0.0
17 O  dx2y2           0.0       0.0       0.0       0.2       0.0       0.0
18 O  s               0.0      99.9       0.0       0.0       0.0       0.0
18 O  py              0.0       0.0       0.0       0.1       0.0       0.0
18 O  dyz             0.0       0.0       0.0       0.2       0.0       0.0
18 O  dx2y2           0.0       0.0       0.0       0.1       0.0       0.0

                      6         7         8         9        10        11   
                 -10.05807 -10.05636 -10.05231 -10.04426 -10.04328 -10.03670
                   2.00000   2.00000   2.00000   2.00000   2.00000   2.00000
                  --------  --------  --------  --------  --------  --------
 1 C  s              99.3       0.0       0.0       0.0       0.0       0.0
 3 C  s               0.4       0.0       0.0       0.0       0.0       0.0
 4 C  s               0.0       0.0       0.0       0.1       0.0      99.5
 4 C  px              0.0       0.0       0.0       0.1       0.0       0.0
 5 C  s               0.0       0.1       0.0      99.4       0.0       0.1
 5 C  px              0.0       0.0       0.0       0.0       0.0       0.1
 6 C  s               0.0      99.4       0.1       0.1       0.0       0.0
 6 C  px              0.0       0.0       0.1       0.0       0.0       0.0
 7 C  px              0.0       0.0       0.0       0.0       0.1       0.0
 8 C  s               0.0       0.0       0.0       0.0      99.6       0.0
10 C  s               0.0       0.1      99.4       0.0       0.0       0.0

                     12        13        14        15        16        17   
                 -10.03659 -10.03635 -10.03532 -10.03510 -10.03432 -10.02222
                   2.00000   2.00000   2.00000   2.00000   2.00000   2.00000
                  --------  --------  --------  --------  --------  --------
 0 C  s               0.0       0.0       0.0       0.0       0.0      99.7
11 C  s               0.1      95.9       0.3       3.2       0.1       0.0
11 C  px              0.0       0.0       0.0       0.1       0.0       0.0
12 C  s               0.0       3.6       6.2      81.5       8.4       0.0
12 C  px              0.0       0.1       0.0       0.0       0.0       0.0
13 C  s               0.0       0.1       9.3       4.3      85.9       0.0
13 C  py              0.0       0.0       0.0       0.1       0.0       0.0
14 C  s               3.3       0.0      80.8      10.3       5.2       0.0
14 C  px              0.1       0.0       0.0       0.0       0.0       0.0
15 C  s              96.2       0.1       3.0       0.3       0.1       0.0
15 C  px              0.0       0.0       0.1       0.0       0.0       0.0

                     18        19        20        21        22        23   
                  -1.18646  -1.08261  -0.99144  -0.85250  -0.83034  -0.78535
                   2.00000   2.00000   2.00000   2.00000   2.00000   2.00000
                  --------  --------  --------  --------  --------  --------
 0 C  s               0.0       0.1       0.0       0.4       0.6       6.4
 0 C  pz              0.0       0.2       0.1       0.1       0.1       0.9
 0 C  px              0.0       0.0       0.0       0.1       0.1       0.3
 0 C  py              0.0       0.0       0.0       0.1       0.1       0.8
 1 C  s               0.0       1.1       0.1       2.2       2.5      16.4
 1 C  pz              0.0       1.9       0.1       0.0       0.0       0.0
 1 C  px              0.0       0.4       0.0       1.0       0.6       0.2
 1 C  py              0.0       0.0       0.4       0.0       0.0       0.3
 2 H  s               0.0       0.1       0.0       0.2       0.3       2.2
 2 H  py              0.0       0.0       0.0       0.0       0.0       0.2
 3 C  s               0.0       0.1       0.0       9.4       6.3       6.6
 3 C  px              0.0       0.3       0.0       0.9       0.1       4.1
 4 C  s               0.0       0.0       0.0       7.7       3.3       0.1
 4 C  pz              0.0       0.0       0.0       0.1       0.1       0.2
 4 C  px              0.0       0.1       0.0       0.5       0.0       3.1
 4 C  py              0.0       0.0       0.0       1.3       0.8       0.5
 5 C  s               0.0       0.0       0.0       8.9       0.8       3.6
 5 C  pz              0.0       0.0       0.0       0.3       0.0       0.1
 5 C  px              0.0       0.0       0.0       0.0       1.2       1.0
 5 C  py              0.0       0.0       0.0       1.8       0.1       0.9
 6 C  s               0.4       0.0       0.0      13.1       0.0       9.1
 6 C  pz              0.2       0.0       0.0       0.0       0.1       0.0
 6 C  px              0.0       0.0       0.0       0.3       3.8       0.2
 6 C  py              1.0       0.0       0.0       0.0       0.0       0.0
 7 C  s               6.6       0.0       0.0       7.1       0.9       2.5
 7 C  pz              0.8       0.0       0.0       0.4       0.0       0.4
 7 C  px              2.8       0.0       0.0       0.6       1.6       0.5
 7 C  py              6.1       0.0       0.0       3.1       0.1       1.9
 7 C  dz2             0.2       0.0       0.0       0.0       0.0       0.0
 7 C  dyz             0.2       0.0       0.0       0.0       0.0       0.0
 7 C  dxy             0.7       0.0       0.0       0.1       0.0       0.1
 8 C  s               0.4       0.0       0.0       7.7       3.7       0.2
 8 C  pz              0.0       0.0       0.0       0.3       0.1       0.0
 8 C  px              1.2       0.0       0.0       0.2       0.1       2.8
 8 C  py              0.1       0.0       0.0       1.7       0.7       0.2
 9 F  s              76.6       0.0       0.0       1.0       0.1       0.5
 9 F  pz              0.1       0.0       0.0       0.1       0.0       0.1
 9 F  px              0.5       0.0       0.0       0.2       0.1       0.1
 9 F  py              1.1       0.0       0.0       0.5       0.0       0.4
 9 F  dxy             0.1       0.0       0.0       0.1       0.0       0.0
10 C  s               0.0       0.0       0.0       7.6       9.0       0.9
10 C  px              0.1       0.0       0.0       0.3       2.4       3.1
10 C  py              0.1       0.0       0.0       0.0       0.0       0.0
11 C  s               0.0       0.0       0.0       3.1       8.8       0.2
11 C  pz              0.1       0.0       0.0       0.2       0.2       0.0
11 C  px              0.1       0.0       0.0       0.0       0.5       1.3
11 C  py              0.0       0.0       0.0       0.8       1.4       0.0
12 C  s               0.0       0.0       0.0       1.6       8.4       2.4
12 C  pz              0.0       0.0       0.0       0.1       0.3       0.1
12 C  px              0.0       0.0       0.0       0.3       0.6       0.0
12 C  py              0.0       0.0       0.0       0.2       1.1       0.4
13 C  s               0.0       0.0       0.0       1.3       8.2       3.5
13 C  px              0.0       0.0       0.0       0.5       2.0       0.3
14 C  s               0.0       0.0       0.0       1.7       8.4       2.3
14 C  pz              0.0       0.0       0.0       0.0       0.2       0.1
14 C  px              0.0       0.0       0.0       0.3       0.5       0.1
14 C  py              0.0       0.0       0.0       0.3       1.3       0.4
15 C  s               0.0       0.0       0.0       3.3       8.8       0.2
[...]
18 O  px              0.0       2.7       0.0       0.0       0.0       0.0
18 O  py              0.0       0.4       0.0       0.0       0.0       0.0
18 O  dz2             0.0      15.9       0.0       0.0       0.0       0.0
18 O  dxz             0.0       8.0       0.0       0.0       0.0       0.0
18 O  dyz             0.0       6.6       0.0       0.0       0.0       0.0
18 O  dx2y2           0.0       1.9       0.0       0.0       0.0       0.0
18 O  dxy             0.0       1.0       0.0       0.0       0.0       0.0
23 H  s               0.2       0.0       0.0       0.0       0.0       0.0
23 H  px              0.1       0.0       0.0       0.0       0.0       0.0
23 H  py              0.1       0.0       0.0       0.0       0.0       0.0
24 H  s               0.5       0.0       0.0       0.0       0.0       0.0
24 H  px              0.1       0.0       0.0       0.0       0.0       0.0
24 H  py              0.4       0.0       0.0       0.0       0.0       0.0
30 H  s               0.0      10.9       0.0       0.0       0.0       0.0
30 H  pz              0.0      10.9       0.0       0.0       0.0       0.0
30 H  px              0.0       1.8       0.0       0.0       0.0       0.0
30 H  py              0.0       0.3       0.0       0.0       0.0       0.0

                    408       409       410       411       412       413   
                  21.98872  22.01814  22.03955  22.14963  22.20459  22.21601
                   0.00000   0.00000   0.00000   0.00000   0.00000   0.00000
                  --------  --------  --------  --------  --------  --------
 0 C  s               7.0      65.1       4.6       0.2       0.0       1.5
 1 C  s               1.0      14.3       4.6       0.9       0.0       2.3
 3 C  s               0.1       4.7      18.3      15.4       1.2       3.1
 4 C  s              11.0       1.1       0.0       8.2       9.6       3.8
 5 C  s               6.6       1.1       8.7       1.9       3.1       0.1
 6 C  s               0.0       0.0       7.5      15.4       0.5      15.0
 7 C  s               8.4       7.2       4.6       9.6       1.4       0.1
 8 C  s               5.4       0.0      10.8       0.0       7.9       4.3
10 C  s               0.0       0.7       5.0       5.1       1.1      26.0
11 C  s              10.1       0.2       7.5       6.0      21.2       0.4
12 C  s              20.2       1.2       0.9       1.9      13.6       9.3
13 C  s               0.0       1.4      16.9      19.7       0.3      12.0
14 C  s              19.6       0.2       0.8       1.5      21.1       4.4
15 C  s              10.0       1.8       7.6       5.5      17.8       2.6
16 C  s               0.0       0.5       1.5       8.4       0.6      14.6

                    414       415       416       417       418       419   
                  22.23233  22.26776  22.31813  22.34129  22.39167  43.68254
                   0.00000   0.00000   0.00000   0.00000   0.00000   0.00000
                  --------  --------  --------  --------  --------  --------
 0 C  s               5.4       5.8       3.6       1.0       1.8       0.0
 1 C  s              28.7      21.1      18.3       4.4       3.9       0.0
 3 C  s               0.2       6.7       0.2       3.3      24.4       0.0
 4 C  s               5.5       9.8       5.4       0.0      16.3       0.0
 5 C  s               4.0      13.5      16.4       1.8       8.0       0.0
 6 C  s               5.7       2.3      11.2       0.1       5.1       0.0
 7 C  s               7.1       4.6       4.8       0.6       3.4       0.0
 8 C  s               5.3      17.9       2.7       0.0      12.7       0.0
10 C  s               3.9       0.9       5.4      11.1       0.8       0.0
11 C  s               2.3       6.6       2.5      12.3       1.1       0.0
12 C  s               3.8       1.2       2.1      12.8       1.7       0.0
13 C  s               0.4       0.0       2.9      11.7       1.3       0.0
14 C  s               0.4       2.0       2.5      12.2       1.8       0.0
15 C  s               6.2       4.2       2.6      12.8       1.6       0.0
16 C  s              20.6       2.8      18.9      15.4      15.6       0.1
18 O  s               0.0       0.0       0.0       0.0       0.0      99.8

                    420       421   
                  43.72405  57.17991
                   0.00000   0.00000
                  --------  --------
 9 F  s               0.0      99.9
17 O  s              99.9       0.0


                      *****************************
                      * MAYER POPULATION ANALYSIS *
                      *****************************

  NA   - Mulliken gross atomic population
  ZA   - Total nuclear charge
  QA   - Mulliken gross atomic charge
  VA   - Mayer's total valence
  BVA  - Mayer's bonded valence
  FA   - Mayer's free valence

  ATOM       NA         ZA         QA         VA         BVA        FA
  0 C      6.5442     6.0000    -0.5442     3.8066     3.8066    -0.0000
  1 C      5.9950     6.0000     0.0050     3.6507     3.6507    -0.0000
  2 H      0.8176     1.0000     0.1824     0.9597     0.9597    -0.0000
  3 C      5.8939     6.0000     0.1061     3.5260     3.5260    -0.0000
  4 C      6.2699     6.0000    -0.2699     3.9728     3.9728    -0.0000
  5 C      6.2105     6.0000    -0.2105     3.7749     3.7749     0.0000
  6 C      5.9248     6.0000     0.0752     3.4384     3.4384     0.0000
  7 C      5.6926     6.0000     0.3074     3.7687     3.7687     0.0000
  8 C      6.3582     6.0000    -0.3582     3.8307     3.8307    -0.0000
  9 F      9.2501     9.0000    -0.2501     0.9705     0.9705     0.0000
 10 C      5.9384     6.0000     0.0616     3.4308     3.4308    -0.0000
 11 C      6.2121     6.0000    -0.2121     3.8069     3.8069     0.0000
 12 C      6.2112     6.0000    -0.2112     3.7856     3.7856     0.0000
 13 C      6.1633     6.0000    -0.1633     3.7329     3.7329     0.0000
 14 C      6.2127     6.0000    -0.2127     3.7878     3.7878     0.0000
 15 C      6.2137     6.0000    -0.2137     3.7797     3.7797     0.0000
 16 C      5.6468     6.0000     0.3532     3.9430     3.9430    -0.0000
 17 O      8.4802     8.0000    -0.4802     1.9255     1.9255    -0.0000
 18 O      8.3577     8.0000    -0.3577     1.9904     1.9904    -0.0000
 19 H      0.8189     1.0000     0.1811     0.9552     0.9552    -0.0000
 20 H      0.8247     1.0000     0.1753     0.9561     0.9561    -0.0000
 21 H      0.8271     1.0000     0.1729     0.9548     0.9548    -0.0000
 22 H      0.8066     1.0000     0.1934     0.9496     0.9496     0.0000
 23 H      0.8133     1.0000     0.1867     0.9571     0.9571    -0.0000
 24 H      0.8009     1.0000     0.1991     0.9534     0.9534    -0.0000
 25 H      0.8168     1.0000     0.1832     0.9554     0.9554     0.0000
 26 H      0.8214     1.0000     0.1786     0.9586     0.9586     0.0000
 27 H      0.8196     1.0000     0.1804     0.9577     0.9577     0.0000
 28 H      0.8212     1.0000     0.1788     0.9586     0.9586     0.0000
 29 H      0.8156     1.0000     0.1844     0.9563     0.9563     0.0000
 30 H      0.6207     1.0000     0.3793     0.8635     0.8635    -0.0000

  Mayer bond orders larger than 0.100000
B(  0-C ,  1-C ) :   0.9042 B(  0-C , 19-H ) :   0.9648 B(  0-C , 20-H ) :   0.9697 
B(  0-C , 21-H ) :   0.9680 B(  1-C ,  2-H ) :   0.9611 B(  1-C ,  3-C ) :   0.8296 
B(  1-C , 16-C ) :   0.9403 B(  3-C ,  4-C ) :   1.3540 B(  3-C ,  8-C ) :   1.3831 
B(  4-C ,  5-C ) :   1.4458 B(  4-C , 22-H ) :   0.9358 B(  5-C ,  6-C ) :   1.3315 
B(  5-C , 23-H ) :   0.9411 B(  6-C ,  7-C ) :   1.4301 B(  6-C , 10-C ) :   0.7635 
B(  7-C ,  8-C ) :   1.3828 B(  7-C ,  9-F ) :   0.8931 B(  8-C , 24-H ) :   0.9252 
B( 10-C , 11-C ) :   1.3761 B( 10-C , 15-C ) :   1.3729 B( 11-C , 12-C ) :   1.4133 
B( 11-C , 25-H ) :   0.9460 B( 12-C , 13-C ) :   1.3796 B( 12-C , 26-H ) :   0.9595 
B( 13-C , 14-C ) :   1.3800 B( 13-C , 27-H ) :   0.9522 B( 14-C , 15-C ) :   1.4124 
B( 14-C , 28-H ) :   0.9589 B( 15-C , 29-H ) :   0.9467 B( 16-C , 17-O ) :   1.8574 
B( 16-C , 18-O ) :   1.0992 B( 18-O , 30-H ) :   0.8350 

-------
TIMINGS
-------

Total SCF time: 0 days 0 hours 1 min 44 sec 

Total time                  ....     104.239 sec
Sum of individual times     ....     104.203 sec  (100.0%)

SCF preparation             ....       0.713 sec  (  0.7%)
Fock matrix formation       ....     101.675 sec  ( 97.5%)
  Startup                   ....       0.021 sec  (  0.0% of F)
  Split-RI-J                ....      23.738 sec  ( 23.3% of F)
  XC integration            ....      52.612 sec  ( 51.7% of F)
    Basis function eval.    ....       8.121 sec  ( 15.4% of XC)
    Density eval.           ....      23.194 sec  ( 44.1% of XC)
    XC-Functional eval.     ....       3.629 sec  (  6.9% of XC)
    XC-Potential eval.      ....      16.838 sec  ( 32.0% of XC)
  CPCM terms                ....      25.030 sec  ( 24.6% of F)
Diagonalization             ....       0.000 sec  (  0.0%)
Density matrix formation    ....       0.123 sec  (  0.1%)
Total Energy calculation    ....       0.016 sec  (  0.0%)
Population analysis         ....       0.571 sec  (  0.5%)
Orbital Transformation      ....       0.126 sec  (  0.1%)
Orbital Orthonormalization  ....       0.000 sec  (  0.0%)
DIIS solution               ....       0.831 sec  (  0.8%)
  MO trafo                  ....       0.000 sec  (  0.0 % of DIIS)
  Orb grad                  ....       0.000 sec  (  0.0 % of DIIS)
  Energy W gradient         ....       0.000 sec  (  0.0 % of DIIS)
  DIIS error                ....       0.147 sec  ( 17.7 % of DIIS)
  DIIS work                 ....       0.600 sec  ( 72.2 % of DIIS)
  Form Q                    ....       0.000 sec  (  0.0 % of DIIS)
  Form QpQm                 ....       0.000 sec  (  0.0 % of DIIS)
  Exp/Cayley                ....       0.000 sec  (  0.0 % of DIIS)
  Orb update                ....       0.000 sec  (  0.0 % of DIIS)
  Wake-sleep                ....       0.004 sec  (  0.5 % of DIIS)
SOSCF solution              ....       0.148 sec  (  0.1%)
  MO trafo                  ....       0.090 sec  ( 60.6 % of SOSCF)
  Orb grad                  ....       0.001 sec  (  0.4 % of SOSCF)
  Rot update                ....       0.007 sec  (  4.5 % of SOSCF)
  Step                      ....       0.051 sec  ( 34.5 % of SOSCF)
Finished LeanSCF after 104.6 sec

Maximum memory used throughout the entire LEANSCF-calculation: 77.3 MB


-------------------------------------------------------------------------------
                          DFT DISPERSION CORRECTION                            
                                                                               
                                DFTD4 V3.4.0                                   
-------------------------------------------------------------------------------
The R2SCAN3C composite method is recognized
Using three-body term ABC
Active option DFTDOPT                   ...         5   

-------------------------   ----------------
Dispersion correction           -0.013408500
-------------------------   ----------------

------------------   -----------------
gCP correction             0.010620816
------------------   -----------------

-------------------------   --------------------
FINAL SINGLE POINT ENERGY      -829.590987432828
-------------------------   --------------------


------------------------------------------------------------------------------
                              ORCA PROPERTY CALCULATIONS
------------------------------------------------------------------------------

GBWName                                 ... sp_solv.gbw
Number of atoms                         ...     31
Number of basis functions               ...    422
Max core memory                         ...   1024 MB

Electric properties:
Dipole moment                           ... YES
Quadrupole moment                       ...  NO
Static polarizability (Dipole/Dipole)   ...  NO
Static polarizability (Dipole/Quad.)    ...  NO
Static polarizability (Quad./Quad.)     ...  NO
Static polarizability (Velocity)        ...  NO

Atomic electric properties:
Dipole moment                           ...  NO
Quadrupole moment                       ...  NO
Static polarizability                   ...  NO

Choice of electric origin               ... Center of mass
Position of electric origin             ...     0.000022     0.000010    -0.000007

General magnetic properties:
Magnetizability                         ...  NO

EPR properties:
g-Tensor (aka g-matrix)                 ...  NO
Zero-Field splitting spin-orbit         ...  NO
Zero-field splitting spin-spin          ...  NO
Hyperfine couplings                     ...  NO (   0 nuclei)
Quadrupole couplings                    ...  NO (   0 nuclei)
Contact density                         ...  NO (   0 nuclei)

NMR properties:
Chemical shifts                         ...  NO (   0 nuclei)
Spin-rotation constants                 ...  NO (   0 nuclei)
Spin-spin couplings                     ...  NO (   0 nuclei,    0 pairs)

Choice of magnetic origin               ... GIAO
Position of magnetic origin             ...     0.000000     0.000000     0.000000

Properties with geometric perturbations:
SCF Hessian                             ...  NO
IR spectrum                             ...  NO
VCD spectrum                            ...  NO
X-ray spectroscopy properties:
SCF XES/XAS/RIXS spectra                ...  NO


-------------
DIPOLE MOMENT
-------------

Method             : SCF
Type of density    : Electron Density
Multiplicity       :   1
Irrep              :   0
Energy             :  -829.5881997498223654 Eh
Relativity type    : 
Basis              : AO
                                X                 Y                 Z
Electronic contribution:      1.658276589      -6.993233507       1.786903765
Nuclear contribution   :     -1.932252207       6.648323298      -1.789543972
                        -----------------------------------------
Total Dipole Moment    :     -0.273975618      -0.344910209      -0.002640207
                        -----------------------------------------
Magnitude (a.u.)       :      0.440491387
Magnitude (Debye)      :      1.119640127



--------------------
Rotational spectrum 
--------------------
 
Rotational constants in cm-1:             0.036361             0.006393             0.006097 
Rotational constants in MHz :          1090.073896           191.647835           182.789954 

Dipole components along the rotational axes: 
x,y,z [a.u.] :    -0.269005    -0.345316     0.049251 
x,y,z [Debye]:    -0.683757    -0.877724     0.125187 

 

Dipole moment calculation done in   0.0 sec 

Maximum memory used throughout the entire PROP-calculation: 36.8 MB

--------------------------------
SUGGESTED CITATIONS FOR THIS RUN
--------------------------------

Below you find a list of papers that are relevant to this ORCA run
We neither can nor want to force you to cite these papers, but we appreciate if you do
You receive ORCA, which is the product of decades of hard work by many enthusiastic individuals, for free
The only thing we kindly ask in return is that you cite our papers,
We deeply appreciate it, if you show your appreciation for ORCA by not just citing the generic ORCA reference.

Please note that relegating all ORCA citations to the supporting information does *not* help us.
SI sections are not indexed - citations you put there will not count into any citation statistics
But we need these citations in order to attract the funding resources that allow us to do what we are doing

Therefore, if you are a happy ORCA user, please consider citing a few of the papers listed below in the main body of your paper

In addition to the list printed below, the program has created the file sp_solv.bibtex that contains the list in bibtex format
You can import this file easily into all common literature databanks and citation aid programs


List of essential papers. We consider these as the minimum necessary citations

  1. Neese,F.
     Software update: the ORCA program system, version 5.0
     WIRES Comput. Molec. Sci., 2022 12(1)e1606
     doi.org/10.1002/wcms.1606
  2. Grimme,S.; Hansen,A.; Ehlert,S.; Mewes,J.
     r2SCAN-3c: A 'Swiss army knife' composite electronic-structure method
     J. Chem. Phys., 2021 154 064103
     doi.org/10.1063/5.0040021

List of papers to cite with high priority. The work reported in these papers was absolutely
necessary for this run to complete.
Our perspective: the developers of density functionals and basis sets usually get cited in chemistry papers
Good! But without the algorithms to do something with them, the functionals or basis sets would not do anything.
Hence, in our opinion, the algorithm design and method developments papers are equally worthy of getting cited

  1. Neese,F.
     An improvement of the resolution of the identity approximation for the formation of the Coulomb matrix
     J. Comp. Chem., 2003 24(14)1740-1747
     doi.org/10.1002/jcc.10318
  2. Garcia-Rates,M.; Neese,F.
     Effect of the Solute Cavity on the Solvation Energy and its Derivatives within the Framework of the Gaussian Charge Scheme
     J. Comput. Chem., 2020 41 922-939
     doi.org/10.1002/jcc.26139
  3. Neese,F.
     The SHARK Integral Generation and Digestion System
     J. Comp. Chem., 2022  1-16
     doi.org/10.1002/jcc.26942
  4. Lehtola,S.; Steigemann,C.; Oliveira,M.; Marques,M.
     Recent developments in Libxc - A comprehensive library of functionals for density functional theory
     Software X, 2018 7 
     doi.org/10.1016/j.softx.2017.11.002
  5. Caldeweyher,E.; Bannwarth,C.; Grimme,S.
     Extension of the D3 dispersion coefficient model
     J. Chem. Phys., 2017 147 034112
     doi.org/10.1063/1.4993215
  6. Caldeweyher,E.; Ehlert,S.; Hansen,A.; Neugebauer,H.; Spicher,S.; Bannwarth,C.; Grimme,S.
     A generally applicable atomic-charge dependent London dispersion correction
     J. Chem. Phys., 2019 150 154122
     doi.org/10.1063/1.5090222
  7. Caldeweyher,E.; Mewes,J.; Ehlert,S.; Grimme,S.
     Extension and evaluation of the D4 London-dispersion model for periodic systems
     Phys. Chem. Chem. Phys., 2020 22(16)8499-8512
     doi.org/10.1039/D0CP00502A
  8. Wittmann,L.; Gordiy,I.; Friede,M.; Helmich-Paris,B.; Grimme,S.; Hansen,A.; Bursch,M.
     Extension of the D3 and D4 London Dispersion Corrections to the full Actinides Series
     Phys. Chem. Chem. Phys., 2024 26(32)21379-21394
     doi.org/https://doi.org/10.1039/D4CP01514B 

List of suggested additional citations. These are papers that are important in the 'surrounding' of 
of this run, or papers that preceded the highly important papers. If you like your results we are grateful for a citation.

  1. Neese,F.
     The ORCA program system
     WIRES Comput. Molec. Sci., 2012 2(1)73-78
     doi.org/10.1002/wcms.81
  2. Neese,F.
     Software update: the ORCA program system, version 4.0
     WIRES Comput. Molec. Sci., 2018 8(1)1-6
     doi.org/10.1002/wcms.1327
  3. Neese,F.; Wennmohs,F.; Becker,U.; Riplinger,C.
     The ORCA quantum chemistry program package
     J. Chem. Phys., 2020 152 Art. No. L224108
     doi.org/10.1063/5.0004608

List of optional additional citations

  1. Neese,F.
     Approximate second-order SCF convergence for spin unrestricted wavefunctions
     Chem. Phys. Lett., 2000 325(1-3)93-98
     doi.org/10.1016/s0009-2614(00)00662-x

Timings for individual modules:

Sum of individual times          ...      108.220 sec (=   1.804 min)
Startup calculation              ...        3.041 sec (=   0.051 min)   2.8 %
SCF iterations                   ...      105.060 sec (=   1.751 min)  97.1 %
Property calculations            ...        0.119 sec (=   0.002 min)   0.1 %
                             ****ORCA TERMINATED NORMALLY****
TOTAL RUN TIME: 0 days 0 hours 1 minutes 48 seconds 618 msec
