      -----------------------------------------------------------      
     |                   =====================                   |     
     |                           x T B                           |     
     |                   =====================                   |     
     |                         S. Grimme                         |     
     |          Mulliken Center for Theoretical Chemistry        |     
     |                    University of Bonn                     |     
      -----------------------------------------------------------      

   * xtb version 6.7.1 (edcfbbe) compiled by 'albert@albert-system' on 2024-07-22

   xtb is free software: you can redistribute it and/or modify it under
   the terms of the GNU Lesser General Public License as published by
   the Free Software Foundation, either version 3 of the License, or
   (at your option) any later version.
   
   xtb is distributed in the hope that it will be useful,
   but WITHOUT ANY WARRANTY; without even the implied warranty of
   MERCHANTABILITY or FITNESS FOR A PARTICULAR PURPOSE.  See the
   GNU Lesser General Public License for more details.
   
   Cite this work as:
   * C. Bannwarth, E. Caldeweyher, S. Ehlert, A. Hansen, P. Pracht,
     J. Seibert, S. Spicher, S. Grimme, WIREs Comput. Mol. Sci., 2020, 11,
     e01493. DOI: 10.1002/wcms.1493
   
   for GFN2-xTB:
   * C. Bannwarth, S. Ehlert and S. Grimme., J. Chem. Theory Comput., 2019,
     15, 1652-1671. DOI: 10.1021/acs.jctc.8b01176
   for GFN1-xTB:
   * S. Grimme, C. Bannwarth, P. Shushkov, J. Chem. Theory Comput., 2017,
     13, 1989-2009. DOI: 10.1021/acs.jctc.7b00118
   for GFN0-xTB:
   * P. Pracht, E. Caldeweyher, S. Ehlert, S. Grimme, ChemRxiv, 2019, preprint.
     DOI: 10.26434/chemrxiv.8326202.v1
   for GFN-FF:
   * S. Spicher and S. Grimme, Angew. Chem. Int. Ed., 2020, 59, 15665-15673.
     DOI: 10.1002/anie.202004239
   
   for ALPB and GBSA implicit solvation:
   * S. Ehlert, M. Stahn, S. Spicher, S. Grimme, J. Chem. Theory Comput.,
     2021, 17, 4250-4261. DOI: 10.1021/acs.jctc.1c00471
   
   for ddCOSMO and CPCM-X implicit solvation:
   * M. Stahn, S. Ehlert, S. Grimme, J. Phys. Chem. A,
     2023, XX, XXXX-XXXX. DOI: 10.1021/acs.jpca.3c04382
   
   for DFT-D4:
   * E. Caldeweyher, C. Bannwarth and S. Grimme, J. Chem. Phys., 2017,
     147, 034112. DOI: 10.1063/1.4993215
   * E. Caldeweyher, S. Ehlert, A. Hansen, H. Neugebauer, S. Spicher,
     C. Bannwarth and S. Grimme, J. Chem. Phys., 2019, 150, 154122.
     DOI: 10.1063/1.5090222
   * E. Caldeweyher, J.-M. Mewes, S. Ehlert and S. Grimme, Phys. Chem. Chem. Phys.
     2020, 22, 8499-8512. DOI: 10.1039/D0CP00502A
   
   for sTDA-xTB:
   * S. Grimme and C. Bannwarth, J. Chem. Phys., 2016, 145, 054103.
     DOI: 10.1063/1.4959605
   
   in the mass-spec context:
   * V. Asgeirsson, C. Bauer and S. Grimme, Chem. Sci., 2017, 8, 4879.
     DOI: 10.1039/c7sc00601b
   * J. Koopman and S. Grimme, ACS Omega 2019, 4, 12, 15120-15133.
     DOI: 10.1021/acsomega.9b02011
   
   for metadynamics refer to:
   * S. Grimme, J. Chem. Theory Comput., 2019, 155, 2847-2862
     DOI: 10.1021/acs.jctc.9b00143
   
   for SPH calculations refer to:
   * S. Spicher and S. Grimme, J. Chem. Theory Comput., 2021, 17, 1701-1714
     DOI: 10.1021/acs.jctc.0c01306
   
   for ONIOM refer to:
   * C. Plett, A. Katbashev, S. Ehlert, S. Grimme, M. Bursch,
     Phys. Chem. Chem. Phys., 2023, 25, 17860-17868. DOI: 10.1039/D3CP02178E
   
   for DIPRO refer to:
   * J. Kohn, N. Gildemeister, S. Grimme, D. Fazzi, A. Hansen,
     J. Chem. Phys., 2023, just accepted.
   
   for PTB refer to:
   * S. Grimme, M. Mueller, A. Hansen, J. Chem. Phys., 2023, 158, 124111.
     DOI: 10.1063/5.0137838
   
   with help from (in alphabetical order)
   P. Atkinson, C. Bannwarth, F. Bohle, G. Brandenburg, E. Caldeweyher
   M. Checinski, S. Dohm, S. Ehlert, S. Ehrlich, I. Gerasimov, C. Hölzer
   A. Katbashev, J. Kohn, J. Koopman, C. Lavigne, S. Lehtola, F. März, M. Müller,
   F. Musil, H. Neugebauer, J. Pisarek, C. Plett, P. Pracht, F. Pultar,
   J. Seibert, P. Shushkov, S. Spicher, M. Stahn, M. Steiner, T. Strunk,
   J. Stückrath, T. Rose, and J. Unsleber
   
 * started run on 2025/04/11 at 16:07:16.326     
   ID    Z sym.   atoms
    1    6 C      1-7, 9-15, 18, 19
    2    8 O      8, 16, 20
    3    7 N      17
    4    1 H      21-33

           -------------------------------------------------
          |                Calculation Setup                |
           -------------------------------------------------

          program call               : /srv/scratch/z5358697/.xtb/bin/xtb xtb_opt.coord --opt normal --orca -I xtb_opt-xcontrol-inp
          hostname                   : k030
          coordinate file            : xtb_opt.coord
          omp threads                :                    16

           -------------------------------------------------
          |                   Orca driver                   |
           -------------------------------------------------
orca executable           : /apps/z_install_tree/linux-rocky8-ivybridge/gcc-12.2.0/orca-6.0.0-srtngmq3qlimg2qxbl6avaaiffipurdx/bin/orca
orca input file           : xtb_opt.inp
orca input line           : 
orca parallel             : true
orca number of threads    : 16
                         * ORCA takes the control...
  ------------------------------------------------------------------------

                                 *****************
                                 * O   R   C   A *
                                 *****************

                                            #,                                       
                                            ###                                      
                                            ####                                     
                                            #####                                    
                                            ######                                   
                                           ########,                                 
                                     ,,################,,,,,                         
                               ,,#################################,,                 
                          ,,##########################################,,             
                       ,#########################################, ''#####,          
                    ,#############################################,,   '####,        
                  ,##################################################,,,,####,       
                ,###########''''           ''''###############################       
              ,#####''   ,,,,##########,,,,          '''####'''          '####       
            ,##' ,,,,###########################,,,                        '##       
           ' ,,###''''                  '''############,,,                           
         ,,##''                                '''############,,,,        ,,,,,,###''
      ,#''                                            '''#######################'''  
     '                                                          ''''####''''         
             ,#######,   #######,   ,#######,      ##                                
            ,#'     '#,  ##    ##  ,#'     '#,    #''#        ,####,   ,####,        
            ##       ##  ##   ,#'  ##            #'  '#       #'       #'  '#        
            ##       ##  #######   ##           ,######,      #####,   #    #        
            '#,     ,#'  ##    ##  '#,     ,#' ,#      #,     #,   #   #,  ,#        
             '#######'   ##     ##  '#######'  #'      '#     '####' # '####'        



                #########################################################
                #                        -***-                          #
                #          Department of theory and spectroscopy        #
                #                                                       #
                #                      Frank Neese                      #
                #                                                       #
                #     Directorship, Architecture, Infrastructure        #
                #                    SHARK, DRIVERS                     #
                #        Core code/Algorithms in most modules           #
                #                                                       #
                #        Max Planck Institute fuer Kohlenforschung      #
                #                Kaiser Wilhelm Platz 1                 #
                #                 D-45470 Muelheim/Ruhr                 #
                #                      Germany                          #
                #                                                       #
                #                  All rights reserved                  #
                #                        -***-                          #
                #########################################################


                         Program Version 6.0.0  -   RELEASE  -


 With contributions from (in alphabetic order):
   Daniel Aravena         : Magnetic Suceptibility
   Michael Atanasov       : Ab Initio Ligand Field Theory (pilot matlab implementation)
   Alexander A. Auer      : GIAO ZORA, VPT2 properties, NMR spectrum
   Ute Becker             : All parallelization in ORCA, NUMFREQ, NUMCALC
   Giovanni Bistoni       : ED, misc. LED, open-shell LED, HFLD
   Martin Brehm           : Molecular dynamics
   Dmytro Bykov           : pre 5.0 version of the SCF Hessian
   Marcos Casanova-Páez   : Triplet and SCS-CIS(D). UHF-(DLPNO)-IP/EA/STEOM-CCSD. UHF-CVS-IP/STEOM-CCSD
   Vijay G. Chilkuri      : MRCI spin determinant printing, contributions to CSF-ICE
   Pauline Colinet        : FMM embedding
   Dipayan Datta          : RHF DLPNO-CCSD density
   Achintya Kumar Dutta   : EOM-CC, STEOM-CC
   Nicolas Foglia         : Exact transition moments, OPA infrastructure, MCD improvements
   Dmitry Ganyushin       : Spin-Orbit,Spin-Spin,Magnetic field MRCI
   Miquel Garcia          : C-PCM and meta-GGA Hessian, CCSD/C-PCM, Gaussian charge scheme
   Tiago L. C. Gouveia    : GS-ROHF, GS-ROCIS
   Yang Guo               : DLPNO-NEVPT2, F12-NEVPT2, CIM, IAO-localization
   Andreas Hansen         : Spin unrestricted coupled pair/coupled cluster methods
   Ingolf Harden          : AUTO-CI MPn and infrastructure 
   Benjamin Helmich-Paris : MC-RPA, TRAH-(SCF,CASSCF), AVAS, COSX integrals, SCF dyn. polar.
   Lee Huntington         : MR-EOM, pCC
   Robert Izsak           : Overlap fitted RIJCOSX, COSX-SCS-MP3, EOM
   Riya Kayal             : Wick's Theorem for AUTO-CI, AUTO-CI UHF-CCSDT
   Emily Kempfer          : AUTO-CI, RHF CISDT and CCSDT
   Christian Kollmar      : KDIIS, OOCD, Brueckner-CCSD(T), CCSD density, CASPT2, CASPT2-K, improved NEVPT2
   Axel Koslowski         : Symmetry handling
   Simone Kossmann        : Meta GGA functionals, TD-DFT gradient, OOMP2, (MP2 Hessian; deprecated post 5.0)
   Lucas Lang             : DCDCAS
   Marvin Lechner         : AUTO-CI (C++ implementation), FIC-MRCC
   Spencer Leger          : CASSCF response
   Dagmar Lenk            : GEPOL surface, SMD, ORCA-2-JSON
   Dimitrios Liakos       : Extrapolation schemes; Compound Job, initial MDCI parallelization
   Dimitrios Manganas     : Further ROCIS development; embedding schemes. LFT, Crystal Embedding
   Dimitrios Pantazis     : SARC Basis sets
   Anastasios Papadopoulos: AUTO-CI, single reference methods and gradients
   Taras Petrenko         : pre 6.0 DFT Hessian and TD-DFT gradient, (ASA, deprecated), ECA, 1-Electron XAS/XES, NRVS
   Peter Pinski           : DLPNO-MP2, DLPNO-MP2 Gradient
   Christoph Reimann      : Effective Core Potentials
   Marius Retegan         : Local ZFS, SOC
   Christoph Riplinger    : Optimizer, TS searches, QM/MM, DLPNO-CCSD(T), (RO)-DLPNO pert. Triples
   Michael Roemelt        : Original ROCIS implementation
   Masaaki Saitow         : Open-shell DLPNO-CCSD energy and density
   Barbara Sandhoefer     : DKH picture change effects
   Kantharuban Sivalingam : CASSCF convergence/infrastructure, NEVPT2 and variants, FIC-MRCI
   Bernardo de Souza      : ESD, SOC TD-DFT
   Georgi Stoychev        : AutoAux, RI-MP2 NMR, DLPNO-MP2 response, X2C
   Van Anh Tran           : RI-MP2 g-tensors
   Willem Van den Heuvel  : Paramagnetic NMR
   Zikuan Wang            : NOTCH, Electric field optimization 
   Frank Wennmohs         : Technical directorship and infrastructure
   Hang Xu                : AUTO-CI-Response properties 


 We gratefully acknowledge several colleagues who have allowed us to
 interface, adapt or use parts of their codes:
   Stefan Grimme, W. Hujo, H. Kruse, P. Pracht,  : VdW corrections, initial TS optimization,
                  C. Bannwarth, S. Ehlert,         DFT functionals, gCP, sTDA/sTD-DF
                  L. Wittmann, M. Mueller
   Ed Valeev, F. Pavosevic, A. Kumar             : LibInt (2-el integral package), F12 methods
   Garnet Chan, S. Sharma, J. Yang, R. Olivares  : DMRG
   Ulf Ekstrom                                   : XCFun DFT Library
   Mihaly Kallay                                 : mrcc  (arbitrary order and MRCC methods)
   Frank Weinhold                                : gennbo (NPA and NBO analysis)
   Simon Mueller                                 : openCOSMO-RS
   Christopher J. Cramer and Donald G. Truhlar   : smd solvation model
   Lars Goerigk                                  : TD-DFT with DH, B97 family of functionals
   V. Asgeirsson, H. Jonsson                     : NEB implementation
   FAccTs GmbH                                   : IRC, NEB, NEB-TS, DLPNO-Multilevel, CI-OPT
                                                   MM, QMMM, 2- and 3-layer-ONIOM, Crystal-QMMM,
                                                   LR-CPCM, SF, NACMEs, symmetry and pop. for TD-DFT,
                                                   nearIR, NL-DFT gradient (VV10), updates on ESD,
                                                   ML-optimized integration grids, MBIS, APM,
                                                   GOAT, DOCKER, SOLVATOR, interface openCOSMO-RS
   S Lehtola, MJT Oliveira, MAL Marques          : LibXC Library
   Liviu Ungur et al                             : ANISO software


 Your calculation uses the libint2 library for the computation of 2-el integrals
 For citations please refer to: http://libint.valeyev.net

 Your ORCA version has been built with support for libXC version: 6.2.2
 For citations please refer to: https://libxc.gitlab.io

 This ORCA versions uses:
   CBLAS   interface :  Fast vector & matrix operations
   LAPACKE interface :  Fast linear algebra routines
   SCALAPACK package :  Parallel linear algebra routines
   Shared memory     :  Shared parallel matrices
   BLAS/LAPACK       :  OpenBLAS 0.3.27  USE64BITINT DYNAMIC_ARCH NO_AFFINITY SkylakeX SINGLE_THREADED
        Core in use  :  SkylakeX
   Copyright (c) 2011-2014, The OpenBLAS Project




***************************************
The coordinates will be read from file: xtb_opt.xyz
***************************************


Your calculation utilizes the geometrical counterpoise correction gCP
Please cite in your paper:
H.Kruse, S. Grimme J.Chem.Phys., 136, (2012), 154101 
   

Your calculation utilizes the atom-pairwise dispersion correction
based on EEQ partial charges (D4)


Your calculation utilizes the SMD solvation module
Please cite in your paper:
A.V. Marenich, C.J. Cramer, D.G. Truhlar J. Phys. Chem. B, 113, (2009), 6378 

================================================================================

----- Orbital basis set information -----
Your calculation utilizes the basis: def2-mTZVPP
   Stefan Grimme, Andreas Hansen, Sebastian Ehlert, and Jan-Michael Mewes 
   J. Chem. Phys. 154, 064103 (2021). DOI: 10.1063/5.0040021

----- AuxJ basis set information -----
Your calculation utilizes the auxiliary basis: def2/J
   F. Weigend, Phys. Chem. Chem. Phys. 8, 1057 (2006).

================================================================================
                                        WARNINGS
                       Please study these warnings very carefully!
================================================================================

Using LibXC functional ID 497 : Re-regularized SCAN exchange by Furness et al
[ 1]  J. W. Furness, A. D. Kaplan, J. Ning, J. P. Perdew, and J. Sun.,  J. Phys. Chem. Lett. 11, 8208-8215 (2020)
[ 2]  J. W. Furness, A. D. Kaplan, J. Ning, J. P. Perdew, and J. Sun.,  J. Phys. Chem. Lett. 11, 9248-9248 (2020)
Using LibXC functional ID 498 : Re-regularized SCAN correlation by Furness et al
[ 1]  J. W. Furness, A. D. Kaplan, J. Ning, J. P. Perdew, and J. Sun.,  J. Phys. Chem. Lett. 11, 8208-8215 (2020)
[ 2]  J. W. Furness, A. D. Kaplan, J. Ning, J. P. Perdew, and J. Sun.,  J. Phys. Chem. Lett. 11, 9248-9248 (2020)
Using LibXC functional ID 497 : Re-regularized SCAN exchange by Furness et al
[ 1]  J. W. Furness, A. D. Kaplan, J. Ning, J. P. Perdew, and J. Sun.,  J. Phys. Chem. Lett. 11, 8208-8215 (2020)
[ 2]  J. W. Furness, A. D. Kaplan, J. Ning, J. P. Perdew, and J. Sun.,  J. Phys. Chem. Lett. 11, 9248-9248 (2020)
Using LibXC functional ID 498 : Re-regularized SCAN correlation by Furness et al
[ 1]  J. W. Furness, A. D. Kaplan, J. Ning, J. P. Perdew, and J. Sun.,  J. Phys. Chem. Lett. 11, 8208-8215 (2020)
[ 2]  J. W. Furness, A. D. Kaplan, J. Ning, J. P. Perdew, and J. Sun.,  J. Phys. Chem. Lett. 11, 9248-9248 (2020)

================================================================================
                                       INPUT FILE
================================================================================
NAME = xtb_opt.inp
|  1> ! r2scan-3c def2/J RI DEFGRID2 scfconv7 ENGRAD tightSCF miniprint
|  2> %cpcm
|  3>     smd true
|  4>     smdsolvent "water"
|  5> end
|  6> * xyzfile 0 1 xtb_opt.xyz
|  7> 
|  8>                          ****END OF INPUT****
================================================================================

                     *******************************
                     * Energy+Gradient Calculation *
                     *******************************

---------------------------------
CARTESIAN COORDINATES (ANGSTROEM)
---------------------------------
  C     -4.695748   -0.988962   -0.266868
  C     -4.000935   -2.181834   -0.122134
  C     -2.626777   -2.168678    0.029160
  C     -1.922331   -0.966443    0.037301
  C     -2.624538    0.235078   -0.109601
  C     -4.009979    0.210915   -0.260100
  C     -1.918597    1.522363   -0.108075
  O     -2.522419    2.586221   -0.231213
  C     -0.453720    1.477538    0.044493
  C      0.214900    2.689080    0.017468
  C      1.600757    2.731697    0.145307
  C      2.313329    1.573791    0.304973
  C      1.673005    0.311405    0.350996
  C      0.251614    0.261553    0.207922
  C     -0.456480   -1.000658    0.208216
  O      0.106242   -2.102405    0.338388
  N      2.374849   -0.813125    0.551268
  C      3.807417   -0.929418    0.601743
  C      4.440543   -0.908822   -0.805919
  O      5.846153   -0.903218   -0.756424
  H     -5.767869   -0.996234   -0.384462
  H     -4.531487   -3.121024   -0.126828
  H     -2.068544   -3.085891    0.144662
  H     -4.524251    1.154139   -0.370757
  H     -0.363906    3.591014   -0.108952
  H      2.111223    3.681428    0.115695
  H      3.385027    1.623069    0.396795
  H      1.828835   -1.671620    0.505932
  H      4.041639   -1.876824    1.090361
  H      4.241865   -0.122767    1.197443
  H      4.157869    0.010113   -1.325211
  H      4.070045   -1.760734   -1.389788
  H      6.160495   -1.735017   -0.375329

----------------------------
CARTESIAN COORDINATES (A.U.)
----------------------------
  NO LB      ZA    FRAG     MASS         X           Y           Z
   0 C     6.0000    0    12.011   -8.873678   -1.868867   -0.504308
   1 C     6.0000    0    12.011   -7.560672   -4.123068   -0.230800
   2 C     6.0000    0    12.011   -4.963889   -4.098208    0.055104
   3 C     6.0000    0    12.011   -3.632680   -1.826312    0.070488
   4 C     6.0000    0    12.011   -4.959657    0.444232   -0.207117
   5 C     6.0000    0    12.011   -7.577762    0.398571   -0.491517
   6 C     6.0000    0    12.011   -3.625622    2.876849   -0.204233
   7 O     8.0000    0    15.999   -4.766681    4.887249   -0.436930
   8 C     6.0000    0    12.011   -0.857407    2.792142    0.084079
   9 C     6.0000    0    12.011    0.406103    5.081625    0.033009
  10 C     6.0000    0    12.011    3.024992    5.162159    0.274590
  11 C     6.0000    0    12.011    4.371559    2.974034    0.576316
  12 C     6.0000    0    12.011    3.161522    0.588470    0.663286
  13 C     6.0000    0    12.011    0.475482    0.494263    0.392915
  14 C     6.0000    0    12.011   -0.862621   -1.890970    0.393471
  15 O     8.0000    0    15.999    0.200769   -3.972970    0.639460
  16 N     7.0000    0    14.007    4.487814   -1.536584    1.041746
  17 C     6.0000    0    12.011    7.194975   -1.756346    1.137130
  18 C     6.0000    0    12.011    8.391409   -1.717425   -1.522966
  19 O     8.0000    0    15.999   11.047627   -1.706835   -1.429435
  20 H     1.0000    0     1.008  -10.899692   -1.882610   -0.726528
  21 H     1.0000    0     1.008   -8.563269   -5.897880   -0.239671
  22 H     1.0000    0     1.008   -3.908982   -5.831489    0.273371
  23 H     1.0000    0     1.008   -8.549595    2.181006   -0.700629
  24 H     1.0000    0     1.008   -0.687682    6.786034   -0.205890
  25 H     1.0000    0     1.008    3.989633    6.956891    0.218632
  26 H     1.0000    0     1.008    6.396775    3.067156    0.749834
  27 H     1.0000    0     1.008    3.455998   -3.158905    0.956074
  28 H     1.0000    0     1.008    7.637591   -3.546684    2.060484
  29 H     1.0000    0     1.008    8.015962   -0.231996    2.262839
  30 H     1.0000    0     1.008    7.857234    0.019111   -2.504287
  31 H     1.0000    0     1.008    7.691271   -3.327305   -2.626318
  32 H     1.0000    0     1.008   11.641649   -3.278706   -0.709268

------------------------------------------------------------------------------
                   ___                                                        
                  /   \      - P O W E R E D   B Y -                         
                 /     \                                                     
                 |  |  |   _    _      __       _____    __    __             
                 |  |  |  | |  | |    /  \     |  _  \  |  |  /  |          
                  \  \/   | |  | |   /    \    | | | |  |  | /  /          
                 / \  \   | |__| |  /  /\  \   | |_| |  |  |/  /          
                |  |  |   |  __  | /  /__\  \  |    /   |      \           
                |  |  |   | |  | | |   __   |  |    \   |  |\   \          
                \     /   | |  | | |  |  |  |  | |\  \  |  | \   \       
                 \___/    |_|  |_| |__|  |__|  |_| \__\ |__|  \__/        
                                                                              
                      - O R C A' S   B I G   F R I E N D -                    
                                      &                                       
                       - I N T E G R A L  F E E D E R -                       
                                                                              
 v1 FN, 2020, v2 2021, v3 2022-2024                                           
------------------------------------------------------------------------------


----------------------
SHARK INTEGRAL PACKAGE
----------------------

Number of atoms                             ...     33
Number of basis functions                   ...    465
Number of shells                            ...    223
Maximum angular momentum                    ...      2
Integral batch strategy                     ... SHARK/LIBINT Hybrid
RI-J (if used) integral strategy            ... SPLIT-RIJ (Revised 2003 algorithm where possible)
Printlevel                                  ...      1
Contraction scheme used                     ... SEGMENTED contraction
Prescreening option                         ... SCHWARTZ
   Thresh                                   ... 3.000e-11
   Tcut                                     ... 1.000e-12
   Tpresel                                  ... 1.000e-12 
Coulomb Range Separation                    ... NOT USED
Exchange Range Separation                   ... NOT USED
Multipole approximations                    ... NOT USED
Finite Nucleus Model                        ... NOT USED
CABS basis                                  ... NOT available
Auxiliary Coulomb fitting basis             ... AVAILABLE
   # of basis functions in Aux-J            ...   1123
   # of shells in Aux-J                     ...    365
   Maximum angular momentum in Aux-J        ...      4
Auxiliary J/K fitting basis                 ... NOT available
Auxiliary Correlation fitting basis         ... NOT available
Auxiliary 'external' fitting basis          ... NOT available

Checking pre-screening integrals            ... done (  0.0 sec) Dimension = 223
Check shell pair data                       ... done (  0.0 sec)
Shell pair information
Shell pair cut-off parameter TPreSel        ...   1.0e-12
Total number of shell pairs                 ...     24976
Shell pairs after pre-screening             ...     18276
Total number of primitive shell pairs       ...     92714
Primitive shell pairs kept                  ...     43504
          la=0 lb=0:   5513 shell pairs
          la=1 lb=0:   6958 shell pairs
          la=1 lb=1:   2176 shell pairs
          la=2 lb=0:   2088 shell pairs
          la=2 lb=1:   1328 shell pairs
          la=2 lb=2:    213 shell pairs

Calculating one electron integrals          ... done (  0.1 sec)
Calculating RI/J V-Matrix + Cholesky decomp.... done (  0.4 sec)
Calculating Nuclear repulsion               ... done (  0.0 sec) ENN=   1455.486746261069 Eh

Diagonalization of the overlap matrix:
Smallest eigenvalue                        ... 6.142e-06
Time for diagonalization                   ...    0.027 sec
Threshold for overlap eigenvalues          ... 1.000e-07
Number of eigenvalues below threshold      ... 0
Time for construction of square roots      ...    0.037 sec
Total time needed                          ...    0.100 sec

-------------------
DFT GRID GENERATION
-------------------

General Integration Accuracy     IntAcc      ... 4.388
Radial Grid Type                 RadialGrid  ... OptM3 with GC (2021)
Angular Grid (max. ang.)         AngularGrid ... 4 (Lebedev-302)
Angular grid pruning method      GridPruning ... 4 (adaptive)
Weight generation scheme         WeightScheme... mBecke (2022)
Basis function cutoff            BFCut       ... 1.0000e-11
Integration weight cutoff        WCut        ... 1.0000e-14
Partially contracted basis set               ... off
Rotationally invariant grid construction     ... off
Angular grids for H and He will be reduced by one unit
Diffuse basis detected: some atoms will have their outermost
                        angular grid increased by 1.

Total number of grid points                  ...   161817
Total number of batches                      ...     2547
Average number of points per batch           ...       63
Average number of grid points per atom       ...     4904
Initializing property integral containers    ... done (  0.0 sec)

SHARK setup successfully completed in   4.2 seconds

Maximum memory used throughout the entire STARTUP-calculation: 84.2 MB
Occupation numbers will be reassigned to an Aufbau configuration
             **** ENERGY FILE WAS UPDATED (xtb_opt.en.tmp) ****
Finished Guess after   0.8 sec
Maximum memory used throughout the entire GUESS-calculation: 45.1 MB
--------------------
CPCM SOLVATION MODEL
--------------------
CPCM parameters:
  Epsilon                                         ...      78.3550
  Refrac                                          ...       1.3328
  Rsolv                                           ...       1.3000
  Surface type                                    ... GAUSSIAN VDW
  Discretization scheme                           ... Constant charge density
    Threshold for H atoms                         ...       5.0000 (charges/Ang^2)
    Threshold for non-H atoms                     ...       5.0000 (charges/Ang^2)
  Epsilon function type                           ...         CPCM
Solvent:                                          ... WATER
SMD-CDS solvent descriptors:
  Soln                                            ...       1.3328
  Soln25                                          ...       1.3323
  Sola                                            ...       0.0000
  Solb                                            ...       0.0000
  Solg                                            ...       0.0000
  Solc                                            ...       0.0000
  Solh                                            ...       0.0000
Radii:
  Scheme                                          ... Element-dependent radii
  Radius for C  used is    3.4960 Bohr (=   1.8500 Ang.)
  Radius for O  used is    2.8724 Bohr (=   1.5200 Ang.)
  Radius for N  used is    3.5716 Bohr (=   1.8900 Ang.)
  Radius for H  used is    2.2677 Bohr (=   1.2000 Ang.)
Calculating surface                               ...        done! (  0.0s)
Cavity surface points                             ...         2449
Cavity Volume                                     ...    1717.0925
Cavity Surface-area                               ...     970.5035
Calculating surface distance matrix               ...        done! (  0.0s)
Performing Cholesky decomposition & store         ...        done! (  1.1s)
Overall time for CPCM initialization              ...                 1.2s

----------------------------------------D-I-I-S--------------------------------------------
Iteration    Energy (Eh)           Delta-E    RMSDP     MaxDP     DIISErr   Damp  Time(sec)
-------------------------------------------------------------------------------------------
               ***  Starting incremental Fock matrix formation  ***
                              *** Initializing SOSCF ***
---------------------------------------S-O-S-C-F--------------------------------------
Iteration    Energy (Eh)           Delta-E    RMSDP     MaxDP     MaxGrad    Time(sec)
--------------------------------------------------------------------------------------
    1    -897.8152787599335625     0.00e+00  2.17e-05  1.51e-03  1.20e-05    16.7
               *** Restarting incremental Fock matrix formation ***
    2    -897.8152787580436325     1.89e-09  5.69e-06  2.87e-04  2.12e-05    16.1
                  *** Gradient check signals convergence ***

               *****************************************************
               *                     SUCCESS                       *
               *           SCF CONVERGED AFTER   2 CYCLES          *
               *****************************************************


SMD CDS free energy correction energy :                 5.63154     Kcal/mol
Total Energy after SMD CDS correction =              -897.806304324 Eh
             **** ENERGY FILE WAS UPDATED (xtb_opt.en.tmp) ****

----------------
TOTAL SCF ENERGY
----------------

Total Energy       :       -897.80630432440194 Eh          -24430.55157 eV

Components:
Nuclear Repulsion  :       1455.48674626106890 Eh           39605.80789 eV
Electronic Energy  :      -2353.26488646502366 Eh          -64035.59307 eV
One Electron Energy:      -4111.35722516465285 Eh         -111875.71775 eV
Two Electron Energy:       1758.09233869962918 Eh           47840.12468 eV
CPCM Dielectric    :         -0.03713855408892 Eh              -1.01059 eV
SMD CDS (Gcds)     :          0.00897443364168 Eh               0.24421 eV

Virial components:
Potential Energy   :      -1792.11881234236398 Eh          -48766.03210 eV
Kinetic Energy     :        894.31250801796216 Eh           24335.48054 eV
Virial Ratio       :          2.00390668393332

DFT components:
N(Alpha)           :       69.999898837914 electrons
N(Beta)            :       69.999898837914 electrons
N(Total)           :      139.999797675829 electrons
E(X)               :     -119.570839534102 Eh       
E(C)               :       -4.618913841420 Eh       
E(XC)              :     -124.189753375522 Eh       

CPCM Solvation Model Properties:
Surface-charge          :         -0.05790272178482
Corrected charge        :         -0.00000000000000
Outlying charge corr.   :          0.00019545085798 Eh               0.00532 eV
Free-energy (cav+disp)  :          0.00897443364168 Eh               0.24421 eV

---------------
SCF CONVERGENCE
---------------

  Last Energy change         ...   -1.8899e-09  Tolerance :   1.0000e-07
  Last MAX-Density change    ...    2.8750e-04  Tolerance :   1.0000e-07
  Last RMS-Density change    ...    5.6899e-06  Tolerance :   5.0000e-09
  Last DIIS Error            ...    1.1338e-04  Tolerance :   1.0000e-07
  Last Orbital Gradient      ...    2.1154e-05  Tolerance :   1.0000e-04
  Last Orbital Rotation      ...    1.6400e-04  Tolerance :   1.0000e-04


----------------
ORBITAL ENERGIES
----------------

  NO   OCC          E(Eh)            E(eV) 
   0   2.0000     -18.956755      -515.8395 
   1   2.0000     -18.948998      -515.6284 
   2   2.0000     -18.946866      -515.5704 
   3   2.0000     -14.186432      -386.0324 
   4   2.0000     -10.131797      -275.7002 
   5   2.0000     -10.127858      -275.5930 
   6   2.0000     -10.101394      -274.8729 
   7   2.0000     -10.075549      -274.1696 
   8   2.0000     -10.063823      -273.8505 
   9   2.0000     -10.060271      -273.7539 
  10   2.0000     -10.060131      -273.7501 
  11   2.0000     -10.058363      -273.7020 
  12   2.0000     -10.056737      -273.6577 
  13   2.0000     -10.050317      -273.4830 
  14   2.0000     -10.049974      -273.4737 
  15   2.0000     -10.049765      -273.4680 
  16   2.0000     -10.048359      -273.4297 
  17   2.0000     -10.048156      -273.4242 
  18   2.0000     -10.046503      -273.3793 
  19   2.0000     -10.042208      -273.2624 
  20   2.0000      -1.016049       -27.6481 
  21   2.0000      -1.011946       -27.5364 
  22   2.0000      -0.993207       -27.0265 
  23   2.0000      -0.924497       -25.1569 
  24   2.0000      -0.851320       -23.1656 
  25   2.0000      -0.833029       -22.6679 
  26   2.0000      -0.773199       -21.0398 
  27   2.0000      -0.741682       -20.1822 
  28   2.0000      -0.736896       -20.0519 
  29   2.0000      -0.730281       -19.8720 
  30   2.0000      -0.690079       -18.7780 
  31   2.0000      -0.652228       -17.7480 
  32   2.0000      -0.628526       -17.1031 
  33   2.0000      -0.610395       -16.6097 
  34   2.0000      -0.600870       -16.3505 
  35   2.0000      -0.566429       -15.4133 
  36   2.0000      -0.551712       -15.0129 
  37   2.0000      -0.521057       -14.1787 
  38   2.0000      -0.513502       -13.9731 
  39   2.0000      -0.492293       -13.3960 
  40   2.0000      -0.478070       -13.0089 
  41   2.0000      -0.463793       -12.6204 
  42   2.0000      -0.459314       -12.4986 
  43   2.0000      -0.445609       -12.1256 
  44   2.0000      -0.433797       -11.8042 
  45   2.0000      -0.429750       -11.6941 
  46   2.0000      -0.423867       -11.5340 
  47   2.0000      -0.418985       -11.4012 
  48   2.0000      -0.410049       -11.1580 
  49   2.0000      -0.406254       -11.0547 
  50   2.0000      -0.399462       -10.8699 
  51   2.0000      -0.392419       -10.6783 
  52   2.0000      -0.385324       -10.4852 
  53   2.0000      -0.379775       -10.3342 
  54   2.0000      -0.365555        -9.9473 
  55   2.0000      -0.355344        -9.6694 
  56   2.0000      -0.346686        -9.4338 
  57   2.0000      -0.344631        -9.3779 
  58   2.0000      -0.337650        -9.1879 
  59   2.0000      -0.329232        -8.9589 
  60   2.0000      -0.322348        -8.7715 
  61   2.0000      -0.307344        -8.3633 
  62   2.0000      -0.292240        -7.9523 
  63   2.0000      -0.264749        -7.2042 
  64   2.0000      -0.252326        -6.8661 
  65   2.0000      -0.251489        -6.8434 
  66   2.0000      -0.249708        -6.7949 
  67   2.0000      -0.244354        -6.6492 
  68   2.0000      -0.230934        -6.2840 
  69   2.0000      -0.194779        -5.3002 
  70   0.0000      -0.133855        -3.6424 
  71   0.0000      -0.080498        -2.1905 
  72   0.0000      -0.048885        -1.3302 
  73   0.0000      -0.028223        -0.7680 
  74   0.0000       0.024332         0.6621 
  75   0.0000       0.029891         0.8134 
  76   0.0000       0.061102         1.6627 
  77   0.0000       0.074408         2.0247 
  78   0.0000       0.088443         2.4067 
  79   0.0000       0.093626         2.5477 
  80   0.0000       0.102217         2.7815 
*Only the first 10 virtual orbitals were printed.
Total SCF time: 0 days 0 hours 0 min 35 sec 
Finished LeanSCF after  35.7 sec

Maximum memory used throughout the entire LEANSCF-calculation: 84.4 MB


-------------------------------------------------------------------------------
                          DFT DISPERSION CORRECTION                            
                                                                               
                                DFTD4 V3.4.0                                   
-------------------------------------------------------------------------------
-------------------------   ----------------
Dispersion correction           -0.015626979
-------------------------   ----------------

------------------   -----------------
gCP correction             0.016224317
------------------   -----------------

-------------------------   --------------------
FINAL SINGLE POINT ENERGY      -897.805706986966
-------------------------   --------------------

------------------------------------------------------------------------------
                         ORCA SCF GRADIENT CALCULATION
------------------------------------------------------------------------------

Nuc. rep. gradient        (SHARK) ... done (  0.0 sec)
HCore & Overlap gradient  (SHARK) ... done (  2.0 sec)
Split-RIJ-J gradient      (SHARK) ... done ( 11.7 sec)
XC gradient                       ... done ( 29.4 sec)
CPCM gradient                     ... done (  5.7 sec)
SMD gradient                      ... done (  0.0 sec)
Dispersion correction             ... done (  0.0 sec)

-------------------
DISPERSION GRADIENT
-------------------

   1   C   :   -0.000125538   -0.000036784   -0.000012186
   2   C   :   -0.000101410   -0.000092362   -0.000006485
   3   C   :   -0.000061599   -0.000132596    0.000000815
   4   C   :   -0.000068693   -0.000085926   -0.000000870
   5   C   :   -0.000106484    0.000017905   -0.000012361
   6   C   :   -0.000140110    0.000022971   -0.000017049
   7   C   :   -0.000077955    0.000115571   -0.000014618
   8   O   :   -0.000073972    0.000127354   -0.000015457
   9   C   :   -0.000010920    0.000119954   -0.000003587
  10   C   :    0.000014691    0.000165312   -0.000006738
  11   C   :    0.000053502    0.000163662    0.000003660
  12   C   :    0.000081687    0.000111333    0.000022662
  13   C   :    0.000072677    0.000012959    0.000032938
  14   C   :    0.000018977    0.000011242    0.000018138
  15   C   :   -0.000002644   -0.000109251    0.000016800
  16   O   :    0.000015511   -0.000146703    0.000021936
  17   N   :    0.000072409   -0.000086887    0.000046226
  18   C   :    0.000116302   -0.000052016    0.000025664
  19   C   :    0.000088226   -0.000046012   -0.000045545
  20   O   :    0.000092511   -0.000036116   -0.000027009
  21   H   :   -0.000046785   -0.000006525   -0.000005059
  22   H   :   -0.000028296   -0.000037570   -0.000001282
  23   H   :   -0.000004059   -0.000058934    0.000002898
  24   H   :   -0.000046662    0.000029948   -0.000007036
  25   H   :   -0.000005792    0.000057271   -0.000005108
  26   H   :    0.000020857    0.000054384   -0.000000445
  27   H   :    0.000034219    0.000039104    0.000010631
  28   H   :    0.000020667   -0.000038900    0.000015857
  29   H   :    0.000033227   -0.000029349    0.000017589
  30   H   :    0.000040287   -0.000014707    0.000020853
  31   H   :    0.000056740   -0.000016538   -0.000032134
  32   H   :    0.000043818   -0.000024442   -0.000029161
  33   H   :    0.000024614    0.000002646   -0.000014537

Difference to translation invariance:
           :   -0.0000000000    0.0000000000    0.0000000000

Difference to rotation invariance:
           :    0.0000000000   -0.0000000000   -0.0000000000

Norm of the Dispersion gradient    ...    0.0006058803
RMS gradient                       ...    0.0000608933
MAX gradient                       ...    0.0001653118
gCP correction                   ... done

------------------
CARTESIAN GRADIENT
------------------

   1   C   :    0.002008502   -0.002393988    0.000341751
   2   C   :   -0.000828325    0.002070342   -0.000205394
   3   C   :   -0.003855440    0.001315203   -0.000530987
   4   C   :    0.001831597    0.001882963   -0.000223818
   5   C   :    0.003202295   -0.000341083    0.000330176
   6   C   :   -0.000912354   -0.003456683    0.000152382
   7   C   :   -0.002141191    0.007873391   -0.000742487
   8   O   :    0.004572255   -0.006720541    0.000764343
   9   C   :   -0.004352977   -0.005602464    0.000191289
  10   C   :    0.004597167   -0.000852463    0.000422574
  11   C   :    0.003002192    0.000894324    0.000230220
  12   C   :   -0.004000519    0.002023338   -0.000573124
  13   C   :    0.001383780   -0.003659662    0.000158456
  14   C   :    0.000477689    0.002446305    0.000086741
  15   C   :    0.003859793   -0.008910561    0.001512929
  16   O   :   -0.004405502    0.008518040   -0.001279291
  17   N   :    0.002258884    0.010865903   -0.000890797
  18   C   :   -0.008391259   -0.003638455    0.006654666
  19   C   :    0.014781260    0.000894021   -0.002649531
  20   O   :   -0.019236435    0.000173462   -0.002585775
  21   H   :    0.004466581    0.000101133    0.000478269
  22   H   :    0.002258393    0.003895249    0.000021115
  23   H   :    0.000162076    0.003439624   -0.000156444
  24   H   :    0.003320542   -0.001778758    0.000472381
  25   H   :    0.000158142   -0.003372791    0.000321860
  26   H   :   -0.002931598   -0.003439958    0.000014214
  27   H   :   -0.004712717   -0.000223938   -0.000439837
  28   H   :   -0.000077794   -0.002197015   -0.000317263
  29   H   :   -0.001538767    0.001091330   -0.001135335
  30   H   :   -0.001452088   -0.000414886   -0.001910950
  31   H   :    0.002476784   -0.001006752    0.000559023
  32   H   :    0.001684873    0.000953647    0.000377464
  33   H   :    0.002334160   -0.000428274    0.000551182

Difference to translation invariance:
           :    0.0000000000   -0.0000000000   -0.0000000000

Difference to rotation invariance:
           :    0.0005632067   -0.0011754096   -0.0008393615

Norm of the Cartesian gradient     ...    0.0389787048
RMS gradient                       ...    0.0039175072
MAX gradient                       ...    0.0192364349

-------
TIMINGS
-------

Total SCF gradient time     ....       53.212 sec

Densities                   ....       0.005 sec  (  0.0%)
One electron gradient       ....       1.981 sec  (  3.7%)
RI-J Coulomb gradient       ....      11.695 sec  ( 22.0%)
XC gradient                 ....      29.386 sec  ( 55.2%)
CPCM gradient               ....       5.713 sec  ( 10.7%)
   A-Matrix (El+Nuc)        ....       0.213 sec  (  0.4%)
   Potential                ....       5.500 sec  ( 10.3%)
SMD gradient                ....       0.024 sec  (  0.0%)

Maximum memory used throughout the entire SCFGRAD-calculation: 72.3 MB

------------------------------------------------------------------------------
                              ORCA PROPERTY CALCULATIONS
------------------------------------------------------------------------------

GBWName                                 ... xtb_opt.gbw
Number of atoms                         ...     33
Number of basis functions               ...    465
Max core memory                         ...   1024 MB

Electric properties:
Dipole moment                           ... YES
Quadrupole moment                       ...  NO
Static polarizability (Dipole/Dipole)   ...  NO
Static polarizability (Dipole/Quad.)    ...  NO
Static polarizability (Quad./Quad.)     ...  NO
Static polarizability (Velocity)        ...  NO

Atomic electric properties:
Dipole moment                           ...  NO
Quadrupole moment                       ...  NO
Static polarizability                   ...  NO

Choice of electric origin               ... Center of mass
Position of electric origin             ...     0.000004    -0.000004     0.000003

General magnetic properties:
Magnetizability                         ...  NO

EPR properties:
g-Tensor (aka g-matrix)                 ...  NO
Zero-Field splitting spin-orbit         ...  NO
Zero-field splitting spin-spin          ...  NO
Hyperfine couplings                     ...  NO (   0 nuclei)
Quadrupole couplings                    ...  NO (   0 nuclei)
Contact density                         ...  NO (   0 nuclei)

NMR properties:
Chemical shifts                         ...  NO (   0 nuclei)
Spin-rotation constants                 ...  NO (   0 nuclei)
Spin-spin couplings                     ...  NO (   0 nuclei,    0 pairs)

Choice of magnetic origin               ... GIAO
Position of magnetic origin             ...     0.000000     0.000000     0.000000

Properties with geometric perturbations:
SCF Hessian                             ...  NO
IR spectrum                             ...  NO
VCD spectrum                            ...  NO
X-ray spectroscopy properties:
SCF XES/XAS/RIXS spectra                ...  NO


-------------
DIPOLE MOMENT
-------------

Method             : SCF
Type of density    : Electron Density
Multiplicity       :   1
Irrep              :   0
Energy             :  -897.8063043244019354 Eh
Relativity type    : 
Basis              : AO
                                X                 Y                 Z
Electronic contribution:    -10.826034667       2.667284735       0.969985127
Nuclear contribution   :     12.017028325      -4.054523778      -0.598045936
                        -----------------------------------------
Total Dipole Moment    :      1.190993659      -1.387239043       0.371939191
                        -----------------------------------------
Magnitude (a.u.)       :      1.865807283
Magnitude (Debye)      :      4.742505221



--------------------
Rotational spectrum 
--------------------
 
Rotational constants in cm-1:             0.022852             0.006950             0.005473 
Rotational constants in MHz :           685.091626           208.364988           164.087206 

Dipole components along the rotational axes: 
x,y,z [a.u.] :     1.190990     1.387242     0.371938 
x,y,z [Debye]:     3.027256     3.526089     0.945392 

 

Dipole moment calculation done in   0.0 sec 

Maximum memory used throughout the entire PROP-calculation: 42.2 MB

--------------------------------
SUGGESTED CITATIONS FOR THIS RUN
--------------------------------

Below you find a list of papers that are relevant to this ORCA run
We neither can nor want to force you to cite these papers, but we appreciate if you do
You receive ORCA, which is the product of decades of hard work by many enthusiastic individuals, for free
The only thing we kindly ask in return is that you cite our papers,
We deeply appreciate it, if you show your appreciation for ORCA by not just citing the generic ORCA reference.

Please note that relegating all ORCA citations to the supporting information does *not* help us.
SI sections are not indexed - citations you put there will not count into any citation statistics
But we need these citations in order to attract the funding resources that allow us to do what we are doing

Therefore, if you are a happy ORCA user, please consider citing a few of the papers listed below in the main body of your paper

In addition to the list printed below, the program has created the file xtb_opt.bibtex that contains the list in bibtex format
You can import this file easily into all common literature databanks and citation aid programs


List of essential papers. We consider these as the minimum necessary citations

  1. Neese,F.
     Software update: the ORCA program system, version 5.0
     WIRES Comput. Molec. Sci., 2022 12(1)e1606
     doi.org/10.1002/wcms.1606
  2. Grimme,S.; Hansen,A.; Ehlert,S.; Mewes,J.
     r2SCAN-3c: A 'Swiss army knife' composite electronic-structure method
     J. Chem. Phys., 2021 154 064103
     doi.org/10.1063/5.0040021

List of papers to cite with high priority. The work reported in these papers was absolutely
necessary for this run to complete.
Our perspective: the developers of density functionals and basis sets usually get cited in chemistry papers
Good! But without the algorithms to do something with them, the functionals or basis sets would not do anything.
Hence, in our opinion, the algorithm design and method developments papers are equally worthy of getting cited

  1. Neese,F.
     An improvement of the resolution of the identity approximation for the formation of the Coulomb matrix
     J. Comp. Chem., 2003 24(14)1740-1747
     doi.org/10.1002/jcc.10318
  2. Garcia-Rates,M.; Neese,F.
     Effect of the Solute Cavity on the Solvation Energy and its Derivatives within the Framework of the Gaussian Charge Scheme
     J. Comput. Chem., 2020 41 922-939
     doi.org/10.1002/jcc.26139
  3. Neese,F.
     The SHARK Integral Generation and Digestion System
     J. Comp. Chem., 2022  1-16
     doi.org/10.1002/jcc.26942
  4. Lehtola,S.; Steigemann,C.; Oliveira,M.; Marques,M.
     Recent developments in Libxc - A comprehensive library of functionals for density functional theory
     Software X, 2018 7 
     doi.org/10.1016/j.softx.2017.11.002
  5. Caldeweyher,E.; Bannwarth,C.; Grimme,S.
     Extension of the D3 dispersion coefficient model
     J. Chem. Phys., 2017 147 034112-XXXX
     doi.org/10.1063/1.4993215
  6. Caldeweyher,E.; Ehlert,S.; Hansen,A.; Neugebauer,H.; Spicher,S.; Bannwarth,C.; Grimme,S.
     A generally applicable atomic-charge dependent London dispersion correction
     J. Chem. Phys., 2019 150 154122-XXXX
     doi.org/10.1063/1.5090222
  7. Caldeweyher,E.; Mewes,J.; Ehlert,S.; Grimme,S.
     Extension and evaluation of the D4 London-dispersion model for periodic systems
     Phys. Chem. Chem. Phys., 2020 22(16)8499-8512
     doi.org/10.1039/D0CP00502A

List of suggested additional citations. These are papers that are important in the 'surrounding' of 
of this run, or papers that preceded the highly important papers. If you like your results we are grateful for a citation.

  1. Neese,F.
     The ORCA program system
     WIRES Comput. Molec. Sci., 2012 2(1)73-78
     doi.org/10.1002/wcms.81
  2. Neese,F.
     Software update: the ORCA program system, version 4.0
     WIRES Comput. Molec. Sci., 2018 8(1)1-6
     doi.org/10.1002/wcms.1327
  3. Neese,F.; Wennmohs,F.; Becker,U.; Riplinger,C.
     The ORCA quantum chemistry program package
     J. Chem. Phys., 2020 152 Art. No. L224108
     doi.org/10.1063/5.0004608

List of optional additional citations

  1. Neese,F.
     Approximate second-order SCF convergence for spin unrestricted wavefunctions
     Chem. Phys. Lett., 2000 325(1-3)93-98
     doi.org/10.1016/s0009-2614(00)00662-x

Timings for individual modules:

Sum of individual times          ...       94.390 sec (=   1.573 min)
Startup calculation              ...        4.247 sec (=   0.071 min)   4.5 %
SCF iterations                   ...       36.558 sec (=   0.609 min)  38.7 %
Property calculations            ...        0.198 sec (=   0.003 min)   0.2 %
SCF Gradient evaluation          ...       53.387 sec (=   0.890 min)  56.6 %
                             ****ORCA TERMINATED NORMALLY****
TOTAL RUN TIME: 0 days 0 hours 1 minutes 35 seconds 608 msec
  ------------------------------------------------------------------------
          * successful ORCA run, taking over control again...

         :::::::::::::::::::::::::::::::::::::::::::::::::::::
         ::                  ORCA SUMMARY                   ::
         :::::::::::::::::::::::::::::::::::::::::::::::::::::
         :: total energy            -897.805706986966 Eh    ::
         :: gradient norm              0.038978704823 Eh/a0 ::
         :: HOMO-LUMO gap              0.000000000000 eV    ::
         :::::::::::::::::::::::::::::::::::::::::::::::::::::

      ----------------------------------------------------------- 
     |                       L-ANC optimizer                     |
      ----------------------------------------------------------- 
          low memory version by Sebastian Ehlert

          ...................................................
          :                      SETUP                      :
          :.................................................:
          :   energy convergence        0.5000000E-05 Eh    :
          :   grad. convergence         0.1000000E-02 Eh/a0 :
          :   optimization log               true           :
          :   writing optlog all                1     steps :
          :   Hessian reset                     8     steps :
          :   maximium step len.        1.0000000     a0    :
          :   LBFGS images                      8           :
          ...................................................
 * calculating model hessian...
Using Lindh-Hessian (1995)
 Shifting diagonal of input Hessian by   1.000000000000000E-002
 Lowest  eigenvalues of input Hessian
    0.000000    0.000000    0.000000    0.000000    0.000000    0.000000
    0.010754    0.011538    0.012362    0.013117    0.013514    0.017537
    0.018059    0.020251    0.022524    0.025048    0.026848    0.028589
 Highest eigenvalues
    1.966506    1.987548    2.063562    2.110061    2.137520    2.248136
 

........................................................................
.............................. CYCLE    1 ..............................
........................................................................
                         * ORCA takes the control...
  ------------------------------------------------------------------------

                                 *****************
                                 * O   R   C   A *
                                 *****************

                                            #,                                       
                                            ###                                      
                                            ####                                     
                                            #####                                    
                                            ######                                   
                                           ########,                                 
                                     ,,################,,,,,                         
                               ,,#################################,,                 
                          ,,##########################################,,             
                       ,#########################################, ''#####,          
                    ,#############################################,,   '####,        
                  ,##################################################,,,,####,       
                ,###########''''           ''''###############################       
              ,#####''   ,,,,##########,,,,          '''####'''          '####       
            ,##' ,,,,###########################,,,                        '##       
           ' ,,###''''                  '''############,,,                           
         ,,##''                                '''############,,,,        ,,,,,,###''
      ,#''                                            '''#######################'''  
     '                                                          ''''####''''         
             ,#######,   #######,   ,#######,      ##                                
            ,#'     '#,  ##    ##  ,#'     '#,    #''#        ,####,   ,####,        
            ##       ##  ##   ,#'  ##            #'  '#       #'       #'  '#        
            ##       ##  #######   ##           ,######,      #####,   #    #        
            '#,     ,#'  ##    ##  '#,     ,#' ,#      #,     #,   #   #,  ,#        
             '#######'   ##     ##  '#######'  #'      '#     '####' # '####'        



                #########################################################
                #                        -***-                          #
                #          Department of theory and spectroscopy        #
                #                                                       #
                #                      Frank Neese                      #
                #                                                       #
                #     Directorship, Architecture, Infrastructure        #
                #                    SHARK, DRIVERS                     #
                #        Core code/Algorithms in most modules           #
                #                                                       #
                #        Max Planck Institute fuer Kohlenforschung      #
                #                Kaiser Wilhelm Platz 1                 #
                #                 D-45470 Muelheim/Ruhr                 #
                #                      Germany                          #
                #                                                       #
                #                  All rights reserved                  #
                #                        -***-                          #
                #########################################################


                         Program Version 6.0.0  -   RELEASE  -


 With contributions from (in alphabetic order):
   Daniel Aravena         : Magnetic Suceptibility
   Michael Atanasov       : Ab Initio Ligand Field Theory (pilot matlab implementation)
   Alexander A. Auer      : GIAO ZORA, VPT2 properties, NMR spectrum
   Ute Becker             : All parallelization in ORCA, NUMFREQ, NUMCALC
   Giovanni Bistoni       : ED, misc. LED, open-shell LED, HFLD
   Martin Brehm           : Molecular dynamics
   Dmytro Bykov           : pre 5.0 version of the SCF Hessian
   Marcos Casanova-Páez   : Triplet and SCS-CIS(D). UHF-(DLPNO)-IP/EA/STEOM-CCSD. UHF-CVS-IP/STEOM-CCSD
   Vijay G. Chilkuri      : MRCI spin determinant printing, contributions to CSF-ICE
   Pauline Colinet        : FMM embedding
   Dipayan Datta          : RHF DLPNO-CCSD density
   Achintya Kumar Dutta   : EOM-CC, STEOM-CC
   Nicolas Foglia         : Exact transition moments, OPA infrastructure, MCD improvements
   Dmitry Ganyushin       : Spin-Orbit,Spin-Spin,Magnetic field MRCI
   Miquel Garcia          : C-PCM and meta-GGA Hessian, CCSD/C-PCM, Gaussian charge scheme
   Tiago L. C. Gouveia    : GS-ROHF, GS-ROCIS
   Yang Guo               : DLPNO-NEVPT2, F12-NEVPT2, CIM, IAO-localization
   Andreas Hansen         : Spin unrestricted coupled pair/coupled cluster methods
   Ingolf Harden          : AUTO-CI MPn and infrastructure 
   Benjamin Helmich-Paris : MC-RPA, TRAH-(SCF,CASSCF), AVAS, COSX integrals, SCF dyn. polar.
   Lee Huntington         : MR-EOM, pCC
   Robert Izsak           : Overlap fitted RIJCOSX, COSX-SCS-MP3, EOM
   Riya Kayal             : Wick's Theorem for AUTO-CI, AUTO-CI UHF-CCSDT
   Emily Kempfer          : AUTO-CI, RHF CISDT and CCSDT
   Christian Kollmar      : KDIIS, OOCD, Brueckner-CCSD(T), CCSD density, CASPT2, CASPT2-K, improved NEVPT2
   Axel Koslowski         : Symmetry handling
   Simone Kossmann        : Meta GGA functionals, TD-DFT gradient, OOMP2, (MP2 Hessian; deprecated post 5.0)
   Lucas Lang             : DCDCAS
   Marvin Lechner         : AUTO-CI (C++ implementation), FIC-MRCC
   Spencer Leger          : CASSCF response
   Dagmar Lenk            : GEPOL surface, SMD, ORCA-2-JSON
   Dimitrios Liakos       : Extrapolation schemes; Compound Job, initial MDCI parallelization
   Dimitrios Manganas     : Further ROCIS development; embedding schemes. LFT, Crystal Embedding
   Dimitrios Pantazis     : SARC Basis sets
   Anastasios Papadopoulos: AUTO-CI, single reference methods and gradients
   Taras Petrenko         : pre 6.0 DFT Hessian and TD-DFT gradient, (ASA, deprecated), ECA, 1-Electron XAS/XES, NRVS
   Peter Pinski           : DLPNO-MP2, DLPNO-MP2 Gradient
   Christoph Reimann      : Effective Core Potentials
   Marius Retegan         : Local ZFS, SOC
   Christoph Riplinger    : Optimizer, TS searches, QM/MM, DLPNO-CCSD(T), (RO)-DLPNO pert. Triples
   Michael Roemelt        : Original ROCIS implementation
   Masaaki Saitow         : Open-shell DLPNO-CCSD energy and density
   Barbara Sandhoefer     : DKH picture change effects
   Kantharuban Sivalingam : CASSCF convergence/infrastructure, NEVPT2 and variants, FIC-MRCI
   Bernardo de Souza      : ESD, SOC TD-DFT
   Georgi Stoychev        : AutoAux, RI-MP2 NMR, DLPNO-MP2 response, X2C
   Van Anh Tran           : RI-MP2 g-tensors
   Willem Van den Heuvel  : Paramagnetic NMR
   Zikuan Wang            : NOTCH, Electric field optimization 
   Frank Wennmohs         : Technical directorship and infrastructure
   Hang Xu                : AUTO-CI-Response properties 


 We gratefully acknowledge several colleagues who have allowed us to
 interface, adapt or use parts of their codes:
   Stefan Grimme, W. Hujo, H. Kruse, P. Pracht,  : VdW corrections, initial TS optimization,
                  C. Bannwarth, S. Ehlert,         DFT functionals, gCP, sTDA/sTD-DF
                  L. Wittmann, M. Mueller
   Ed Valeev, F. Pavosevic, A. Kumar             : LibInt (2-el integral package), F12 methods
   Garnet Chan, S. Sharma, J. Yang, R. Olivares  : DMRG
   Ulf Ekstrom                                   : XCFun DFT Library
   Mihaly Kallay                                 : mrcc  (arbitrary order and MRCC methods)
   Frank Weinhold                                : gennbo (NPA and NBO analysis)
   Simon Mueller                                 : openCOSMO-RS
   Christopher J. Cramer and Donald G. Truhlar   : smd solvation model
   Lars Goerigk                                  : TD-DFT with DH, B97 family of functionals
   V. Asgeirsson, H. Jonsson                     : NEB implementation
   FAccTs GmbH                                   : IRC, NEB, NEB-TS, DLPNO-Multilevel, CI-OPT
                                                   MM, QMMM, 2- and 3-layer-ONIOM, Crystal-QMMM,
                                                   LR-CPCM, SF, NACMEs, symmetry and pop. for TD-DFT,
                                                   nearIR, NL-DFT gradient (VV10), updates on ESD,
                                                   ML-optimized integration grids, MBIS, APM,
                                                   GOAT, DOCKER, SOLVATOR, interface openCOSMO-RS
   S Lehtola, MJT Oliveira, MAL Marques          : LibXC Library
   Liviu Ungur et al                             : ANISO software


 Your calculation uses the libint2 library for the computation of 2-el integrals
 For citations please refer to: http://libint.valeyev.net

 Your ORCA version has been built with support for libXC version: 6.2.2
 For citations please refer to: https://libxc.gitlab.io

 This ORCA versions uses:
   CBLAS   interface :  Fast vector & matrix operations
   LAPACKE interface :  Fast linear algebra routines
   SCALAPACK package :  Parallel linear algebra routines
   Shared memory     :  Shared parallel matrices
   BLAS/LAPACK       :  OpenBLAS 0.3.27  USE64BITINT DYNAMIC_ARCH NO_AFFINITY SkylakeX SINGLE_THREADED
        Core in use  :  SkylakeX
   Copyright (c) 2011-2014, The OpenBLAS Project




***************************************
The coordinates will be read from file: xtb_opt.xyz
***************************************


Your calculation utilizes the geometrical counterpoise correction gCP
Please cite in your paper:
H.Kruse, S. Grimme J.Chem.Phys., 136, (2012), 154101 
   

Your calculation utilizes the atom-pairwise dispersion correction
based on EEQ partial charges (D4)


Your calculation utilizes the SMD solvation module
Please cite in your paper:
A.V. Marenich, C.J. Cramer, D.G. Truhlar J. Phys. Chem. B, 113, (2009), 6378 

================================================================================

----- Orbital basis set information -----
Your calculation utilizes the basis: def2-mTZVPP
   Stefan Grimme, Andreas Hansen, Sebastian Ehlert, and Jan-Michael Mewes 
   J. Chem. Phys. 154, 064103 (2021). DOI: 10.1063/5.0040021

----- AuxJ basis set information -----
Your calculation utilizes the auxiliary basis: def2/J
   F. Weigend, Phys. Chem. Chem. Phys. 8, 1057 (2006).

================================================================================
                                        WARNINGS
                       Please study these warnings very carefully!
================================================================================

WARNING: Old DensityContainer found on disk!
         Will remove this file - 
         If you want to keep old densities, please start your calculation with a different basename. 

Using LibXC functional ID 497 : Re-regularized SCAN exchange by Furness et al
[ 1]  J. W. Furness, A. D. Kaplan, J. Ning, J. P. Perdew, and J. Sun.,  J. Phys. Chem. Lett. 11, 8208-8215 (2020)
[ 2]  J. W. Furness, A. D. Kaplan, J. Ning, J. P. Perdew, and J. Sun.,  J. Phys. Chem. Lett. 11, 9248-9248 (2020)
Using LibXC functional ID 498 : Re-regularized SCAN correlation by Furness et al
[ 1]  J. W. Furness, A. D. Kaplan, J. Ning, J. P. Perdew, and J. Sun.,  J. Phys. Chem. Lett. 11, 8208-8215 (2020)
[ 2]  J. W. Furness, A. D. Kaplan, J. Ning, J. P. Perdew, and J. Sun.,  J. Phys. Chem. Lett. 11, 9248-9248 (2020)
Using LibXC functional ID 497 : Re-regularized SCAN exchange by Furness et al
[ 1]  J. W. Furness, A. D. Kaplan, J. Ning, J. P. Perdew, and J. Sun.,  J. Phys. Chem. Lett. 11, 8208-8215 (2020)
[ 2]  J. W. Furness, A. D. Kaplan, J. Ning, J. P. Perdew, and J. Sun.,  J. Phys. Chem. Lett. 11, 9248-9248 (2020)
Using LibXC functional ID 498 : Re-regularized SCAN correlation by Furness et al
[ 1]  J. W. Furness, A. D. Kaplan, J. Ning, J. P. Perdew, and J. Sun.,  J. Phys. Chem. Lett. 11, 8208-8215 (2020)
[ 2]  J. W. Furness, A. D. Kaplan, J. Ning, J. P. Perdew, and J. Sun.,  J. Phys. Chem. Lett. 11, 9248-9248 (2020)

================================================================================
                                       INPUT FILE
================================================================================
NAME = xtb_opt.inp
|  1> ! r2scan-3c def2/J RI DEFGRID2 scfconv7 ENGRAD tightSCF miniprint
|  2> %cpcm
|  3>     smd true
|  4>     smdsolvent "water"
|  5> end
|  6> * xyzfile 0 1 xtb_opt.xyz
|  7> 
|  8>                          ****END OF INPUT****
================================================================================

                     *******************************
                     * Energy+Gradient Calculation *
                     *******************************

---------------------------------
CARTESIAN COORDINATES (ANGSTROEM)
---------------------------------
  C     -4.711492   -0.990549   -0.268344
  C     -4.012932   -2.188267   -0.122655
  C     -2.634979   -2.177324    0.029571
  C     -1.933174   -0.970503    0.036963
  C     -2.637735    0.233639   -0.110838
  C     -4.025796    0.213369   -0.262041
  C     -1.923389    1.520204   -0.108770
  O     -2.532134    2.586755   -0.231102
  C     -0.451889    1.486099    0.042385
  C      0.217008    2.698795    0.016683
  C      1.607125    2.732920    0.146556
  C      2.324592    1.572356    0.308463
  C      1.678564    0.309676    0.354926
  C      0.252658    0.264722    0.206804
  C     -0.462571   -0.996380    0.204920
  O      0.104288   -2.102098    0.340415
  N      2.384103   -0.819728    0.554078
  C      3.825039   -0.923245    0.597376
  C      4.446227   -0.905236   -0.809027
  O      5.866743   -0.905046   -0.752419
  H     -5.788251   -0.999025   -0.386663
  H     -4.545822   -3.131677   -0.127769
  H     -2.080405   -3.100593    0.144010
  H     -4.547684    1.156138   -0.373859
  H     -0.355553    3.608373   -0.110476
  H      2.124875    3.684372    0.117183
  H      3.401279    1.621784    0.400995
  H      1.837235   -1.675782    0.511237
  H      4.068854   -1.870249    1.087046
  H      4.260243   -0.118503    1.198690
  H      4.152987    0.013177   -1.327040
  H      4.066263   -1.759548   -1.386883
  H      6.163949   -1.742900   -0.373956

----------------------------
CARTESIAN COORDINATES (A.U.)
----------------------------
  NO LB      ZA    FRAG     MASS         X           Y           Z
   0 C     6.0000    0    12.011   -8.903429   -1.871867   -0.507097
   1 C     6.0000    0    12.011   -7.583342   -4.135225   -0.231785
   2 C     6.0000    0    12.011   -4.979388   -4.114546    0.055882
   3 C     6.0000    0    12.011   -3.653170   -1.833985    0.069849
   4 C     6.0000    0    12.011   -4.984597    0.441514   -0.209453
   5 C     6.0000    0    12.011   -7.607651    0.403210   -0.495185
   6 C     6.0000    0    12.011   -3.634678    2.872769   -0.205545
   7 O     8.0000    0    15.999   -4.785039    4.888259   -0.436720
   8 C     6.0000    0    12.011   -0.853946    2.808319    0.080096
   9 C     6.0000    0    12.011    0.410086    5.099984    0.031526
  10 C     6.0000    0    12.011    3.037026    5.164470    0.276951
  11 C     6.0000    0    12.011    4.392842    2.971322    0.582911
  12 C     6.0000    0    12.011    3.172026    0.585204    0.670712
  13 C     6.0000    0    12.011    0.477455    0.500252    0.390803
  14 C     6.0000    0    12.011   -0.874133   -1.882886    0.387242
  15 O     8.0000    0    15.999    0.197076   -3.972389    0.643291
  16 N     7.0000    0    14.007    4.505301   -1.549062    1.047056
  17 C     6.0000    0    12.011    7.228277   -1.744680    1.128878
  18 C     6.0000    0    12.011    8.402152   -1.710647   -1.528840
  19 O     8.0000    0    15.999   11.086537   -1.710289   -1.421866
  20 H     1.0000    0     1.008  -10.938208   -1.887883   -0.730687
  21 H     1.0000    0     1.008   -8.590358   -5.918012   -0.241448
  22 H     1.0000    0     1.008   -3.931396   -5.859271    0.272139
  23 H     1.0000    0     1.008   -8.593877    2.184784   -0.706491
  24 H     1.0000    0     1.008   -0.671898    6.818837   -0.208770
  25 H     1.0000    0     1.008    4.015431    6.962455    0.221443
  26 H     1.0000    0     1.008    6.427486    3.064729    0.757770
  27 H     1.0000    0     1.008    3.471872   -3.166769    0.966097
  28 H     1.0000    0     1.008    7.689020   -3.534259    2.054220
  29 H     1.0000    0     1.008    8.050693   -0.223939    2.265195
  30 H     1.0000    0     1.008    7.848009    0.024901   -2.507742
  31 H     1.0000    0     1.008    7.684123   -3.325063   -2.620830
  32 H     1.0000    0     1.008   11.648175   -3.293603   -0.706674

------------------------------------------------------------------------------
                   ___                                                        
                  /   \      - P O W E R E D   B Y -                         
                 /     \                                                     
                 |  |  |   _    _      __       _____    __    __             
                 |  |  |  | |  | |    /  \     |  _  \  |  |  /  |          
                  \  \/   | |  | |   /    \    | | | |  |  | /  /          
                 / \  \   | |__| |  /  /\  \   | |_| |  |  |/  /          
                |  |  |   |  __  | /  /__\  \  |    /   |      \           
                |  |  |   | |  | | |   __   |  |    \   |  |\   \          
                \     /   | |  | | |  |  |  |  | |\  \  |  | \   \       
                 \___/    |_|  |_| |__|  |__|  |_| \__\ |__|  \__/        
                                                                              
                      - O R C A' S   B I G   F R I E N D -                    
                                      &                                       
                       - I N T E G R A L  F E E D E R -                       
                                                                              
 v1 FN, 2020, v2 2021, v3 2022-2024                                           
------------------------------------------------------------------------------


----------------------
SHARK INTEGRAL PACKAGE
----------------------

Number of atoms                             ...     33
Number of basis functions                   ...    465
Number of shells                            ...    223
Maximum angular momentum                    ...      2
Integral batch strategy                     ... SHARK/LIBINT Hybrid
RI-J (if used) integral strategy            ... SPLIT-RIJ (Revised 2003 algorithm where possible)
Printlevel                                  ...      1
Contraction scheme used                     ... SEGMENTED contraction
Prescreening option                         ... SCHWARTZ
   Thresh                                   ... 3.000e-11
   Tcut                                     ... 1.000e-12
   Tpresel                                  ... 1.000e-12 
Coulomb Range Separation                    ... NOT USED
Exchange Range Separation                   ... NOT USED
Multipole approximations                    ... NOT USED
Finite Nucleus Model                        ... NOT USED
CABS basis                                  ... NOT available
Auxiliary Coulomb fitting basis             ... AVAILABLE
   # of basis functions in Aux-J            ...   1123
   # of shells in Aux-J                     ...    365
   Maximum angular momentum in Aux-J        ...      4
Auxiliary J/K fitting basis                 ... NOT available
Auxiliary Correlation fitting basis         ... NOT available
Auxiliary 'external' fitting basis          ... NOT available

Checking pre-screening integrals            ... done (  0.0 sec) Dimension = 223
Check shell pair data                       ... done (  0.0 sec)
Shell pair information
Shell pair cut-off parameter TPreSel        ...   1.0e-12
Total number of shell pairs                 ...     24976
Shell pairs after pre-screening             ...     18256
Total number of primitive shell pairs       ...     92714
Primitive shell pairs kept                  ...     43456
          la=0 lb=0:   5509 shell pairs
          la=1 lb=0:   6950 shell pairs
          la=1 lb=1:   2174 shell pairs
          la=2 lb=0:   2084 shell pairs
          la=2 lb=1:   1326 shell pairs
          la=2 lb=2:    213 shell pairs

Calculating one electron integrals          ... done (  0.1 sec)
Calculating RI/J V-Matrix + Cholesky decomp.... done (  0.1 sec)
Calculating Nuclear repulsion               ... done (  0.0 sec) ENN=   1451.420502984406 Eh

Diagonalization of the overlap matrix:
Smallest eigenvalue                        ... 6.245e-06
Time for diagonalization                   ...    0.026 sec
Threshold for overlap eigenvalues          ... 1.000e-07
Number of eigenvalues below threshold      ... 0
Time for construction of square roots      ...    0.032 sec
Total time needed                          ...    0.068 sec

-------------------
DFT GRID GENERATION
-------------------

General Integration Accuracy     IntAcc      ... 4.388
Radial Grid Type                 RadialGrid  ... OptM3 with GC (2021)
Angular Grid (max. ang.)         AngularGrid ... 4 (Lebedev-302)
Angular grid pruning method      GridPruning ... 4 (adaptive)
Weight generation scheme         WeightScheme... mBecke (2022)
Basis function cutoff            BFCut       ... 1.0000e-11
Integration weight cutoff        WCut        ... 1.0000e-14
Partially contracted basis set               ... off
Rotationally invariant grid construction     ... off
Angular grids for H and He will be reduced by one unit
Diffuse basis detected: some atoms will have their outermost
                        angular grid increased by 1.

Total number of grid points                  ...   161849
Total number of batches                      ...     2547
Average number of points per batch           ...       63
Average number of grid points per atom       ...     4905
Initializing property integral containers    ... done (  0.1 sec)

SHARK setup successfully completed in   3.6 seconds

Maximum memory used throughout the entire STARTUP-calculation: 84.2 MB
Occupation numbers will be reassigned to an Aufbau configuration
             **** ENERGY FILE WAS UPDATED (xtb_opt.en.tmp) ****
Finished Guess after   0.8 sec
Maximum memory used throughout the entire GUESS-calculation: 45.0 MB
--------------------
CPCM SOLVATION MODEL
--------------------
CPCM parameters:
  Epsilon                                         ...      78.3550
  Refrac                                          ...       1.3328
  Rsolv                                           ...       1.3000
  Surface type                                    ... GAUSSIAN VDW
  Discretization scheme                           ... Constant charge density
    Threshold for H atoms                         ...       5.0000 (charges/Ang^2)
    Threshold for non-H atoms                     ...       5.0000 (charges/Ang^2)
  Epsilon function type                           ...         CPCM
Solvent:                                          ... WATER
SMD-CDS solvent descriptors:
  Soln                                            ...       1.3328
  Soln25                                          ...       1.3323
  Sola                                            ...       0.0000
  Solb                                            ...       0.0000
  Solg                                            ...       0.0000
  Solc                                            ...       0.0000
  Solh                                            ...       0.0000
Radii:
  Scheme                                          ... Element-dependent radii
  Radius for C  used is    3.4960 Bohr (=   1.8500 Ang.)
  Radius for O  used is    2.8724 Bohr (=   1.5200 Ang.)
  Radius for N  used is    3.5716 Bohr (=   1.8900 Ang.)
  Radius for H  used is    2.2677 Bohr (=   1.2000 Ang.)
Calculating surface                               ...        done! (  0.0s)
Cavity surface points                             ...         2461
Cavity Volume                                     ...    1723.4945
Cavity Surface-area                               ...     974.4610
Calculating surface distance matrix               ...        done! (  0.0s)
Performing Cholesky decomposition & store         ...        done! (  0.5s)
Overall time for CPCM initialization              ...                 0.6s

----------------------------------------D-I-I-S--------------------------------------------
Iteration    Energy (Eh)           Delta-E    RMSDP     MaxDP     DIISErr   Damp  Time(sec)
-------------------------------------------------------------------------------------------
               ***  Starting incremental Fock matrix formation  ***
    1    -897.8162999176634003     0.00e+00  2.04e-04  1.92e-02  5.11e-03  0.700  16.1
Warning: op=0 Small HOMO/LUMO gap (   0.062) - skipping pre-diagonalization
[...]
                          DFT DISPERSION CORRECTION                            
                                                                               
                                DFTD4 V3.4.0                                   
-------------------------------------------------------------------------------
-------------------------   ----------------
Dispersion correction           -0.015537607
-------------------------   ----------------

------------------   -----------------
gCP correction             0.015860596
------------------   -----------------

-------------------------   --------------------
FINAL SINGLE POINT ENERGY      -897.807808018377
-------------------------   --------------------

------------------------------------------------------------------------------
                         ORCA SCF GRADIENT CALCULATION
------------------------------------------------------------------------------

Nuc. rep. gradient        (SHARK) ... done (  0.0 sec)
HCore & Overlap gradient  (SHARK) ... done (  2.0 sec)
Split-RIJ-J gradient      (SHARK) ... done ( 11.6 sec)
XC gradient                       ... done ( 28.6 sec)
CPCM gradient                     ... done (  5.3 sec)
SMD gradient                      ... done (  0.0 sec)
Dispersion correction             ... done (  0.0 sec)

-------------------
DISPERSION GRADIENT
-------------------

   1   C   :   -0.000124441   -0.000036063   -0.000012519
   2   C   :   -0.000100583   -0.000091494   -0.000006784
   3   C   :   -0.000060252   -0.000132015    0.000000978
   4   C   :   -0.000067096   -0.000085623   -0.000000430
   5   C   :   -0.000105131    0.000018328   -0.000012344
   6   C   :   -0.000138958    0.000023839   -0.000017374
   7   C   :   -0.000076786    0.000114587   -0.000014594
   8   O   :   -0.000073175    0.000126706   -0.000015250
   9   C   :   -0.000010919    0.000119271   -0.000004037
  10   C   :    0.000014379    0.000164199   -0.000007334
  11   C   :    0.000052444    0.000162827    0.000003360
  12   C   :    0.000080836    0.000109678    0.000022647
  13   C   :    0.000071105    0.000011254    0.000033207
  14   C   :    0.000018149    0.000010159    0.000018224
  15   C   :   -0.000002317   -0.000108605    0.000017655
  16   O   :    0.000015636   -0.000145755    0.000023599
  17   N   :    0.000071453   -0.000087624    0.000046773
  18   C   :    0.000115213   -0.000050498    0.000025634
  19   C   :    0.000089601   -0.000044790   -0.000046813
  20   O   :    0.000088771   -0.000036975   -0.000026719
  21   H   :   -0.000046610   -0.000006198   -0.000005229
  22   H   :   -0.000028024   -0.000037434   -0.000001376
  23   H   :   -0.000003906   -0.000058462    0.000002953
  24   H   :   -0.000046204    0.000029919   -0.000007151
  25   H   :   -0.000005484    0.000056870   -0.000005284
  26   H   :    0.000020496    0.000054403   -0.000000514
  27   H   :    0.000033957    0.000038411    0.000010720
  28   H   :    0.000019979   -0.000038796    0.000016153
  29   H   :    0.000032915   -0.000028390    0.000016713
  30   H   :    0.000040032   -0.000014390    0.000020714
  31   H   :    0.000056046   -0.000016205   -0.000032023
  32   H   :    0.000043575   -0.000024191   -0.000029292
  33   H   :    0.000025303    0.000003058   -0.000014264

Difference to translation invariance:
           :    0.0000000000    0.0000000000    0.0000000000

Difference to rotation invariance:
           :   -0.0000000000   -0.0000000000    0.0000000000

Norm of the Dispersion gradient    ...    0.0006010940
RMS gradient                       ...    0.0000604122
MAX gradient                       ...    0.0001641985
gCP correction                   ... done

------------------
CARTESIAN GRADIENT
------------------

   1   C   :   -0.000026933   -0.000018303   -0.000006696
   2   C   :   -0.000019941    0.000000973   -0.000011653
   3   C   :   -0.000013531    0.000019517   -0.000032504
   4   C   :   -0.000023367    0.000021948   -0.000019944
   5   C   :   -0.000087590    0.000051145    0.000032547
   6   C   :    0.000037754   -0.000047646    0.000032708
   7   C   :    0.000070708   -0.000086721   -0.000130286
   8   O   :   -0.000037306    0.000036885    0.000025697
   9   C   :   -0.000008947    0.000026318    0.000037992
  10   C   :    0.000071535   -0.000047037    0.000037166
  11   C   :    0.000036047    0.000051297    0.000015552
  12   C   :    0.000014238   -0.000052794    0.000005902
  13   C   :    0.000007994   -0.000073283    0.000016349
  14   C   :    0.000022771    0.000142491    0.000001403
  15   C   :    0.000056389   -0.000209020    0.000034086
  16   O   :   -0.000057473    0.000003321   -0.000013023
  17   N   :   -0.000027729    0.000013668    0.000006951
  18   C   :   -0.000192994   -0.000023498    0.000125487
  19   C   :    0.000060871   -0.000013975   -0.000108139
  20   O   :   -0.000083193    0.000100604    0.000010445
  21   H   :   -0.000054424    0.000036443   -0.000010105
  22   H   :   -0.000015304   -0.000041687   -0.000007138
  23   H   :    0.000046660   -0.000005939   -0.000013093
  24   H   :    0.000028201    0.000086829   -0.000002045
  25   H   :   -0.000083667    0.000011649    0.000002600
  26   H   :    0.000016791    0.000050272    0.000002799
  27   H   :    0.000054157    0.000004911    0.000002914
  28   H   :    0.000151638    0.000016667   -0.000057972
  29   H   :    0.000017365    0.000038203    0.000018885
  30   H   :   -0.000000953    0.000012663   -0.000029360
  31   H   :   -0.000036723    0.000007670   -0.000008303
  32   H   :   -0.000013945   -0.000037596   -0.000011036
  33   H   :    0.000090900   -0.000075975    0.000051814

Difference to translation invariance:
           :    0.0000000000    0.0000000000   -0.0000000000

Difference to rotation invariance:
           :    0.0005106006   -0.0008208065   -0.0004035763

Norm of the Cartesian gradient     ...    0.0005629640
RMS gradient                       ...    0.0000565800
MAX gradient                       ...    0.0002090204

-------
TIMINGS
-------

Total SCF gradient time     ....       51.762 sec

Densities                   ....       0.005 sec  (  0.0%)
One electron gradient       ....       1.955 sec  (  3.8%)
RI-J Coulomb gradient       ....      11.576 sec  ( 22.4%)
XC gradient                 ....      28.575 sec  ( 55.2%)
CPCM gradient               ....       5.281 sec  ( 10.2%)
   A-Matrix (El+Nuc)        ....       0.219 sec  (  0.4%)
   Potential                ....       5.062 sec  (  9.8%)
SMD gradient                ....       0.014 sec  (  0.0%)

Maximum memory used throughout the entire SCFGRAD-calculation: 71.9 MB

------------------------------------------------------------------------------
                              ORCA PROPERTY CALCULATIONS
------------------------------------------------------------------------------

GBWName                                 ... xtb_opt.gbw
Number of atoms                         ...     33
Number of basis functions               ...    465
Max core memory                         ...   1024 MB

Electric properties:
Dipole moment                           ... YES
Quadrupole moment                       ...  NO
Static polarizability (Dipole/Dipole)   ...  NO
Static polarizability (Dipole/Quad.)    ...  NO
Static polarizability (Quad./Quad.)     ...  NO
Static polarizability (Velocity)        ...  NO

Atomic electric properties:
Dipole moment                           ...  NO
Quadrupole moment                       ...  NO
Static polarizability                   ...  NO

Choice of electric origin               ... Center of mass
Position of electric origin             ...    -0.003764    -0.003211     0.005204

General magnetic properties:
Magnetizability                         ...  NO

EPR properties:
g-Tensor (aka g-matrix)                 ...  NO
Zero-Field splitting spin-orbit         ...  NO
Zero-field splitting spin-spin          ...  NO
Hyperfine couplings                     ...  NO (   0 nuclei)
Quadrupole couplings                    ...  NO (   0 nuclei)
Contact density                         ...  NO (   0 nuclei)

NMR properties:
Chemical shifts                         ...  NO (   0 nuclei)
Spin-rotation constants                 ...  NO (   0 nuclei)
Spin-spin couplings                     ...  NO (   0 nuclei,    0 pairs)

Choice of magnetic origin               ... GIAO
Position of magnetic origin             ...     0.000000     0.000000     0.000000

Properties with geometric perturbations:
SCF Hessian                             ...  NO
IR spectrum                             ...  NO
VCD spectrum                            ...  NO
X-ray spectroscopy properties:
SCF XES/XAS/RIXS spectra                ...  NO


-------------
DIPOLE MOMENT
-------------

Method             : SCF
Type of density    : Electron Density
Multiplicity       :   1
Irrep              :   0
Energy             :  -897.8081310070991776 Eh
Relativity type    : 
Basis              : AO
                                X                 Y                 Z
Electronic contribution:    -11.005660126       2.621215235       0.978700226
Nuclear contribution   :     12.097267480      -4.001387042      -0.677514774
                        -----------------------------------------
Total Dipole Moment    :      1.091607354      -1.380171806       0.301185452
                        -----------------------------------------
Magnitude (a.u.)       :      1.785271270
Magnitude (Debye)      :      4.537798943



--------------------
Rotational spectrum 
--------------------
 
Rotational constants in cm-1:             0.022835             0.006852             0.005413 
Rotational constants in MHz :           684.566303           205.418664           162.284661 

Dipole components along the rotational axes: 
x,y,z [a.u.] :    -1.089243    -1.382977     0.296849 
x,y,z [Debye]:    -2.768635    -3.515247     0.754530 

 

Dipole moment calculation done in   0.1 sec 

Maximum memory used throughout the entire PROP-calculation: 42.1 MB

--------------------------------
SUGGESTED CITATIONS FOR THIS RUN
--------------------------------

Below you find a list of papers that are relevant to this ORCA run
We neither can nor want to force you to cite these papers, but we appreciate if you do
You receive ORCA, which is the product of decades of hard work by many enthusiastic individuals, for free
The only thing we kindly ask in return is that you cite our papers,
We deeply appreciate it, if you show your appreciation for ORCA by not just citing the generic ORCA reference.

Please note that relegating all ORCA citations to the supporting information does *not* help us.
SI sections are not indexed - citations you put there will not count into any citation statistics
But we need these citations in order to attract the funding resources that allow us to do what we are doing

Therefore, if you are a happy ORCA user, please consider citing a few of the papers listed below in the main body of your paper

In addition to the list printed below, the program has created the file xtb_opt.bibtex that contains the list in bibtex format
You can import this file easily into all common literature databanks and citation aid programs


List of essential papers. We consider these as the minimum necessary citations

  1. Neese,F.
     Software update: the ORCA program system, version 5.0
     WIRES Comput. Molec. Sci., 2022 12(1)e1606
     doi.org/10.1002/wcms.1606
  2. Grimme,S.; Hansen,A.; Ehlert,S.; Mewes,J.
     r2SCAN-3c: A 'Swiss army knife' composite electronic-structure method
     J. Chem. Phys., 2021 154 064103
     doi.org/10.1063/5.0040021

List of papers to cite with high priority. The work reported in these papers was absolutely
necessary for this run to complete.
Our perspective: the developers of density functionals and basis sets usually get cited in chemistry papers
Good! But without the algorithms to do something with them, the functionals or basis sets would not do anything.
Hence, in our opinion, the algorithm design and method developments papers are equally worthy of getting cited

  1. Neese,F.
     An improvement of the resolution of the identity approximation for the formation of the Coulomb matrix
     J. Comp. Chem., 2003 24(14)1740-1747
     doi.org/10.1002/jcc.10318
  2. Garcia-Rates,M.; Neese,F.
     Effect of the Solute Cavity on the Solvation Energy and its Derivatives within the Framework of the Gaussian Charge Scheme
     J. Comput. Chem., 2020 41 922-939
     doi.org/10.1002/jcc.26139
  3. Neese,F.
     The SHARK Integral Generation and Digestion System
     J. Comp. Chem., 2022  1-16
     doi.org/10.1002/jcc.26942
  4. Lehtola,S.; Steigemann,C.; Oliveira,M.; Marques,M.
     Recent developments in Libxc - A comprehensive library of functionals for density functional theory
     Software X, 2018 7 
     doi.org/10.1016/j.softx.2017.11.002
  5. Caldeweyher,E.; Bannwarth,C.; Grimme,S.
     Extension of the D3 dispersion coefficient model
     J. Chem. Phys., 2017 147 034112-XXXX
     doi.org/10.1063/1.4993215
  6. Caldeweyher,E.; Ehlert,S.; Hansen,A.; Neugebauer,H.; Spicher,S.; Bannwarth,C.; Grimme,S.
     A generally applicable atomic-charge dependent London dispersion correction
     J. Chem. Phys., 2019 150 154122-XXXX
     doi.org/10.1063/1.5090222
  7. Caldeweyher,E.; Mewes,J.; Ehlert,S.; Grimme,S.
     Extension and evaluation of the D4 London-dispersion model for periodic systems
     Phys. Chem. Chem. Phys., 2020 22(16)8499-8512
     doi.org/10.1039/D0CP00502A

List of suggested additional citations. These are papers that are important in the 'surrounding' of 
of this run, or papers that preceded the highly important papers. If you like your results we are grateful for a citation.

  1. Neese,F.
     The ORCA program system
     WIRES Comput. Molec. Sci., 2012 2(1)73-78
     doi.org/10.1002/wcms.81
  2. Neese,F.
     Software update: the ORCA program system, version 4.0
     WIRES Comput. Molec. Sci., 2018 8(1)1-6
     doi.org/10.1002/wcms.1327
  3. Neese,F.; Wennmohs,F.; Becker,U.; Riplinger,C.
     The ORCA quantum chemistry program package
     J. Chem. Phys., 2020 152 Art. No. L224108
     doi.org/10.1063/5.0004608

List of optional additional citations

  1. Neese,F.
     Approximate second-order SCF convergence for spin unrestricted wavefunctions
     Chem. Phys. Lett., 2000 325(1-3)93-98
     doi.org/10.1016/s0009-2614(00)00662-x

Timings for individual modules:

Sum of individual times          ...       95.224 sec (=   1.587 min)
Startup calculation              ...        4.690 sec (=   0.078 min)   4.9 %
SCF iterations                   ...       38.295 sec (=   0.638 min)  40.2 %
Property calculations            ...        0.286 sec (=   0.005 min)   0.3 %
SCF Gradient evaluation          ...       51.953 sec (=   0.866 min)  54.6 %
                             ****ORCA TERMINATED NORMALLY****
TOTAL RUN TIME: 0 days 0 hours 1 minutes 36 seconds 347 msec
  ------------------------------------------------------------------------
          * successful ORCA run, taking over control again...

         :::::::::::::::::::::::::::::::::::::::::::::::::::::
         ::                  ORCA SUMMARY                   ::
         :::::::::::::::::::::::::::::::::::::::::::::::::::::
         :: total energy            -897.807808018377 Eh    ::
         :: gradient norm              0.000562963988 Eh/a0 ::
         :: HOMO-LUMO gap              0.000000000000 eV    ::
         :::::::::::::::::::::::::::::::::::::::::::::::::::::

           -------------------------------------------------
          |                Property Printout                |
           -------------------------------------------------
           -------------------------------------------------
          |                Geometry Summary                 |
           -------------------------------------------------

      molecular mass/u    :      267.2799221
   center of mass at/Å    :       -0.0019836      -0.0016999       0.0027520
  moments of inertia/u·Å² :        0.7382386E+03   0.2460211E+04   0.3114117E+04
rotational constants/cm⁻¹ :        0.2283494E-01   0.6852107E-02   0.5413295E-02

 * 29 selected distances

     #   Z          #   Z                                           value/Å
     1   6 C        2   6 C                                       1.3957803
     2   6 C        3   6 C                                       1.3886036
     3   6 C        4   6 C                                       1.3973710
     4   6 C        5   6 C                                       1.4046637
     1   6 C        6   6 C                                       1.3871502
     5   6 C        6   6 C                                       1.3978703
     7   6 C        8   8 O                                       1.2352079
     9   6 C       10   6 C                                       1.3852354
    10   6 C       11   6 C                                       1.3979431
    11   6 C       12   6 C                                       1.3752342
    12   6 C       13   6 C                                       1.4198357
     9   6 C       14   6 C                                       1.4222013
    13   6 C       17   7 N                                       1.3511530
    17   7 N       18   6 C                                       1.4531706
    18   6 C       19   6 C                                       1.5305450 (max)
    19   6 C       20   8 O                                       1.4327595
     1   6 C       21   1 H                                       1.0849463
     2   6 C       22   1 H                                       1.0851505
     3   6 C       23   1 H                                       1.0838074
     6   6 C       24   1 H                                       1.0842984
    10   6 C       25   1 H                                       1.0830465
    11   6 C       26   1 H                                       1.0852947
    12   6 C       27   1 H                                       1.0828062
    17   7 N       28   1 H                                       1.0148745
    18   6 C       29   1 H                                       1.0945952
    18   6 C       30   1 H                                       1.0950520
    19   6 C       31   1 H                                       1.0946244
    19   6 C       32   1 H                                       1.0982843
    20   8 O       33   1 H                                       0.9664461 (min)

 * 6 distinct bonds (by element types)

   Z      Z             #   av. dist./Å        max./Å        min./Å
   1 H    6 C          11     1.0883551     1.0982843     1.0828062
   6 C    6 C          12     1.4085362     1.5305450     1.3752342
   1 H    7 N           1     1.0148745     1.0148745     1.0148745
   6 C    7 N           2     1.4021618     1.4531706     1.3511530
   1 H    8 O           1     0.9664461     0.9664461     0.9664461
   6 C    8 O           2     1.3339837     1.4327595     1.2352079


optimized geometry written to: xtbopt.coord


           -------------------------------------------------
          | TOTAL ENERGY             -897.807808018377 Eh   |
          | GRADIENT NORM               0.000562963988 Eh/α |
           -------------------------------------------------

------------------------------------------------------------------------
 * finished run on 2025/04/11 at 16:25:50.869     
------------------------------------------------------------------------
 total:
 * wall-time:     0 d,  0 h, 18 min, 34.543 sec
 *  cpu-time:     0 d,  0 h,  0 min,  2.469 sec
 * ratio c/w:     0.002 speedup
 SCF:
 * wall-time:     0 d,  0 h,  1 min, 35.793 sec
 *  cpu-time:     0 d,  0 h,  0 min,  0.467 sec
 * ratio c/w:     0.005 speedup
 ANC optimizer:
 * wall-time:     0 d,  0 h, 16 min, 58.683 sec
 *  cpu-time:     0 d,  0 h,  0 min,  1.913 sec
 * ratio c/w:     0.002 speedup

