
                                 *****************
                                 * O   R   C   A *
                                 *****************

                                            #,                                       
                                            ###                                      
                                            ####                                     
                                            #####                                    
                                            ######                                   
                                           ########,                                 
                                     ,,################,,,,,                         
                               ,,#################################,,                 
                          ,,##########################################,,             
                       ,#########################################, ''#####,          
                    ,#############################################,,   '####,        
                  ,##################################################,,,,####,       
                ,###########''''           ''''###############################       
              ,#####''   ,,,,##########,,,,          '''####'''          '####       
            ,##' ,,,,###########################,,,                        '##       
           ' ,,###''''                  '''############,,,                           
         ,,##''                                '''############,,,,        ,,,,,,###''
      ,#''                                            '''#######################'''  
     '                                                          ''''####''''         
             ,#######,   #######,   ,#######,      ##                                
            ,#'     '#,  ##    ##  ,#'     '#,    #''#        ,####,   ,####,        
            ##       ##  ##   ,#'  ##            #'  '#       #'       #'  '#        
            ##       ##  #######   ##           ,######,      #####,   #    #        
            '#,     ,#'  ##    ##  '#,     ,#' ,#      #,     #,   #   #,  ,#        
             '#######'   ##     ##  '#######'  #'      '#     '####' # '####'        



                #########################################################
                #                        -***-                          #
                #          Department of theory and spectroscopy        #
                #                                                       #
                #                      Frank Neese                      #
                #                                                       #
                #     Directorship, Architecture, Infrastructure        #
                #                    SHARK, DRIVERS                     #
                #        Core code/Algorithms in most modules           #
                #                                                       #
                #        Max Planck Institute fuer Kohlenforschung      #
                #                Kaiser Wilhelm Platz 1                 #
                #                 D-45470 Muelheim/Ruhr                 #
                #                      Germany                          #
                #                                                       #
                #                  All rights reserved                  #
                #                        -***-                          #
                #########################################################


                         Program Version 6.0.0  -   RELEASE  -


 With contributions from (in alphabetic order):
   Daniel Aravena         : Magnetic Suceptibility
   Michael Atanasov       : Ab Initio Ligand Field Theory (pilot matlab implementation)
   Alexander A. Auer      : GIAO ZORA, VPT2 properties, NMR spectrum
   Ute Becker             : All parallelization in ORCA, NUMFREQ, NUMCALC
   Giovanni Bistoni       : ED, misc. LED, open-shell LED, HFLD
   Martin Brehm           : Molecular dynamics
   Dmytro Bykov           : pre 5.0 version of the SCF Hessian
   Marcos Casanova-Páez   : Triplet and SCS-CIS(D). UHF-(DLPNO)-IP/EA/STEOM-CCSD. UHF-CVS-IP/STEOM-CCSD
   Vijay G. Chilkuri      : MRCI spin determinant printing, contributions to CSF-ICE
   Pauline Colinet        : FMM embedding
   Dipayan Datta          : RHF DLPNO-CCSD density
   Achintya Kumar Dutta   : EOM-CC, STEOM-CC
   Nicolas Foglia         : Exact transition moments, OPA infrastructure, MCD improvements
   Dmitry Ganyushin       : Spin-Orbit,Spin-Spin,Magnetic field MRCI
   Miquel Garcia          : C-PCM and meta-GGA Hessian, CCSD/C-PCM, Gaussian charge scheme
   Tiago L. C. Gouveia    : GS-ROHF, GS-ROCIS
   Yang Guo               : DLPNO-NEVPT2, F12-NEVPT2, CIM, IAO-localization
   Andreas Hansen         : Spin unrestricted coupled pair/coupled cluster methods
   Ingolf Harden          : AUTO-CI MPn and infrastructure 
   Benjamin Helmich-Paris : MC-RPA, TRAH-(SCF,CASSCF), AVAS, COSX integrals, SCF dyn. polar.
   Lee Huntington         : MR-EOM, pCC
   Robert Izsak           : Overlap fitted RIJCOSX, COSX-SCS-MP3, EOM
   Riya Kayal             : Wick's Theorem for AUTO-CI, AUTO-CI UHF-CCSDT
   Emily Kempfer          : AUTO-CI, RHF CISDT and CCSDT
   Christian Kollmar      : KDIIS, OOCD, Brueckner-CCSD(T), CCSD density, CASPT2, CASPT2-K, improved NEVPT2
   Axel Koslowski         : Symmetry handling
   Simone Kossmann        : Meta GGA functionals, TD-DFT gradient, OOMP2, (MP2 Hessian; deprecated post 5.0)
   Lucas Lang             : DCDCAS
   Marvin Lechner         : AUTO-CI (C++ implementation), FIC-MRCC
   Spencer Leger          : CASSCF response
   Dagmar Lenk            : GEPOL surface, SMD, ORCA-2-JSON
   Dimitrios Liakos       : Extrapolation schemes; Compound Job, initial MDCI parallelization
   Dimitrios Manganas     : Further ROCIS development; embedding schemes. LFT, Crystal Embedding
   Dimitrios Pantazis     : SARC Basis sets
   Anastasios Papadopoulos: AUTO-CI, single reference methods and gradients
   Taras Petrenko         : pre 6.0 DFT Hessian and TD-DFT gradient, (ASA, deprecated), ECA, 1-Electron XAS/XES, NRVS
   Peter Pinski           : DLPNO-MP2, DLPNO-MP2 Gradient
   Christoph Reimann      : Effective Core Potentials
   Marius Retegan         : Local ZFS, SOC
   Christoph Riplinger    : Optimizer, TS searches, QM/MM, DLPNO-CCSD(T), (RO)-DLPNO pert. Triples
   Michael Roemelt        : Original ROCIS implementation
   Masaaki Saitow         : Open-shell DLPNO-CCSD energy and density
   Barbara Sandhoefer     : DKH picture change effects
   Kantharuban Sivalingam : CASSCF convergence/infrastructure, NEVPT2 and variants, FIC-MRCI
   Bernardo de Souza      : ESD, SOC TD-DFT
   Georgi Stoychev        : AutoAux, RI-MP2 NMR, DLPNO-MP2 response, X2C
   Van Anh Tran           : RI-MP2 g-tensors
   Willem Van den Heuvel  : Paramagnetic NMR
   Zikuan Wang            : NOTCH, Electric field optimization 
   Frank Wennmohs         : Technical directorship and infrastructure
   Hang Xu                : AUTO-CI-Response properties 


 We gratefully acknowledge several colleagues who have allowed us to
 interface, adapt or use parts of their codes:
   Stefan Grimme, W. Hujo, H. Kruse, P. Pracht,  : VdW corrections, initial TS optimization,
                  C. Bannwarth, S. Ehlert,         DFT functionals, gCP, sTDA/sTD-DF
                  L. Wittmann, M. Mueller
   Ed Valeev, F. Pavosevic, A. Kumar             : LibInt (2-el integral package), F12 methods
   Garnet Chan, S. Sharma, J. Yang, R. Olivares  : DMRG
   Ulf Ekstrom                                   : XCFun DFT Library
   Mihaly Kallay                                 : mrcc  (arbitrary order and MRCC methods)
   Frank Weinhold                                : gennbo (NPA and NBO analysis)
   Simon Mueller                                 : openCOSMO-RS
   Christopher J. Cramer and Donald G. Truhlar   : smd solvation model
   Lars Goerigk                                  : TD-DFT with DH, B97 family of functionals
   V. Asgeirsson, H. Jonsson                     : NEB implementation
   FAccTs GmbH                                   : IRC, NEB, NEB-TS, DLPNO-Multilevel, CI-OPT
                                                   MM, QMMM, 2- and 3-layer-ONIOM, Crystal-QMMM,
                                                   LR-CPCM, SF, NACMEs, symmetry and pop. for TD-DFT,
                                                   nearIR, NL-DFT gradient (VV10), updates on ESD,
                                                   ML-optimized integration grids, MBIS, APM,
                                                   GOAT, DOCKER, SOLVATOR, interface openCOSMO-RS
   S Lehtola, MJT Oliveira, MAL Marques          : LibXC Library
   Liviu Ungur et al                             : ANISO software


 Your calculation uses the libint2 library for the computation of 2-el integrals
 For citations please refer to: http://libint.valeyev.net

 Your ORCA version has been built with support for libXC version: 6.2.2
 For citations please refer to: https://libxc.gitlab.io

 This ORCA versions uses:
   CBLAS   interface :  Fast vector & matrix operations
   LAPACKE interface :  Fast linear algebra routines
   SCALAPACK package :  Parallel linear algebra routines
   Shared memory     :  Shared parallel matrices
   BLAS/LAPACK       :  OpenBLAS 0.3.27  USE64BITINT DYNAMIC_ARCH NO_AFFINITY SkylakeX SINGLE_THREADED
        Core in use  :  SkylakeX
   Copyright (c) 2011-2014, The OpenBLAS Project


Your calculation utilizes the geometrical counterpoise correction gCP
Please cite in your paper:
H.Kruse, S. Grimme J.Chem.Phys., 136, (2012), 154101 
   

Your calculation utilizes the atom-pairwise dispersion correction
based on EEQ partial charges (D4)


================================================================================

----- Orbital basis set information -----
Your calculation utilizes the basis: def2-mTZVPP
   Stefan Grimme, Andreas Hansen, Sebastian Ehlert, and Jan-Michael Mewes 
   J. Chem. Phys. 154, 064103 (2021). DOI: 10.1063/5.0040021

----- AuxJ basis set information -----
Your calculation utilizes the auxiliary basis: def2/J
   F. Weigend, Phys. Chem. Chem. Phys. 8, 1057 (2006).

================================================================================
                                        WARNINGS
                       Please study these warnings very carefully!
================================================================================

Using LibXC functional ID 497 : Re-regularized SCAN exchange by Furness et al
[ 1]  J. W. Furness, A. D. Kaplan, J. Ning, J. P. Perdew, and J. Sun.,  J. Phys. Chem. Lett. 11, 8208-8215 (2020)
[ 2]  J. W. Furness, A. D. Kaplan, J. Ning, J. P. Perdew, and J. Sun.,  J. Phys. Chem. Lett. 11, 9248-9248 (2020)
Using LibXC functional ID 498 : Re-regularized SCAN correlation by Furness et al
[ 1]  J. W. Furness, A. D. Kaplan, J. Ning, J. P. Perdew, and J. Sun.,  J. Phys. Chem. Lett. 11, 8208-8215 (2020)
[ 2]  J. W. Furness, A. D. Kaplan, J. Ning, J. P. Perdew, and J. Sun.,  J. Phys. Chem. Lett. 11, 9248-9248 (2020)
Using LibXC functional ID 497 : Re-regularized SCAN exchange by Furness et al
[ 1]  J. W. Furness, A. D. Kaplan, J. Ning, J. P. Perdew, and J. Sun.,  J. Phys. Chem. Lett. 11, 8208-8215 (2020)
[ 2]  J. W. Furness, A. D. Kaplan, J. Ning, J. P. Perdew, and J. Sun.,  J. Phys. Chem. Lett. 11, 9248-9248 (2020)
Using LibXC functional ID 498 : Re-regularized SCAN correlation by Furness et al
[ 1]  J. W. Furness, A. D. Kaplan, J. Ning, J. P. Perdew, and J. Sun.,  J. Phys. Chem. Lett. 11, 8208-8215 (2020)
[ 2]  J. W. Furness, A. D. Kaplan, J. Ning, J. P. Perdew, and J. Sun.,  J. Phys. Chem. Lett. 11, 9248-9248 (2020)

================================================================================
                                       INPUT FILE
================================================================================
NAME = sp_gas.inp
|  1> ! r2scan-3c def2/J RI DEFGRID2 scfconv6 printgap
|  2> %output
|  3>     printlevel normal
|  4> end
|  5> * xyz 0 1
|  6> C 1.4482603855 0.218579576 -1.3165848388
|  7> C 1.1020868051 0.2677854738 0.1795545099
|  8> C 2.3280221677 -0.1426744528 1.0000328499
|  9> N 0.0031378018 -0.5869090721 0.5968490391
| 10> C -1.3803860426 -0.282070755 0.2557371018
| 11> C -1.79911616 -0.6391158823 -1.1802530559
| 12> C -1.7333801041 1.1702373962 0.5668395145
| 13> H 0.6697489136 0.6755755383 -1.9208856935
| 14> H 2.3753852094 0.7566440356 -1.4980383143
| 15> H 1.5789427998 -0.8128757494 -1.6394177863
| 16> H 0.8387412094 1.294846506 0.4489519287
| 17> H 3.1493441874 0.546951194 0.8265069594
| 18> H 2.6486629971 -1.1440465334 0.721280353
| 19> H 2.0818535168 -0.1410026267 2.0576210367
| 20> H 0.2070399018 -1.5475841234 0.3425067862
| 21> H -1.9689255506 -0.9218988942 0.9303628942
| 22> H -1.4678841658 -1.6442437692 -1.4343254896
| 23> H -2.8825809386 -0.6039470357 -1.2642043209
| 24> H -1.3804978145 0.0573078328 -1.9015691715
| 25> H -2.8118225373 1.2972018574 0.5271634759
| 26> H -1.2839361278 1.8455933489 -0.1573350561
| 27> H -1.3863915002 1.4340896638 1.5619806717
| 28> *
| 29> 
| 30>                          ****END OF INPUT****
================================================================================

                       ****************************
                       * Single Point Calculation *
                       ****************************

---------------------------------
CARTESIAN COORDINATES (ANGSTROEM)
---------------------------------
  C      1.448260    0.218580   -1.316585
  C      1.102087    0.267785    0.179555
  C      2.328022   -0.142674    1.000033
  N      0.003138   -0.586909    0.596849
  C     -1.380386   -0.282071    0.255737
  C     -1.799116   -0.639116   -1.180253
  C     -1.733380    1.170237    0.566840
  H      0.669749    0.675576   -1.920886
  H      2.375385    0.756644   -1.498038
  H      1.578943   -0.812876   -1.639418
  H      0.838741    1.294847    0.448952
  H      3.149344    0.546951    0.826507
  H      2.648663   -1.144047    0.721280
  H      2.081854   -0.141003    2.057621
  H      0.207040   -1.547584    0.342507
  H     -1.968926   -0.921899    0.930363
  H     -1.467884   -1.644244   -1.434325
  H     -2.882581   -0.603947   -1.264204
  H     -1.380498    0.057308   -1.901569
  H     -2.811823    1.297202    0.527163
  H     -1.283936    1.845593   -0.157335
  H     -1.386392    1.434090    1.561981

----------------------------
CARTESIAN COORDINATES (A.U.)
----------------------------
  NO LB      ZA    FRAG     MASS         X           Y           Z
   0 C     6.0000    0    12.011    2.736815    0.413056   -2.487985
   1 C     6.0000    0    12.011    2.082642    0.506041    0.339309
   2 C     6.0000    0    12.011    4.399324   -0.269616    1.889788
   3 N     7.0000    0    14.007    0.005930   -1.109097    1.127881
   4 C     6.0000    0    12.011   -2.608552   -0.533036    0.483273
   5 C     6.0000    0    12.011   -3.399837   -1.207754   -2.230355
   6 C     6.0000    0    12.011   -3.275614    2.211428    1.071171
   7 H     1.0000    0     1.008    1.265642    1.276653   -3.629948
   8 H     1.0000    0     1.008    4.488828    1.429850   -2.830882
   9 H     1.0000    0     1.008    2.983769   -1.536113   -3.098051
  10 H     1.0000    0     1.008    1.584991    2.446905    0.848396
  11 H     1.0000    0     1.008    5.951398    1.033588    1.561872
  12 H     1.0000    0     1.008    5.005248   -2.161935    1.363022
  13 H     1.0000    0     1.008    3.934133   -0.266456    3.888340
  14 H     1.0000    0     1.008    0.391249   -2.924510    0.647244
  15 H     1.0000    0     1.008   -3.720730   -1.742136    1.758131
  16 H     1.0000    0     1.008   -2.773899   -3.107170   -2.710482
  17 H     1.0000    0     1.008   -5.447289   -1.141294   -2.389000
  18 H     1.0000    0     1.008   -2.608763    0.108296   -3.593445
  19 H     1.0000    0     1.008   -5.313575    2.451356    0.996195
  20 H     1.0000    0     1.008   -2.426288    3.487666   -0.297320
  21 H     1.0000    0     1.008   -2.619900    2.710037    2.951716

--------------------------------
INTERNAL COORDINATES (ANGSTROEM)
--------------------------------
 C      0   0   0     0.000000000000     0.00000000     0.00000000
 C      1   0   0     1.536453812802     0.00000000     0.00000000
 C      2   1   0     1.531202002032   109.43917731     0.00000000
 N      2   1   3     1.453384464877   115.53825693   239.06708800
 C      4   2   1     1.457196617264   121.84814549   287.84034142
 C      5   4   2     1.537817891416   115.37490843    78.59154629
 C      5   4   2     1.526626504645   111.76757927   311.40808280
 H      1   2   3     1.086326352635   111.51504118   190.51267160
 H      1   2   3     1.087197850231   109.80408736   310.26318160
 H      1   2   3     1.088668495776   110.25180415    69.73784108
 H      2   1   3     1.093974513366   108.91091922   118.10874492
 H      3   2   1     1.086399846945   110.45884468    61.47869761
 H      3   2   1     1.087777339262   110.20977273   301.34983723
 H      3   2   1     1.085861212378   109.87490836   181.79831315
 H      4   2   1     1.014476516330   109.44629795    57.00949229
 H      5   4   2     1.100399363849   104.04309248   195.43774220
 H      6   5   4     1.088370113781   110.45897612    47.00395731
 H      6   5   4     1.087281283355   109.62862979   166.35343997
 H      6   5   4     1.086528531041   111.48081316   286.10578074
 H      7   5   4     1.086615039549   109.46316901   193.41732451
 H      7   5   4     1.087443956893   111.07200860    73.92668776
 H      7   5   4     1.086427647433   110.11167249   312.96553809

---------------------------
INTERNAL COORDINATES (A.U.)
---------------------------
 C      0   0   0     0.000000000000     0.00000000     0.00000000
 C      1   0   0     2.903476923615     0.00000000     0.00000000
 C      2   1   0     2.893552439552   109.43917731     0.00000000
 N      2   1   3     2.746498605913   115.53825693   239.06708800
 C      4   2   1     2.753702529905   121.84814549   287.84034142
 C      5   4   2     2.906054658620   115.37490843    78.59154629
 C      5   4   2     2.884906002564   111.76757927   311.40808280
 H      1   2   3     2.052859298542   111.51504118   190.51267160
 H      1   2   3     2.054506190325   109.80408736   310.26318160
 H      1   2   3     2.057285307644   110.25180415    69.73784108
 H      2   1   3     2.067312227752   108.91091922   118.10874492
 H      3   2   1     2.052998182660   110.45884468    61.47869761
 H      3   2   1     2.055601265890   110.20977273   301.34983723
 H      3   2   1     2.051980310842   109.87490836   181.79831315
 H      4   2   1     1.917082785158   109.44629795    57.00949229
 H      5   4   2     2.079453435617   104.04309248   195.43774220
 H      6   5   4     2.056721447391   110.45897612    47.00395731
 H      6   5   4     2.054663856078   109.62862979   166.35343997
 H      6   5   4     2.053241360360   111.48081316   286.10578074
 H      7   5   4     2.053404837747   109.46316901   193.41732451
 H      7   5   4     2.054971264516   111.07200860    73.92668776
 H      7   5   4     2.053050717969   110.11167249   312.96553809

---------------------
BASIS SET INFORMATION
---------------------
There are 3 groups of distinct atoms

 Group   1 Type C   : 11s6p1d contracted to 5s3p1d pattern {62111/411/1}
 Group   2 Type N   : 11s6p2d contracted to 5s3p2d pattern {62111/411/11}
 Group   3 Type H   : 4s1p contracted to 2s1p pattern {31/1}

Atom   0C    basis set group =>   1
Atom   1C    basis set group =>   1
Atom   2C    basis set group =>   1
Atom   3N    basis set group =>   2
Atom   4C    basis set group =>   1
Atom   5C    basis set group =>   1
Atom   6C    basis set group =>   1
Atom   7H    basis set group =>   3
Atom   8H    basis set group =>   3
Atom   9H    basis set group =>   3
Atom  10H    basis set group =>   3
Atom  11H    basis set group =>   3
Atom  12H    basis set group =>   3
Atom  13H    basis set group =>   3
Atom  14H    basis set group =>   3
Atom  15H    basis set group =>   3
Atom  16H    basis set group =>   3
Atom  17H    basis set group =>   3
Atom  18H    basis set group =>   3
Atom  19H    basis set group =>   3
Atom  20H    basis set group =>   3
Atom  21H    basis set group =>   3
---------------------------------
AUXILIARY/J BASIS SET INFORMATION
---------------------------------
There are 3 groups of distinct atoms

 Group   1 Type C   : 12s5p4d2f1g contracted to 6s4p3d1f1g pattern {711111/2111/211/2/1}
 Group   2 Type N   : 12s5p4d2f1g contracted to 6s4p3d1f1g pattern {711111/2111/211/2/1}
 Group   3 Type H   : 5s2p1d contracted to 3s1p1d pattern {311/2/1}

Atom   0C    basis set group =>   1
Atom   1C    basis set group =>   1
Atom   2C    basis set group =>   1
Atom   3N    basis set group =>   2
Atom   4C    basis set group =>   1
Atom   5C    basis set group =>   1
Atom   6C    basis set group =>   1
Atom   7H    basis set group =>   3
Atom   8H    basis set group =>   3
Atom   9H    basis set group =>   3
Atom  10H    basis set group =>   3
Atom  11H    basis set group =>   3
Atom  12H    basis set group =>   3
Atom  13H    basis set group =>   3
Atom  14H    basis set group =>   3
Atom  15H    basis set group =>   3
Atom  16H    basis set group =>   3
Atom  17H    basis set group =>   3
Atom  18H    basis set group =>   3
Atom  19H    basis set group =>   3
Atom  20H    basis set group =>   3
Atom  21H    basis set group =>   3

Checking for AutoStart:
The File: sp_gas.gbw exists
Trying to determine its content:
     ... Fine, the file contains calculation information
     ... Fine, the calculation information was read
     ... Fine, the file contains a basis set
     ... Fine, the basis set was read
     ... Fine, the file contains a geometry
     ... Fine, the geometry was read
     ... Fine, the file contains a set of orbitals
     ... Fine, the orbitals can be read
     => possible old guess file was deleted
     => GBW file was renamed to GES file
     => GES file is set as startup file
     => Guess is set to MORead
     ... now leaving AutoStart

------------------------------------------------------------------------------
                             ORCA STARTUP CALCULATIONS
                           -- RI-GTO INTEGRALS CHOSEN --
------------------------------------------------------------------------------
------------------------------------------------------------------------------
                   ___                                                        
                  /   \      - P O W E R E D   B Y -                         
                 /     \                                                     
                 |  |  |   _    _      __       _____    __    __             
                 |  |  |  | |  | |    /  \     |  _  \  |  |  /  |          
                  \  \/   | |  | |   /    \    | | | |  |  | /  /          
                 / \  \   | |__| |  /  /\  \   | |_| |  |  |/  /          
                |  |  |   |  __  | /  /__\  \  |    /   |      \           
                |  |  |   | |  | | |   __   |  |    \   |  |\   \          
                \     /   | |  | | |  |  |  |  | |\  \  |  | \   \       
                 \___/    |_|  |_| |__|  |__|  |_| \__\ |__|  \__/        
                                                                              
                      - O R C A' S   B I G   F R I E N D -                    
                                      &                                       
                       - I N T E G R A L  F E E D E R -                       
                                                                              
 v1 FN, 2020, v2 2021, v3 2022-2024                                           
------------------------------------------------------------------------------


----------------------
SHARK INTEGRAL PACKAGE
----------------------

Number of atoms                             ...     22
Number of basis functions                   ...    213
Number of shells                            ...    109
Maximum angular momentum                    ...      2
Integral batch strategy                     ... SHARK/LIBINT Hybrid
RI-J (if used) integral strategy            ... SPLIT-RIJ (Revised 2003 algorithm where possible)
Printlevel                                  ...      1
Contraction scheme used                     ... SEGMENTED contraction
Prescreening option                         ... SCHWARTZ
   Thresh                                   ... 1.000e-10
   Tcut                                     ... 1.000e-11
   Tpresel                                  ... 1.000e-11 
Coulomb Range Separation                    ... NOT USED
Exchange Range Separation                   ... NOT USED
Multipole approximations                    ... NOT USED
Finite Nucleus Model                        ... NOT USED
CABS basis                                  ... NOT available
Auxiliary Coulomb fitting basis             ... AVAILABLE
   # of basis functions in Aux-J            ...    508
   # of shells in Aux-J                     ...    180
   Maximum angular momentum in Aux-J        ...      4
Auxiliary J/K fitting basis                 ... NOT available
Auxiliary Correlation fitting basis         ... NOT available
Auxiliary 'external' fitting basis          ... NOT available

Checking pre-screening integrals            ... done (  0.0 sec) Dimension = 109
Check shell pair data                       ... done (  0.0 sec)
Shell pair information
Shell pair cut-off parameter TPreSel        ...   1.0e-11
Total number of shell pairs                 ...      5995
Shell pairs after pre-screening             ...      5505
Total number of primitive shell pairs       ...     20702
Primitive shell pairs kept                  ...     13730
          la=0 lb=0:   1965 shell pairs
          la=1 lb=0:   2139 shell pairs
          la=1 lb=1:    605 shell pairs
          la=2 lb=0:    489 shell pairs
          la=2 lb=1:    271 shell pairs
          la=2 lb=2:     36 shell pairs

Calculating one electron integrals          ... done (  0.0 sec)
Calculating RI/J V-Matrix + Cholesky decomp.... done (  0.1 sec)
Calculating Nuclear repulsion               ... done (  0.0 sec) ENN=    339.685959958677 Eh

Diagonalization of the overlap matrix:
Smallest eigenvalue                        ... 1.557e-04
Time for diagonalization                   ...    0.010 sec
Threshold for overlap eigenvalues          ... 1.000e-07
Number of eigenvalues below threshold      ... 0
Time for construction of square roots      ...    0.018 sec
Total time needed                          ...    0.041 sec

-------------------
DFT GRID GENERATION
-------------------

General Integration Accuracy     IntAcc      ... 4.388
Radial Grid Type                 RadialGrid  ... OptM3 with GC (2021)
Angular Grid (max. ang.)         AngularGrid ... 4 (Lebedev-302)
Angular grid pruning method      GridPruning ... 4 (adaptive)
Weight generation scheme         WeightScheme... mBecke (2022)
Basis function cutoff            BFCut       ... 1.0000e-10
Integration weight cutoff        WCut        ... 1.0000e-14
Partially contracted basis set               ... off
Rotationally invariant grid construction     ... off
Angular grids for H and He will be reduced by one unit

Total number of grid points                  ...    89761
Total number of batches                      ...     1415
Average number of points per batch           ...       63
Average number of grid points per atom       ...     4080
Initializing property integral containers    ... done (  0.0 sec)

SHARK setup successfully completed in   1.3 seconds

Maximum memory used throughout the entire STARTUP-calculation: 38.6 MB
-------------------------------------------------------------------------------
                                 ORCA GUESS
                   Start orbitals & Density for SCF / CASSCF
-------------------------------------------------------------------------------

------------
SCF SETTINGS
------------
Hamiltonian:
 Density Functional     Method          .... DFT(GTOs)
  Functional kind                       .... Exchange
  Functional name                       .... Re-regularized SCAN exchange by Furness et al
  Functional family                     .... MGGA
  Functional refs                              
    [ 0] J. W. Furness, A. D. Kaplan, J. Ning, J. P. Perdew, and J. Sun.,  J. Phys. Chem. Lett. 11, 8208-8215 (2020), doi: 10.1021/acs.jpclett.0c02405
    [ 1] J. W. Furness, A. D. Kaplan, J. Ning, J. P. Perdew, and J. Sun.,  J. Phys. Chem. Lett. 11, 9248-9248 (2020), doi: 10.1021/acs.jpclett.0c03077
  Functional external parameters        .... 6
    Parameter  0 _c1        =  6.670000e-01 : c1 parameter        
    Parameter  1 _c2        =  8.000000e-01 : c2 parameter        
    Parameter  2 _d         =  1.240000e+00 : d parameter         
    Parameter  3 _k1        =  6.500000e-02 : k1 parameter        
    Parameter  4 _eta       =  1.000000e-03 : eta parameter       
    Parameter  5 _dp2       =  3.610000e-01 : dp2 parameter       
  Functional kind                       .... Correlation
  Functional name                       .... Re-regularized SCAN correlation by Furness et al
  Functional family                     .... MGGA
  Functional refs                              
    [ 0] J. W. Furness, A. D. Kaplan, J. Ning, J. P. Perdew, and J. Sun.,  J. Phys. Chem. Lett. 11, 8208-8215 (2020), doi: 10.1021/acs.jpclett.0c02405
    [ 1] J. W. Furness, A. D. Kaplan, J. Ning, J. P. Perdew, and J. Sun.,  J. Phys. Chem. Lett. 11, 9248-9248 (2020), doi: 10.1021/acs.jpclett.0c03077
  Functional external parameters        .... 1
    Parameter  0 _eta       =  1.000000e-03 : Regularization parameter
 Gradients option       PostSCFGGA      .... off
 RI-approximation to the Coulomb term is turned on
   Number of AuxJ basis functions       .... 508


General Settings:
 Integral files         IntName         .... sp_gas
 Hartree-Fock type      HFTyp           .... RHF
 Total Charge           Charge          ....    0
 Multiplicity           Mult            ....    1
 Number of Electrons    NEL             ....   58
 Basis Dimension        Dim             ....  213
 Nuclear Repulsion      ENuc            ....    339.6859599587 Eh

Convergence Acceleration:
 AO-DIIS                CNVDIIS         .... on
   Start iteration      DIISMaxIt       ....    12
   Startup error        DIISStart       ....  0.200000
   # of expansion vecs  DIISMaxEq       ....     5
   Bias factor          DIISBfac        ....   1.050
   Max. coefficient     DIISMaxC        ....  10.000
 MO-DIIS                CNVKDIIS        .... off
 Trust-Rad. Augm. Hess. CNVTRAH         .... auto
   Auto Start mean grad. ratio tolernc. ....  1.125000
   Auto Start start iteration           ....     1
   Auto Start num. interpolation iter.  ....    10
   Max. Number of Micro iterations      ....    24
   Max. Number of Macro iterations      .... Maxiter - #DIIS iter
   Number of Davidson start vectors     ....     2
   Converg. threshold    (grad. norm)   ....   3.330e-04
   Grad. Scal. Fac. for Micro threshold ....   0.100
   Minimum threshold for Micro iter.    ....   1.000e-02
   NR start threshold (gradient norm)   ....   1.000e-04
   Initial trust radius                 ....   0.400
   Minimum AH scaling param. (alpha)    ....   1.000
   Maximum AH scaling param. (alpha)    .... 1000.000
   Quad. conv. algorithm                .... NR
   White noise on init. David. guess    .... on
   Maximum white noise                  ....   0.010
   Pseudo random numbers                .... off
   Inactive MOs                         .... canonical
   Orbital update algorithm             .... Taylor
   Preconditioner                       .... Diag
   Full preconditioner red. dimension   ....   250
   COSX micro iterations for RIJONX calc.... off
 SOSCF                  CNVSOSCF        .... on
   Start iteration      SOSCFMaxIt      ....   150
   Startup grad/error   SOSCFStart      ....  0.003300
   Hessian update       SOSCFHessUp     .... L-BFGS
 Level Shifting         CNVShift        .... on
   Level shift para.    LevelShift      ....    0.2500
   Turn off err/grad.   ShiftErr        ....    0.0010
 Zerner damping         CNVZerner       .... off
 Static damping         CNVDamp         .... on
   Fraction old density DampFac         ....    0.7000
   Max. Damping (<1)    DampMax         ....    0.9800
   Min. Damping (>=0)   DampMin         ....    0.0000
   Turn off err/grad.   DampErr         ....    0.1000

SCF Procedure:
 Maximum # iterations   MaxIter         ....   125
 SCF integral mode      SCFMode         .... Direct
   Integral package                     .... SHARK and LIBINT hybrid scheme
 Reset frequency        DirectResetFreq ....    20
 Integral Threshold     Thresh          ....  1.000e-10 Eh
 Primitive CutOff       TCut            ....  1.000e-11 Eh

Convergence Tolerance:
 Convergence Check Mode ConvCheckMode   .... Total+1el-Energy
 Convergence forced     ConvForced      .... 0
 Energy Change          TolE            ....  1.000e-06 Eh
 1-El. energy change                    ....  1.000e-03 Eh
 Orbital Gradient       TolG            ....  3.330e-04
 Orbital Rotation angle TolX            ....  3.330e-04
 DIIS Error             TolErr          ....  1.000e-06

---------------------
INITIAL GUESS: MOREAD
---------------------
Guess MOs are being read from file: sp_gas.ges
Input Geometry matches current geometry (good)
Atom 0: N(Shells)= 9 and 6 - projection required
Input basis set needs projection
NBasis(read)= 128
NBasis(calc)= 213
Basis set overlap was calculated
Using GuessMode=FMatrix for the initial guess
C*T matrix was formed
Effective Fockian was calculated
Effective Fockian was diagonalized
Initial density was built
                      ------------------
                      INITIAL GUESS DONE (   0.1 sec)
                      ------------------
             **** ENERGY FILE WAS UPDATED (sp_gas.en.tmp) ****
Finished Guess after   0.4 sec
Maximum memory used throughout the entire GUESS-calculation: 14.8 MB

-------------------------------------------------------------------------------------------
                                      ORCA LEAN-SCF
                              memory conserving SCF solver
-------------------------------------------------------------------------------------------

----------------------------------------D-I-I-S--------------------------------------------
Iteration    Energy (Eh)           Delta-E    RMSDP     MaxDP     DIISErr   Damp  Time(sec)
-------------------------------------------------------------------------------------------
               ***  Starting incremental Fock matrix formation  ***
    1    -292.1589159714550306     0.00e+00  4.11e-03  1.49e-01  4.32e-01  0.700   2.6
    2    -292.2074322718447092    -4.85e-02  3.31e-03  9.10e-02  3.04e-01  0.700   2.8
    3    -292.2418071883677158    -3.44e-02  2.43e-03  5.85e-02  2.13e-01  0.700   2.3
                               ***Turning on AO-DIIS***
    4    -292.2659483695438212    -2.41e-02  1.76e-03  4.13e-02  1.49e-01  0.700   2.3
    5    -292.2828852787000642    -1.69e-02  1.25e-03  2.91e-02  1.04e-01  0.700   2.3
    6    -292.2947636926506902    -1.19e-02  8.87e-04  2.05e-02  7.29e-02  0.700   2.3
    7    -292.3030906953949852    -8.33e-03  2.08e-03  4.79e-02  5.11e-02  0.000   2.4
                              *** Initializing SOSCF ***
---------------------------------------S-O-S-C-F--------------------------------------
Iteration    Energy (Eh)           Delta-E    RMSDP     MaxDP     MaxGrad    Time(sec)
--------------------------------------------------------------------------------------
    8    -292.3225594180908047    -1.95e-02  1.82e-05  6.16e-04  2.61e-04     2.4
               *** Restarting incremental Fock matrix formation ***
    9    -292.3225595874868077    -1.69e-07  1.09e-05  2.69e-04  4.63e-05     2.6
                  *** Gradient check signals convergence ***

               *****************************************************
               *                     SUCCESS                       *
               *           SCF CONVERGED AFTER   9 CYCLES          *
               *****************************************************

             **** ENERGY FILE WAS UPDATED (sp_gas.en.tmp) ****

----------------
TOTAL SCF ENERGY
----------------

Total Energy       :       -292.32255958748681 Eh           -7954.50125 eV

Components:
Nuclear Repulsion  :        339.68595995867679 Eh            9243.32489 eV
Electronic Energy  :       -632.00851954616360 Eh          -17197.82614 eV
One Electron Energy:      -1066.19513277972851 Eh          -29012.64454 eV
Two Electron Energy:        434.18661323356491 Eh           11814.81840 eV

Virial components:
Potential Energy   :       -583.29990679162665 Eh          -15872.39740 eV
Kinetic Energy     :        290.97734720413979 Eh            7917.89616 eV
Virial Ratio       :          2.00462308284914

DFT components:
N(Alpha)           :       29.000002632353 electrons
N(Beta)            :       29.000002632353 electrons
N(Total)           :       58.000005264705 electrons
E(X)               :      -43.224530549582 Eh       
E(C)               :       -1.798628953072 Eh       
E(XC)              :      -45.023159502654 Eh       

---------------
SCF CONVERGENCE
---------------

  Last Energy change         ...    1.6940e-07  Tolerance :   1.0000e-06
  Last MAX-Density change    ...    2.6902e-04  Tolerance :   1.0000e-05
  Last RMS-Density change    ...    1.0920e-05  Tolerance :   1.0000e-06
  Last DIIS Error            ...    2.6083e-04  Tolerance :   1.0000e-06
  Last Orbital Gradient      ...    4.6345e-05  Tolerance :   3.3300e-04
  Last Orbital Rotation      ...    7.2504e-05  Tolerance :   3.3300e-04


----------------
ORBITAL ENERGIES
----------------

  NO   OCC          E(Eh)            E(eV) 
   0   2.0000     -14.130295      -384.5049 
   1   2.0000     -10.056340      -273.6469 
   2   2.0000     -10.054045      -273.5845 
   3   2.0000     -10.015332      -272.5310 
   4   2.0000     -10.012271      -272.4477 
   5   2.0000     -10.011892      -272.4374 
   6   2.0000     -10.009699      -272.3777 
   7   2.0000      -0.867800       -23.6140 
   8   2.0000      -0.749650       -20.3990 
   9   2.0000      -0.695912       -18.9367 
  10   2.0000      -0.652229       -17.7480 
  11   2.0000      -0.645334       -17.5604 
  12   2.0000      -0.565052       -15.3759 
  13   2.0000      -0.524359       -14.2685 
  14   2.0000      -0.454072       -12.3559 
  15   2.0000      -0.428648       -11.6641 
  16   2.0000      -0.411482       -11.1970 
  17   2.0000      -0.396281       -10.7834 
  18   2.0000      -0.379642       -10.3306 
  19   2.0000      -0.366155        -9.9636 
  20   2.0000      -0.355808        -9.6820 
  21   2.0000      -0.352450        -9.5907 
  22   2.0000      -0.345326        -9.3968 
  23   2.0000      -0.327921        -8.9232 
  24   2.0000      -0.315668        -8.5898 
  25   2.0000      -0.304110        -8.2752 
  26   2.0000      -0.294895        -8.0245 
  27   2.0000      -0.286316        -7.7910 
  28   2.0000      -0.177659        -4.8343 
  29   0.0000       0.073791         2.0080 
  30   0.0000       0.100342         2.7304 
  31   0.0000       0.119080         3.2403 
  32   0.0000       0.120977         3.2920 
  33   0.0000       0.132906         3.6166 
  34   0.0000       0.134087         3.6487 
  35   0.0000       0.144316         3.9270 
  36   0.0000       0.148392         4.0379 
  37   0.0000       0.149205         4.0601 
  38   0.0000       0.157587         4.2882 
  39   0.0000       0.163512         4.4494 
*Only the first 10 virtual orbitals were printed.

                    ********************************
                    * MULLIKEN POPULATION ANALYSIS *
                    ********************************

-----------------------
MULLIKEN ATOMIC CHARGES
-----------------------
   0 C :   -0.436673
   1 C :   -0.116759
   2 C :   -0.470070
   3 N :   -0.227106
   4 C :   -0.065571
   5 C :   -0.455005
   6 C :   -0.498002
   7 H :    0.138084
   8 H :    0.141993
   9 H :    0.146788
  10 H :    0.148719
  11 H :    0.141083
  12 H :    0.138401
  13 H :    0.162436
  14 H :    0.212399
  15 H :    0.155696
  16 H :    0.138570
  17 H :    0.142869
  18 H :    0.140704
  19 H :    0.146772
  20 H :    0.151786
  21 H :    0.162885
Sum of atomic charges:   -0.0000000

--------------------------------
MULLIKEN REDUCED ORBITAL CHARGES
--------------------------------
  0 C s       :     3.301104  s :     3.301104
      pz      :     0.956654  p :     3.109417
      px      :     1.075222
      py      :     1.077541
      dz2     :     0.006991  d :     0.026152
      dxz     :     0.006006
      dyz     :     0.004704
      dx2y2   :     0.004098
      dxy     :     0.004354

  1 C s       :     3.203126  s :     3.203126
      pz      :     0.924890  p :     2.854331
      px      :     0.891834
      py      :     1.037607
      dz2     :     0.014659  d :     0.059302
      dxz     :     0.015169
      dyz     :     0.007899
      dx2y2   :     0.010016
      dxy     :     0.011559

  2 C s       :     3.327038  s :     3.327038
      pz      :     1.069267  p :     3.116559
      px      :     0.983925
      py      :     1.063367
      dz2     :     0.008277  d :     0.026473
      dxz     :     0.004850
      dyz     :     0.001724
      dx2y2   :     0.004631
      dxy     :     0.006990

  3 N s       :     3.423591  s :     3.423591
      pz      :     1.711644  p :     3.757042
      px      :     0.952585
      py      :     1.092814
      dz2     :     0.001849  d :     0.046473
      dxz     :     0.019728
      dyz     :     0.008283
      dx2y2   :     0.007471
      dxy     :     0.009142

  4 C s       :     3.151903  s :     3.151903
      pz      :     0.978543  p :     2.854100
      px      :     0.897043
      py      :     0.978514
      dz2     :     0.011934  d :     0.059568
      dxz     :     0.015556
      dyz     :     0.009218
      dx2y2   :     0.013001
      dxy     :     0.009860

  5 C s       :     3.305050  s :     3.305050
      pz      :     0.968345  p :     3.123820
      px      :     1.076090
      py      :     1.079384
      dz2     :     0.006972  d :     0.026136
      dxz     :     0.003899
      dyz     :     0.006559
      dx2y2   :     0.006707
      dxy     :     0.001998

  6 C s       :     3.329179  s :     3.329179
      pz      :     1.092682  p :     3.142351
      px      :     1.100340
      py      :     0.949328
      dz2     :     0.005754  d :     0.026472
      dxz     :     0.002378
      dyz     :     0.006672
      dx2y2   :     0.007671
      dxy     :     0.003997

  7 H s       :     0.843266  s :     0.843266
      pz      :     0.006121  p :     0.018651
      px      :     0.007577
      py      :     0.004952

  8 H s       :     0.839539  s :     0.839539
      pz      :     0.003963  p :     0.018468
      px      :     0.009081
      py      :     0.005424

  9 H s       :     0.834978  s :     0.834978
      pz      :     0.004334  p :     0.018234
      px      :     0.003817
      py      :     0.010083

 10 H s       :     0.833627  s :     0.833627
      pz      :     0.003799  p :     0.017654
      px      :     0.003558
      py      :     0.010297

 11 H s       :     0.840612  s :     0.840612
      pz      :     0.003813  p :     0.018305
      px      :     0.007983
      py      :     0.006509

 12 H s       :     0.843258  s :     0.843258
      pz      :     0.004089  p :     0.018341
      px      :     0.004436
      py      :     0.009817

 13 H s       :     0.819346  s :     0.819346
      pz      :     0.010688  p :     0.018218
      px      :     0.003911
      py      :     0.003619

 14 H s       :     0.755892  s :     0.755892
      pz      :     0.010637  p :     0.031709
      px      :     0.004909
      py      :     0.016162

 15 H s       :     0.827404  s :     0.827404
      pz      :     0.006229  p :     0.016900
      px      :     0.004946
      py      :     0.005725

 16 H s       :     0.843092  s :     0.843092
      pz      :     0.004157  p :     0.018338
      px      :     0.004351
      py      :     0.009831

 17 H s       :     0.838770  s :     0.838770
      pz      :     0.003716  p :     0.018361
      px      :     0.010901
      py      :     0.003745

 18 H s       :     0.840731  s :     0.840731
      pz      :     0.007056  p :     0.018565
      px      :     0.004908
      py      :     0.006600

 19 H s       :     0.834894  s :     0.834894
      pz      :     0.003757  p :     0.018334
      px      :     0.010827
      py      :     0.003750

 20 H s       :     0.829874  s :     0.829874
      pz      :     0.006804  p :     0.018340
      px      :     0.005019
      py      :     0.006517

 21 H s       :     0.818920  s :     0.818920
      pz      :     0.009823  p :     0.018195
      px      :     0.004399
      py      :     0.003973


------------------------
MULLIKEN OVERLAP CHARGES
------------------------
B(  0-C ,  1-C ) :   0.1795 B(  0-C ,  2-C ) :  -0.2409 B(  0-C ,  3-N ) :  -0.1561 
B(  0-C ,  4-C ) :   0.0855 B(  0-C ,  7-H ) :   0.7892 B(  0-C ,  8-H ) :   0.7866 
B(  0-C ,  9-H ) :   0.8377 B(  0-C , 10-H ) :  -0.1228 B(  1-C ,  2-C ) :   0.6190 
B(  1-C ,  3-N ) :   0.3350 B(  1-C ,  4-C ) :  -0.2186 B(  1-C ,  8-H ) :  -0.0771 
B(  1-C ,  9-H ) :  -0.0730 B(  1-C , 10-H ) :   0.8947 B(  1-C , 11-H ) :  -0.1209 
B(  1-C , 13-H ) :  -0.0810 B(  1-C , 14-H ) :  -0.0809 B(  2-C ,  3-N ) :  -0.2100 
B(  2-C , 11-H ) :   0.8329 B(  2-C , 12-H ) :   0.8382 B(  2-C , 13-H ) :   0.8177 
B(  3-N ,  4-C ) :   0.4711 B(  3-N ,  5-C ) :  -0.1364 B(  3-N ,  6-C ) :  -0.2032 
B(  3-N , 10-H ) :  -0.1120 B(  3-N , 14-H ) :   0.6952 B(  3-N , 15-H ) :  -0.1830 
B(  4-C ,  5-C ) :   0.5437 B(  4-C ,  6-C ) :   0.4132 B(  4-C , 10-H ) :  -0.0576 
B(  4-C , 14-H ) :  -0.0839 B(  4-C , 15-H ) :   0.9024 B(  4-C , 16-H ) :  -0.0790 
B(  4-C , 17-H ) :  -0.0858 B(  4-C , 18-H ) :  -0.0602 B(  4-C , 19-H ) :  -0.0745 
B(  4-C , 20-H ) :  -0.0792 B(  4-C , 21-H ) :  -0.0708 B(  5-C ,  6-C ) :  -0.3302 
B(  5-C , 15-H ) :  -0.1265 B(  5-C , 16-H ) :   0.8037 B(  5-C , 17-H ) :   0.7850 
B(  5-C , 18-H ) :   0.8247 B(  6-C , 19-H ) :   0.7887 B(  6-C , 20-H ) :   0.8552 
B(  6-C , 21-H ) :   0.7886 


                     *******************************
                     * LOEWDIN POPULATION ANALYSIS *
                     *******************************

----------------------
LOEWDIN ATOMIC CHARGES
----------------------
   0 C :   -0.406006
   1 C :   -0.018248
   2 C :   -0.385357
   3 N :   -0.830626
   4 C :   -0.019692
   5 C :   -0.407502
   6 C :   -0.389182
   7 H :    0.150335
   8 H :    0.153361
   9 H :    0.154198
  10 H :    0.178750
  11 H :    0.151099
  12 H :    0.152320
  13 H :    0.162398
  14 H :    0.249255
  15 H :    0.177029
  16 H :    0.152231
  17 H :    0.153108
  18 H :    0.151139
  19 H :    0.156693
  20 H :    0.152476
  21 H :    0.162220

-------------------------------
LOEWDIN REDUCED ORBITAL CHARGES
-------------------------------
  0 C s       :     2.978240  s :     2.978240
      pz      :     1.074105  p :     3.365831
      px      :     1.140691
      py      :     1.151035
      dz2     :     0.016446  d :     0.061935
      dxz     :     0.013307
      dyz     :     0.010284
      dx2y2   :     0.010680
      dxy     :     0.011217

  1 C s       :     2.828366  s :     2.828366
      pz      :     1.030143  p :     3.062915
      px      :     0.988855
      py      :     1.043917
      dz2     :     0.031778  d :     0.126967
      dxz     :     0.032897
      dyz     :     0.014331
      dx2y2   :     0.023629
      dxy     :     0.024332

  2 C s       :     2.971903  s :     2.971903
      pz      :     1.131898  p :     3.351432
      px      :     1.076366
      py      :     1.143168
      dz2     :     0.019896  d :     0.062022
      dxz     :     0.010723
      dyz     :     0.003990
      dx2y2   :     0.010372
      dxy     :     0.017041

  3 N s       :     3.180112  s :     3.180112
      pz      :     1.697182  p :     4.097073
      px      :     1.182737
      py      :     1.217154
      dz2     :     0.078939  d :     0.553441
      dxz     :     0.113592
      dyz     :     0.040986
      dx2y2   :     0.183482
      dxy     :     0.136442

  4 C s       :     2.828824  s :     2.828824
      pz      :     1.044061  p :     3.063762
      px      :     0.974241
      py      :     1.045460
      dz2     :     0.025723  d :     0.127106
      dxz     :     0.034576
      dyz     :     0.017215
      dx2y2   :     0.028273
      dxy     :     0.021319

  5 C s       :     2.979030  s :     2.979030
      pz      :     1.082157  p :     3.366614
      px      :     1.138531
      py      :     1.145926
      dz2     :     0.016205  d :     0.061858
      dxz     :     0.008208
      dyz     :     0.015208
      dx2y2   :     0.016995
      dxy     :     0.005241

  6 C s       :     2.966469  s :     2.966469
      pz      :     1.149810  p :     3.360801
      px      :     1.142771
      py      :     1.068220
      dz2     :     0.013858  d :     0.061913
      dxz     :     0.006063
      dyz     :     0.015312
      dx2y2   :     0.018385
      dxy     :     0.008295

  7 H s       :     0.805220  s :     0.805220
      pz      :     0.014772  p :     0.044446
      px      :     0.018324
      py      :     0.011349

  8 H s       :     0.802433  s :     0.802433
      pz      :     0.009262  p :     0.044206
      px      :     0.022290
      py      :     0.012654

  9 H s       :     0.802517  s :     0.802517
      pz      :     0.009912  p :     0.043285
      px      :     0.008281
      py      :     0.025092

 10 H s       :     0.780632  s :     0.780632
      pz      :     0.009182  p :     0.040617
      px      :     0.008709
      py      :     0.022727

 11 H s       :     0.805088  s :     0.805088
      pz      :     0.008645  p :     0.043813
      px      :     0.019535
      py      :     0.015633

 12 H s       :     0.804400  s :     0.804400
      pz      :     0.009315  p :     0.043280
      px      :     0.009797
      py      :     0.024168

 13 H s       :     0.794092  s :     0.794092
      pz      :     0.026910  p :     0.043509
      px      :     0.008680
      py      :     0.007919

 14 H s       :     0.665224  s :     0.665224
      pz      :     0.028659  p :     0.085520
      px      :     0.012965
      py      :     0.043896

 15 H s       :     0.783826  s :     0.783826
      pz      :     0.015068  p :     0.039146
      px      :     0.010362
      py      :     0.013715

 16 H s       :     0.804584  s :     0.804584
      pz      :     0.009311  p :     0.043185
      px      :     0.009711
      py      :     0.024162

 17 H s       :     0.802703  s :     0.802703
      pz      :     0.008756  p :     0.044190
      px      :     0.027293
      py      :     0.008140

 18 H s       :     0.804312  s :     0.804312
      pz      :     0.017355  p :     0.044549
      px      :     0.011275
      py      :     0.015919

 19 H s       :     0.799538  s :     0.799538
      pz      :     0.008224  p :     0.043769
      px      :     0.026923
      py      :     0.008622

 20 H s       :     0.803566  s :     0.803566
      pz      :     0.016584  p :     0.043957
      px      :     0.011749
      py      :     0.015625

 21 H s       :     0.794222  s :     0.794222
      pz      :     0.024699  p :     0.043558
      px      :     0.009978
      py      :     0.008882


---------------------------------
LOEWDIN BOND ORDERS (THRESH 0.050000)
---------------------------------
B(  0-C ,  1-C ) :   1.0413 B(  0-C ,  2-C ) :   0.0740 B(  0-C ,  3-N ) :   0.1492 
B(  0-C ,  7-H ) :   0.9226 B(  0-C ,  8-H ) :   0.9182 B(  0-C ,  9-H ) :   0.9222 
B(  1-C ,  2-C ) :   1.0379 B(  1-C ,  3-N ) :   1.3413 B(  1-C ,  4-C ) :   0.0608 
B(  1-C , 10-H ) :   0.7930 B(  2-C ,  3-N ) :   0.1802 B(  2-C , 11-H ) :   0.9220 
B(  2-C , 12-H ) :   0.9191 B(  2-C , 13-H ) :   0.9187 B(  3-N ,  4-C ) :   1.3443 
B(  3-N ,  5-C ) :   0.1494 B(  3-N ,  6-C ) :   0.1457 B(  3-N , 10-H ) :   0.0943 
B(  3-N , 14-H ) :   0.8948 B(  3-N , 15-H ) :   0.1034 B(  4-C ,  5-C ) :   1.0436 
B(  4-C ,  6-C ) :   1.0461 B(  4-C , 15-H ) :   0.7948 B(  5-C ,  6-C ) :   0.0713 
B(  5-C , 16-H ) :   0.9234 B(  5-C , 17-H ) :   0.9205 B(  5-C , 18-H ) :   0.9215 
B(  6-C , 19-H ) :   0.9182 B(  6-C , 20-H ) :   0.9201 B(  6-C , 21-H ) :   0.9173 


------------------------------------------
LOEWDIN REDUCED ORBITAL POPULATIONS PER MO
-------------------------------------------
THRESHOLD FOR PRINTING IS 0.1%%
                      0         1         2         3         4         5   
                 -14.13029 -10.05634 -10.05404 -10.01533 -10.01227 -10.01189
                   2.00000   2.00000   2.00000   2.00000   2.00000   2.00000
                  --------  --------  --------  --------  --------  --------
 0 C  s               0.0       0.0       0.0       0.0       0.0      99.7
 1 C  s               0.0       0.0      99.4       0.0       0.0       0.0
 3 N  s              99.8       0.0       0.0       0.0       0.0       0.0
 3 N  dx2y2           0.0       0.2       0.0       0.0       0.0       0.0
 3 N  dxy             0.0       0.0       0.2       0.0       0.0       0.0
 4 C  s               0.0      99.4       0.0       0.0       0.0       0.0
 5 C  s               0.0       0.0       0.0       0.0      99.7       0.0
 6 C  s               0.0       0.0       0.0      99.7       0.0       0.0

                      6         7         8         9        10        11   
                 -10.00970  -0.86780  -0.74965  -0.69591  -0.65223  -0.64533
                   2.00000   2.00000   2.00000   2.00000   2.00000   2.00000
                  --------  --------  --------  --------  --------  --------
 0 C  s               0.0       1.8       7.1      10.5       4.7      17.5
 0 C  pz              0.0       1.4       1.4       0.2       0.2       0.8
 0 C  px              0.0       0.3       0.0       0.0       0.0       0.1
 1 C  s               0.0      11.8      12.3       3.2       0.0       0.0
 1 C  pz              0.0       0.2       0.1       1.4       2.8       9.9
 1 C  px              0.1       2.6       2.2       4.9       0.0       2.3
 1 C  py              0.0       2.0       0.1       1.3       0.0       0.4
 1 C  dz2             0.0       0.0       0.0       0.1       0.0       0.1
 1 C  dxz             0.0       0.0       0.0       0.0       0.0       0.2
 1 C  dxy             0.0       0.2       0.0       0.2       0.0       0.0
 2 C  s              99.7       1.8       8.9       6.5       2.6      20.4
 2 C  pz              0.0       0.3       0.6       0.4       0.1       0.6
 2 C  px              0.0       1.4       0.9       0.0       0.0       0.2
 2 C  py              0.0       0.0       0.1       0.2       0.0       0.0
 3 N  s               0.0      38.1       0.0      11.4       0.0       0.0
 3 N  pz              0.0       1.2       0.0       0.2       0.5       0.2
 3 N  px              0.0       0.0       9.7       0.0       0.0       0.1
 3 N  py              0.0       0.3       0.2       1.7       0.6       0.1
 3 N  dz2             0.0       0.4       0.0       0.1       0.4       0.1
 3 N  dxz             0.0       0.0       0.7       0.0       0.0       0.5
 3 N  dx2y2           0.0       0.4       0.1       0.5       0.0       0.3
 3 N  dxy             0.0       0.1       1.3       0.0       0.2       0.0
 4 C  s               0.0      11.5      13.6       2.2       0.0       0.0
 4 C  pz              0.0       0.1       0.3       1.4       6.3       1.2
 4 C  px              0.0       4.6       0.9       5.4       0.0       0.3
 4 C  py              0.0       0.1       0.2       2.8       7.1       1.0
 4 C  dz2             0.0       0.1       0.0       0.1       0.2       0.1
 4 C  dx2y2           0.0       0.1       0.0       0.2       0.1       0.0
 5 C  s               0.0       1.8       8.1       7.4      18.7       5.5
 5 C  pz              0.0       1.2       1.4       0.1       0.4       0.1
 5 C  px              0.0       0.4       0.0       0.0       0.0       0.1
 5 C  py              0.0       0.0       0.1       0.3       0.4       0.1
 6 C  s               0.0       1.9       8.3      10.1      18.7       2.1
 6 C  pz              0.0       0.0       0.1       0.2       0.3       0.1
 6 C  px              0.0       0.4       0.0       0.0       0.0       0.0
 6 C  py              0.0       1.3       1.4       0.1       0.5       0.1
 7 H  s               0.0       0.1       0.9       2.0       1.3       4.6
 7 H  pz              0.0       0.0       0.0       0.1       0.0       0.1
 7 H  px              0.0       0.0       0.0       0.1       0.1       0.2
 8 H  s               0.0       0.2       1.1       2.2       1.0       4.0
 8 H  px              0.0       0.0       0.1       0.1       0.1       0.3
 9 H  s               0.0       0.2       1.0       1.8       1.1       4.1
 9 H  py              0.0       0.0       0.1       0.1       0.1       0.3
10 H  s               0.0       1.1       1.6       0.9       0.1       0.0
10 H  py              0.0       0.1       0.1       0.0       0.0       0.0
11 H  s               0.0       0.2       1.3       1.4       0.6       4.7
11 H  px              0.0       0.0       0.1       0.1       0.0       0.2
11 H  py              0.0       0.0       0.0       0.0       0.0       0.2
12 H  s               0.0       0.2       1.3       1.1       0.5       4.7
12 H  py              0.0       0.0       0.1       0.1       0.0       0.3
13 H  s               0.0       0.2       1.2       1.0       0.7       5.1
13 H  pz              0.0       0.0       0.1       0.1       0.1       0.4
14 H  s               0.0       6.4       0.0       3.5       0.1       0.0
14 H  py              0.0       0.8       0.0       0.5       0.0       0.0
15 H  s               0.0       1.0       2.3       0.3       0.0       0.0
16 H  s               0.0       0.2       1.1       1.2       4.9       1.4
16 H  py              0.0       0.0       0.1       0.1       0.4       0.1
17 H  s               0.0       0.2       1.2       1.6       4.2       1.4
17 H  px              0.0       0.0       0.1       0.1       0.4       0.1
18 H  s               0.0       0.1       1.1       1.6       4.3       1.1
18 H  pz              0.0       0.0       0.0       0.1       0.1       0.0
18 H  py              0.0       0.0       0.0       0.0       0.2       0.0
19 H  s               0.0       0.2       1.3       2.1       4.3       0.4
19 H  px              0.0       0.0       0.1       0.2       0.4       0.0
20 H  s               0.0       0.2       1.1       2.0       4.2       0.5
20 H  pz              0.0       0.0       0.0       0.1       0.2       0.0
20 H  py              0.0       0.0       0.0       0.1       0.1       0.0
21 H  s               0.0       0.2       1.1       1.7       4.8       0.6
21 H  pz              0.0       0.0       0.1       0.1       0.3       0.0

                     12        13        14        15        16        17   
                  -0.56505  -0.52436  -0.45407  -0.42865  -0.41148  -0.39628
                   2.00000   2.00000   2.00000   2.00000   2.00000   2.00000
                  --------  --------  --------  --------  --------  --------
 0 C  s               3.8       0.9       0.1       0.0       0.6       0.1
 0 C  pz              2.3       2.5       3.8       0.9       9.5       4.2
 0 C  px              1.2       0.1       0.9       1.4       0.0       1.6
 0 C  py              0.1       1.4       0.9       5.7       0.0      10.1
 0 C  dz2             0.1       0.1       0.1       0.0       0.1       0.0
 1 C  s               6.6       5.0       1.8       0.1       0.2       0.2
 1 C  pz              0.9       0.2       0.1       0.1       6.5       1.6
 1 C  px              4.1       0.2       3.2       3.0       3.2       0.6
 1 C  py              0.5       9.6       2.2      11.4       0.1       4.3
 1 C  dx2y2           0.0       0.0       0.0       0.0       0.0       0.1
 2 C  s               5.2       0.6       1.0       0.0       0.0       0.0
 2 C  pz              0.3       0.2       3.8       0.4       7.6       9.0
 2 C  px              3.9       0.7       3.9       0.2       2.1       0.3
 2 C  py              0.3       2.5       0.1       7.2       0.2       3.8
 2 C  dxz             0.0       0.0       0.1       0.0       0.0       0.0
 3 N  s               0.0       1.7       0.4       0.1       0.5       0.2
 3 N  pz              0.1       0.1       0.1       0.6       6.2       0.1
 3 N  px             12.4       3.4       6.2       5.1       1.1       1.3
 3 N  py              3.5      13.6       7.3       7.0       4.3       5.1
 3 N  dz2             0.0       0.4       0.3       0.1       0.0       0.0
 3 N  dxz             0.1       0.0       0.5       0.0       0.1       0.5
 3 N  dyz             0.1       0.3       0.1       0.2       0.2       0.0
 3 N  dx2y2           0.9       0.5       0.7       0.7       0.0       0.6
 3 N  dxy             0.4       0.6       0.3       0.5       0.1       0.1
 4 C  s               5.9       6.2       0.4       1.0       0.3       0.0
 4 C  pz              2.9       0.8       0.8       2.4       9.4       2.0
 4 C  px              0.1       0.1      16.9       1.6       1.3       2.6
 4 C  py              2.8       0.1       2.8       6.2       0.1       0.0
 4 C  dxy             0.0       0.1       0.0       0.0       0.1       0.0
 5 C  s               4.0       1.0       0.1       0.2       0.3       0.2
 5 C  pz              3.2       3.0       4.4       1.6       2.2       2.3
 5 C  px              0.3       0.0       3.7       0.0       5.9       0.5
 5 C  py              0.0       0.1       0.7       7.9       2.6       4.7
 6 C  s               1.6       4.1       0.0       0.5       0.0       0.0
 6 C  pz              0.1       0.0       0.3       4.8      10.8       8.8
 6 C  px              0.0       1.3       8.0       0.0       0.1       3.9
 6 C  py              2.5       6.0       1.1       6.0       1.1       0.0
 7 H  s               1.1       0.4       2.4       0.1       2.1       5.2
 7 H  px              0.1       0.0       0.0       0.0       0.1       0.1
 8 H  s               2.2       0.3       0.1       1.3       0.4       0.5
 9 H  s               1.8       1.6       0.0       2.1       0.9       2.0
 9 H  py              0.1       0.1       0.0       0.1       0.1       0.0
10 H  s               3.4       6.6       0.1       3.6       0.0       1.6
10 H  py              0.2       0.4       0.0       0.0       0.0       0.0
11 H  s               2.7       0.1       1.7       1.5       1.0       0.2
11 H  py              0.1       0.0       0.0       0.0       0.0       0.0
12 H  s               2.5       1.4       0.2       1.8       0.2       2.7
12 H  py              0.2       0.0       0.0       0.0       0.0       0.1
13 H  s               1.6       0.3       1.9       0.3       3.6       3.8
13 H  pz              0.1       0.0       0.1       0.0       0.1       0.1
14 H  s               0.2       7.1       2.4       1.9       1.1       2.6
14 H  px              0.1       0.0       0.0       0.1       0.0       0.0
14 H  py              0.0       0.5       0.1       0.0       0.0       0.1
15 H  s               4.0       3.0       5.6       0.2       1.8       0.0
15 H  pz              0.1       0.1       0.2       0.0       0.0       0.0
15 H  px              0.1       0.0       0.0       0.1       0.0       0.0
16 H  s               1.3       0.8       0.1       4.1       0.8       3.4
17 H  s               1.8       0.5       0.6       0.1       3.4       0.0
17 H  px              0.1       0.0       0.0       0.0       0.1       0.0
18 H  s               2.1       1.0       2.9       0.1       0.1       0.0
19 H  s               0.6       2.9       2.2       0.2       0.0       1.6
19 H  px              0.0       0.2       0.1       0.0       0.0       0.0
20 H  s               1.4       2.4       1.3       0.3       3.6       0.6
21 H  s               0.6       1.7       0.1       3.7       2.5       4.8
21 H  pz              0.0       0.1       0.0       0.1       0.0       0.1

                     18        19        20        21        22        23   
                  -0.37964  -0.36616  -0.35581  -0.35245  -0.34533  -0.32792
                   2.00000   2.00000   2.00000   2.00000   2.00000   2.00000
                  --------  --------  --------  --------  --------  --------
 0 C  pz              0.0       2.2       0.1       0.1       0.1       0.2
 0 C  px             23.6      11.0       0.5       0.1       6.6       0.3
 0 C  py              0.6       4.0       1.8      14.0       9.8       4.0
 0 C  dz2             0.1       0.1       0.0       0.0       0.0       0.0
 0 C  dx2y2           0.0       0.0       0.0       0.1       0.1       0.1
 0 C  dxy             0.2       0.0       0.0       0.0       0.1       0.0
 1 C  s               0.2       0.0       0.1       0.0       0.0       0.1
 1 C  pz              2.0       7.1       1.0       0.0       0.2       0.0
 1 C  px              2.2       0.8       3.9       1.4       1.1       0.9
 1 C  py              0.1       0.1       0.0       0.0       0.5       1.6
 1 C  dyz             0.0       0.0       0.0       0.1       0.1       0.0
 1 C  dxy             0.0       0.0       0.0       0.1       0.0       0.2
 2 C  s               0.1       0.1       0.0       0.0       0.0       0.0
 2 C  pz              3.3       1.8       0.1       0.2       0.4       0.0
 2 C  px              0.1      10.7       5.5       6.6       0.2       2.6
 2 C  py              1.5       0.5       4.2      21.9       2.6       4.1
 2 C  dxy             0.0       0.0       0.0       0.3       0.0       0.2
 3 N  s               1.6       0.2       0.3       0.5       0.5       0.1
 3 N  pz              3.4       0.2       0.3       1.1       0.2       2.2
 3 N  px              0.1       0.1       0.0       0.1       0.0      10.5
 3 N  py              0.0       0.1       2.3       2.8       5.8       0.3
 3 N  dz2             0.1       0.1       0.0       0.4       0.1       0.0
 3 N  dxz             0.0       1.2       0.0       0.0       0.4       0.2
 3 N  dyz             0.0       0.3       0.1       0.0       0.0       0.1
 3 N  dx2y2           0.0       0.2       0.2       0.1       0.1       0.3
 3 N  dxy             0.5       0.1       0.0       0.1       0.0       0.8
 4 C  s               0.0       0.2       0.1       0.1       0.0       0.1
 4 C  pz              0.6       3.1       0.3       0.2       0.7       5.1
 4 C  px              0.5       0.2       0.2       0.5       0.6       3.0
 4 C  py              4.8       0.6       0.6       0.0       0.0       3.4
 4 C  dxz             0.1       0.0       0.1       0.0       0.0       0.0
 4 C  dyz             0.0       0.0       0.0       0.0       0.0       0.3
 4 C  dx2y2           0.0       0.0       0.0       0.1       0.1       0.2
 5 C  s               0.1       0.0       0.0       0.0       0.0       0.2
 5 C  pz              2.8       4.4       5.8       0.2       0.0       6.2
 5 C  px              7.0       3.5      21.3       0.9       6.5       0.9
 5 C  py             10.2       5.1       6.3       0.6       2.5       0.8
 5 C  dyz             0.0       0.1       0.1       0.0       0.0       0.1
 5 C  dx2y2           0.1       0.1       0.2       0.0       0.1       0.0
 6 C  s               0.1       0.0       0.0       0.0       0.0       0.2
 6 C  pz              0.8       4.0       4.0       0.1       0.0       8.6
 6 C  px              0.9       3.4       1.5       8.3      19.6       7.4
 6 C  py              1.9       2.9       3.6       0.0       0.5       4.1
 6 C  dz2             0.0       0.0       0.0       0.1       0.1       0.1
 6 C  dyz             0.0       0.0       0.1       0.0       0.0       0.3
 6 C  dx2y2           0.0       0.0       0.0       0.1       0.2       0.1
 7 H  s               3.8       2.7       0.0       1.6       0.1       0.1
 7 H  pz              0.1       0.1       0.0       0.0       0.0       0.0
 8 H  s               9.7       2.3       0.7       1.0       7.9       1.7
 8 H  px              0.1       0.0       0.0       0.1       0.1       0.0
 8 H  py              0.1       0.1       0.0       0.0       0.0       0.0
 9 H  s               0.0       4.1       0.6       6.8       4.1       1.9
 9 H  px              0.2       0.0       0.0       0.0       0.1       0.0
10 H  s               0.2       0.0       0.0       0.1       0.5       0.9
11 H  s               0.3       2.9       0.2      12.1       0.2       4.0
11 H  px              0.0       0.0       0.0       0.2       0.0       0.0
11 H  py              0.0       0.1       0.1       0.0       0.0       0.0
12 H  s               0.5       2.1       3.5       6.8       1.4       1.5
12 H  px              0.0       0.0       0.0       0.2       0.0       0.0
13 H  s               1.5       1.8       0.3       0.0       0.3       0.1
13 H  py              0.0       0.0       0.0       0.2       0.0       0.0
14 H  s               0.0       0.1       0.4       0.6       1.6       0.9
15 H  s               0.9       0.1       0.1       0.5       0.8       1.1
15 H  px              0.0       0.0       0.0       0.0       0.0       0.1
16 H  s               4.3       2.5       0.0       0.0       2.9       0.3
16 H  px              0.0       0.0       0.2       0.0       0.0       0.0
17 H  s               4.2       2.4       9.5       0.5       3.4       0.6
17 H  px              0.1       0.0       0.1       0.0       0.1       0.0
18 H  s               2.0       2.5      12.7       1.0       0.0       1.7
18 H  pz              0.0       0.0       0.1       0.0       0.0       0.0
18 H  px              0.2       0.1       0.0       0.0       0.0       0.0
18 H  py              0.0       0.0       0.1       0.0       0.0       0.0
19 H  s               0.7       1.1       0.3       4.6      10.6       5.3
19 H  px              0.0       0.0       0.0       0.1       0.1       0.1
20 H  s               0.0       4.8       4.3       0.8       3.0       2.3
20 H  px              0.0       0.0       0.0       0.0       0.1       0.1
21 H  s               0.4       0.2       0.6       0.7       1.4       6.4

                     24        25        26        27        28        29   
                  -0.31567  -0.30411  -0.29490  -0.28632  -0.17766   0.07379
                   2.00000   2.00000   2.00000   2.00000   2.00000   0.00000
                  --------  --------  --------  --------  --------  --------
 0 C  s               0.3       0.3       0.2       0.0       1.1       5.9
 0 C  pz              9.2       6.3       0.2       3.2       4.8       2.4
 0 C  px              2.1       0.3       2.7       3.6       0.7       0.1
 0 C  py              0.1       0.8       4.2       0.0       0.1       0.1
 0 C  dz2             0.0       0.1       0.1       0.0       0.0       0.4
 0 C  dxz             0.2       0.0       0.1       0.2       0.0       0.0
 0 C  dyz             0.0       0.0       0.2       0.0       0.0       0.1
 1 C  s               0.0       0.0       0.3       0.0       0.1       3.2
 1 C  pz              6.8       5.4       0.0       2.7       2.2       0.0
 1 C  px              0.0       0.7       4.8       6.9       0.2       1.1
 1 C  py              0.3       1.2      15.4       1.0       0.1       0.5
 1 C  dz2             0.2       0.2       0.1       0.0       0.5       0.0
 1 C  dxz             0.0       0.0       0.1       0.3       0.7       0.0
 1 C  dyz             0.0       0.0       0.1       0.0       0.1       0.0
 1 C  dx2y2           0.0       0.0       0.7       0.0       0.0       0.0
 1 C  dxy             0.0       0.0       0.0       0.2       0.0       0.1
 2 C  s               0.0       0.0       0.7       0.3       0.4       2.9
 2 C  pz             17.1       4.9       0.8       4.4       0.2       1.1
 2 C  px              1.5       0.6       5.6       5.5       1.4       1.8
 2 C  py              0.9       1.0       5.9       0.0       0.1       0.3
 2 C  dz2             0.5       0.2       0.1       0.0       0.0       0.0
 2 C  dxz             0.0       0.0       0.1       0.0       0.0       0.2
 2 C  dx2y2           0.0       0.0       0.2       0.0       0.0       0.0
 2 C  dxy             0.0       0.0       0.1       0.1       0.0       0.1
 3 N  s               0.1       0.0       0.1       0.0       3.3       3.5
 3 N  pz              3.9       0.0       0.1       0.0      64.3       0.3
 3 N  px              2.7       0.0       0.7       5.4       0.0       0.1
 3 N  py              0.1       0.4       4.0       1.3       0.0       3.0
 3 N  dz2             0.3       0.0       0.2       0.0       0.8       0.5
 3 N  dxz             0.1       0.5       0.0       0.7       0.0       0.0
 3 N  dyz             0.0       0.1       0.0       0.1       0.2       0.6
 3 N  dx2y2           0.0       0.0       3.3       0.1       0.0       3.5
 3 N  dxy             0.0       0.7       0.2       0.4       0.0       0.8
 4 C  s               0.1       0.0       0.0       0.2       0.1       4.1
 4 C  pz              3.2       5.8       0.0       3.3       2.2       0.8
 4 C  px              2.2       0.0       1.6       5.5       0.6       2.0
 4 C  py              0.2       9.8       3.4       6.3       0.1       2.3
 4 C  dz2             0.0       0.3       0.0       0.0       0.4       0.0
 4 C  dxz             0.0       0.0       0.0       0.2       1.0       0.0
 4 C  dyz             0.0       0.0       0.0       0.2       0.0       0.0
 4 C  dx2y2           0.1       0.2       0.1       0.0       0.0       0.0
 4 C  dxy             0.0       0.1       0.1       0.3       0.0       0.3
 5 C  s               0.2       0.3       0.0       0.0       1.2       8.0
 5 C  pz              1.5       6.1       0.3       2.2       4.6       2.7
 5 C  px              1.5       0.2       0.7       2.5       0.9       0.2
 5 C  py              2.7       9.8       0.5       1.9       0.1       0.2
 5 C  dz2             0.0       0.2       0.0       0.1       0.0       0.5
 5 C  dxz             0.1       0.0       0.0       0.1       0.0       0.0
 5 C  dyz             0.0       0.1       0.0       0.2       0.0       0.1
 5 C  dx2y2           0.1       0.1       0.1       0.0       0.1       0.0
 6 C  s               0.0       0.6       0.0       0.3       0.0       8.0
 6 C  pz              6.3       7.6       0.1       0.4       0.0       0.4
 6 C  px              0.7       0.5       0.1       0.8       0.1       0.3
 6 C  py              0.1       9.2       6.4       4.6       0.1       0.8
 6 C  dz2             0.0       0.1       0.0       0.0       0.0       0.0
 6 C  dyz             0.1       0.0       0.0       0.1       0.0       0.0
 6 C  dx2y2           0.1       0.1       0.0       0.0       0.0       0.4
 6 C  dxy             0.0       0.0       0.0       0.1       0.0       0.0
 7 H  s               4.9       0.2       3.3       3.1       0.0       1.9
 7 H  px              0.0       0.0       0.0       0.0       0.0       0.8
 7 H  py              0.0       0.0       0.0       0.0       0.0       0.2
 8 H  s               0.4       0.0       0.1       2.1       0.8       1.3
 8 H  px              0.0       0.0       0.0       0.0       0.0       0.4
 9 H  s               0.0       1.2       4.5       0.2       0.0       1.0
 9 H  py              0.0       0.0       0.0       0.0       0.0       0.6
10 H  s               0.0       2.5      15.0       0.3       0.4       0.4
10 H  px              0.0       0.0       0.0       0.1       0.0       0.2
10 H  py              0.0       0.0       0.1       0.0       0.0       0.2
11 H  s               3.5       0.0       0.1       1.4       0.3       0.6
11 H  pz              0.1       0.0       0.0       0.1       0.0       0.1
11 H  py              0.0       0.0       0.0       0.0       0.0       0.2
12 H  s               0.2       2.3       5.0       0.2       0.0       0.6
12 H  pz              0.1       0.0       0.0       0.0       0.0       0.2
12 H  py              0.0       0.0       0.0       0.0       0.0       0.2
13 H  s              11.3       3.7       0.0       1.1       0.0       0.9
13 H  pz              0.1       0.0       0.0       0.0       0.0       0.1
13 H  px              0.0       0.0       0.0       0.1       0.0       0.3
14 H  s               0.0       0.2       3.2       0.3       0.4       6.0
14 H  pz              0.0       0.0       0.0       0.0       1.1       0.1
14 H  px              0.0       0.0       0.0       0.1       0.0       0.1
14 H  py              0.0       0.0       0.0       0.0       0.0       1.7
15 H  s               2.4       0.1       0.2      12.7       2.1       1.7
15 H  pz              0.0       0.1       0.0       0.1       0.0       0.4
15 H  px              0.0       0.0       0.0       0.0       0.0       0.1
15 H  py              0.0       0.1       0.0       0.0       0.0       0.4
16 H  s               2.6       7.0       1.0       0.3       0.1       1.8
16 H  pz              0.0       0.0       0.0       0.0       0.1       0.1
16 H  px              0.0       0.0       0.0       0.0       0.0       0.2
16 H  py              0.0       0.0       0.0       0.0       0.0       0.7
17 H  s               1.3       0.0       0.5       1.9       0.6       1.8
17 H  px              0.0       0.0       0.0       0.0       0.0       0.8
18 H  s               0.1       0.6       0.0       5.0       0.1       1.5
18 H  pz              0.0       0.1       0.0       0.0       0.1       0.0
18 H  px              0.0       0.0       0.0       0.0       0.0       0.3
18 H  py              0.0       0.0       0.0       0.0       0.0       0.6
19 H  s               0.4       0.2       0.0       0.7       0.0       2.1
19 H  px              0.0       0.0       0.0       0.0       0.0       0.8
20 H  s               2.7       0.3       0.8       3.5       0.1       1.5
20 H  pz              0.0       0.0       0.0       0.0       0.0       0.4
20 H  px              0.0       0.0       0.0       0.0       0.0       0.2
20 H  py              0.0       0.1       0.0       0.0       0.0       0.0
21 H  s               2.7       5.1       0.4       0.0       0.1       1.1
21 H  pz              0.0       0.0       0.0       0.0       0.0       0.4
21 H  px              0.0       0.0       0.0       0.0       0.0       0.1

                     30        31        32        33        34        35   
                   0.10034   0.11908   0.12098   0.13291   0.13409   0.14432
                   0.00000   0.00000   0.00000   0.00000   0.00000   0.00000
                  --------  --------  --------  --------  --------  --------
 0 C  s               5.2       0.4       8.6       0.5       8.3       0.7
 0 C  pz              0.6       8.1       5.5       0.1       3.8       6.3
 0 C  px              0.1       5.0       1.1       2.5       0.4       0.5
 0 C  py              4.5       0.3       1.2       5.3       1.1       1.0
[...]
16 H  py              2.6       1.6       0.6       0.1       0.0       0.4
17 H  s               0.5       2.7       0.5       1.1       0.2       0.0
17 H  pz              0.0       0.1       0.0       0.0       0.0       0.0
17 H  px              1.1       6.0       1.1       3.1       0.6       0.0
17 H  py              0.3       0.0       0.1       0.1       0.0       0.0
18 H  s               2.1       1.7       1.4       0.3       0.1       0.7
18 H  pz              2.3       1.9       1.9       0.4       0.0       0.8
18 H  px              0.3       0.1       0.6       0.3       0.1       0.3
18 H  py              1.7       2.3       1.3       0.5       0.1       0.6
19 H  s               0.3       1.1       1.5       0.2       0.1       0.0
19 H  pz              0.0       0.0       0.2       0.0       0.0       0.0
19 H  px              0.7       2.8       3.8       0.7       0.2       0.0
20 H  s               0.2       0.3       1.1       1.1       0.1       0.5
20 H  pz              0.1       0.5       0.8       1.4       0.0       0.6
20 H  px              0.0       0.0       0.2       0.5       0.0       0.4
20 H  py              0.3       0.2       1.4       1.4       0.2       0.3
21 H  s               0.0       0.2       0.4       0.3       0.0       0.2
21 H  pz              0.0       0.4       0.8       0.5       0.0       0.2
21 H  px              0.0       0.0       0.5       0.0       0.0       0.0
21 H  py              0.0       0.0       0.0       0.3       0.0       0.1

                    204       205       206       207       208       209   
                   4.01140   4.22865  21.92784  21.99022  22.02975  22.04757
                   0.00000   0.00000   0.00000   0.00000   0.00000   0.00000
                  --------  --------  --------  --------  --------  --------
 0 C  s               0.0       0.0      41.0       0.3      32.1      23.7
 1 C  s               1.1       0.1       0.9       0.0       0.0       1.9
 1 C  pz              0.1       0.1       0.0       0.0       0.0       0.0
 1 C  px              3.6       0.8       0.0       0.0       0.0       0.0
 1 C  py              3.0       0.8       0.0       0.0       0.0       0.0
 1 C  dz2             0.7       0.1       0.0       0.0       0.0       0.0
 1 C  dxz             1.2       0.1       0.0       0.0       0.0       0.0
 1 C  dyz             0.5       0.5       0.0       0.0       0.0       0.0
 1 C  dx2y2           0.5       0.7       0.0       0.0       0.0       0.0
 1 C  dxy             5.5       1.5       0.0       0.0       0.0       0.0
 2 C  s               0.1       0.0      42.1      22.0      12.2      18.6
 2 C  px              0.2       0.0       0.0       0.0       0.0       0.0
 2 C  dxz             0.1       0.0       0.0       0.0       0.0       0.0
 2 C  dxy             0.2       0.0       0.0       0.0       0.0       0.0
 3 N  s               0.0       1.0       0.0       0.0       0.0       0.0
 3 N  pz              0.0       0.1       0.0       0.0       0.0       0.0
 3 N  px             29.0       0.5       0.0       0.0       0.0       0.0
 3 N  py              0.9      15.4       0.0       0.0       0.0       0.0
 3 N  dz2             0.0       1.0       0.0       0.0       0.0       0.0
 3 N  dxz             8.8       0.2       0.0       0.0       0.0       0.0
 3 N  dyz             0.5       8.6       0.0       0.0       0.0       0.0
 3 N  dx2y2           4.4      26.5       0.0       0.0       0.0       0.0
 3 N  dxy            13.6       6.0       0.0       0.0       0.0       0.0
 4 C  s               1.3       0.1       7.4       0.6       2.0       0.2
 4 C  pz              0.0       0.2       0.0       0.0       0.0       0.0
 4 C  px              7.3       1.0       0.0       0.0       0.0       0.0
 4 C  py              0.3       0.1       0.0       0.0       0.0       0.0
 4 C  dz2             1.4       0.3       0.0       0.0       0.0       0.0
 4 C  dxz             2.0       0.2       0.0       0.0       0.0       0.0
 4 C  dyz             0.0       0.1       0.0       0.0       0.0       0.0
 4 C  dx2y2           4.8       1.2       0.0       0.0       0.0       0.0
 4 C  dxy             2.1       0.1       0.0       0.0       0.0       0.0
 5 C  s               0.0       0.0       3.4      46.2       7.6      41.1
 5 C  dz2             0.1       0.1       0.0       0.0       0.0       0.0
 6 C  s               0.0       0.0       4.9      30.4      45.8      14.2
 6 C  dxz             0.1       0.0       0.0       0.0       0.0       0.0
 6 C  dx2y2           0.2       0.0       0.0       0.0       0.0       0.0
10 H  s               0.4       0.3       0.0       0.0       0.0       0.0
10 H  pz              0.2       0.1       0.0       0.0       0.0       0.0
10 H  px              0.4       0.1       0.0       0.0       0.0       0.0
10 H  py              0.2       0.5       0.0       0.0       0.0       0.0
11 H  py              0.1       0.0       0.0       0.0       0.0       0.0
14 H  s               0.0      11.2       0.0       0.0       0.0       0.0
14 H  pz              0.0       1.0       0.0       0.0       0.0       0.0
14 H  px              0.3       0.9       0.0       0.0       0.0       0.0
14 H  py              0.1      17.5       0.0       0.0       0.0       0.0
15 H  s               0.7       0.0       0.0       0.0       0.0       0.0
15 H  pz              0.8       0.0       0.0       0.0       0.0       0.0
15 H  py              0.9       0.0       0.0       0.0       0.0       0.0

                    210       211       212   
                  22.10306  22.13324  32.05151
                   0.00000   0.00000   0.00000
                  --------  --------  --------
 0 C  s               1.3       1.2       0.0
 1 C  s              93.7       3.1       0.0
 2 C  s               0.1       4.6       0.0
 3 N  s               0.1       0.1      99.8
 4 C  s               3.6      85.9       0.0
 5 C  s               0.7       0.6       0.0
 6 C  s               0.2       4.2       0.0


                      *****************************
                      * MAYER POPULATION ANALYSIS *
                      *****************************

  NA   - Mulliken gross atomic population
  ZA   - Total nuclear charge
  QA   - Mulliken gross atomic charge
  VA   - Mayer's total valence
  BVA  - Mayer's bonded valence
  FA   - Mayer's free valence

  ATOM       NA         ZA         QA         VA         BVA        FA
  0 C      6.4367     6.0000    -0.4367     3.6689     3.6689     0.0000
  1 C      6.1168     6.0000    -0.1168     3.6751     3.6751    -0.0000
  2 C      6.4701     6.0000    -0.4701     3.8186     3.8186     0.0000
  3 N      7.2271     7.0000    -0.2271     2.5893     2.5893    -0.0000
  4 C      6.0656     6.0000    -0.0656     3.6990     3.6990     0.0000
  5 C      6.4550     6.0000    -0.4550     3.7290     3.7290     0.0000
  6 C      6.4980     6.0000    -0.4980     3.7503     3.7503    -0.0000
  7 H      0.8619     1.0000     0.1381     0.9687     0.9687    -0.0000
  8 H      0.8580     1.0000     0.1420     0.9663     0.9663     0.0000
  9 H      0.8532     1.0000     0.1468     0.9690     0.9690    -0.0000
 10 H      0.8513     1.0000     0.1487     0.9548     0.9548    -0.0000
 11 H      0.8589     1.0000     0.1411     0.9654     0.9654     0.0000
 12 H      0.8616     1.0000     0.1384     0.9672     0.9672    -0.0000
 13 H      0.8376     1.0000     0.1624     0.9608     0.9608    -0.0000
 14 H      0.7876     1.0000     0.2124     0.9417     0.9417    -0.0000
 15 H      0.8443     1.0000     0.1557     0.9455     0.9455    -0.0000
 16 H      0.8614     1.0000     0.1386     0.9669     0.9669    -0.0000
 17 H      0.8571     1.0000     0.1429     0.9661     0.9661     0.0000
 18 H      0.8593     1.0000     0.1407     0.9708     0.9708    -0.0000
 19 H      0.8532     1.0000     0.1468     0.9642     0.9642     0.0000
 20 H      0.8482     1.0000     0.1518     0.9620     0.9620     0.0000
 21 H      0.8371     1.0000     0.1629     0.9604     0.9604    -0.0000

  Mayer bond orders larger than 0.100000
B(  0-C ,  1-C ) :   0.8568 B(  0-C ,  7-H ) :   0.9680 B(  0-C ,  8-H ) :   0.9719 
B(  0-C ,  9-H ) :   0.9804 B(  1-C ,  2-C ) :   0.9694 B(  1-C ,  3-N ) :   0.9340 
B(  1-C , 10-H ) :   0.9619 B(  2-C , 11-H ) :   0.9793 B(  2-C , 12-H ) :   0.9727 
B(  2-C , 13-H ) :   0.9737 B(  3-N ,  4-C ) :   0.9721 B(  3-N , 14-H ) :   0.9177 
B(  4-C ,  5-C ) :   0.9096 B(  4-C ,  6-C ) :   0.9110 B(  4-C , 15-H ) :   0.9740 
B(  5-C , 16-H ) :   0.9736 B(  5-C , 17-H ) :   0.9687 B(  5-C , 18-H ) :   0.9729 
B(  6-C , 19-H ) :   0.9668 B(  6-C , 20-H ) :   0.9756 B(  6-C , 21-H ) :   0.9720 


-------
TIMINGS
-------

Total SCF time: 0 days 0 hours 0 min 22 sec 

Total time                  ....      22.588 sec
Sum of individual times     ....      22.121 sec  ( 97.9%)

SCF preparation             ....       0.218 sec  (  1.0%)
Fock matrix formation       ....      20.863 sec  ( 92.4%)
  Startup                   ....       0.068 sec  (  0.3% of F)
  Split-RI-J                ....       3.999 sec  ( 19.2% of F)
  XC integration            ....      16.255 sec  ( 77.9% of F)
    Basis function eval.    ....       3.018 sec  ( 18.6% of XC)
    Density eval.           ....       4.547 sec  ( 28.0% of XC)
    XC-Functional eval.     ....       1.929 sec  ( 11.9% of XC)
    XC-Potential eval.      ....       5.252 sec  ( 32.3% of XC)
Diagonalization             ....       0.000 sec  (  0.0%)
Density matrix formation    ....       0.267 sec  (  1.2%)
Total Energy calculation    ....       0.036 sec  (  0.2%)
Population analysis         ....       0.133 sec  (  0.6%)
Orbital Transformation      ....       0.067 sec  (  0.3%)
Orbital Orthonormalization  ....       0.000 sec  (  0.0%)
DIIS solution               ....       0.480 sec  (  2.1%)
  MO trafo                  ....       0.000 sec  (  0.0 % of DIIS)
  Orb grad                  ....       0.000 sec  (  0.0 % of DIIS)
  Energy W gradient         ....       0.000 sec  (  0.0 % of DIIS)
  DIIS error                ....       0.021 sec  (  4.3 % of DIIS)
  DIIS work                 ....       0.394 sec  ( 82.1 % of DIIS)
  Form Q                    ....       0.000 sec  (  0.0 % of DIIS)
  Form QpQm                 ....       0.000 sec  (  0.0 % of DIIS)
  Exp/Cayley                ....       0.000 sec  (  0.0 % of DIIS)
  Orb update                ....       0.000 sec  (  0.0 % of DIIS)
  Wake-sleep                ....       0.029 sec  (  6.0 % of DIIS)
SOSCF solution              ....       0.057 sec  (  0.3%)
  MO trafo                  ....       0.044 sec  ( 76.0 % of SOSCF)
  Orb grad                  ....       0.001 sec  (  1.6 % of SOSCF)
  Rot update                ....       0.000 sec  (  0.1 % of SOSCF)
  Step                      ....       0.013 sec  ( 22.2 % of SOSCF)
Finished LeanSCF after  22.7 sec

Maximum memory used throughout the entire LEANSCF-calculation: 24.1 MB


-------------------------------------------------------------------------------
                          DFT DISPERSION CORRECTION                            
                                                                               
                                DFTD4 V3.4.0                                   
-------------------------------------------------------------------------------
The R2SCAN3C composite method is recognized
Using three-body term ABC
Active option DFTDOPT                   ...         5   

-------------------------   ----------------
Dispersion correction           -0.006169307
-------------------------   ----------------

------------------   -----------------
gCP correction             0.014522772
------------------   -----------------

-------------------------   --------------------
FINAL SINGLE POINT ENERGY      -292.314206122949
-------------------------   --------------------


------------------------------------------------------------------------------
                              ORCA PROPERTY CALCULATIONS
------------------------------------------------------------------------------

GBWName                                 ... sp_gas.gbw
Number of atoms                         ...     22
Number of basis functions               ...    213
Max core memory                         ...   1024 MB

Electric properties:
Dipole moment                           ... YES
Quadrupole moment                       ...  NO
Static polarizability (Dipole/Dipole)   ...  NO
Static polarizability (Dipole/Quad.)    ...  NO
Static polarizability (Quad./Quad.)     ...  NO
Static polarizability (Velocity)        ...  NO

Atomic electric properties:
Dipole moment                           ...  NO
Quadrupole moment                       ...  NO
Static polarizability                   ...  NO

Choice of electric origin               ... Center of mass
Position of electric origin             ...     0.000001    -0.000001    -0.000001

General magnetic properties:
Magnetizability                         ...  NO

EPR properties:
g-Tensor (aka g-matrix)                 ...  NO
Zero-Field splitting spin-orbit         ...  NO
Zero-field splitting spin-spin          ...  NO
Hyperfine couplings                     ...  NO (   0 nuclei)
Quadrupole couplings                    ...  NO (   0 nuclei)
Contact density                         ...  NO (   0 nuclei)

NMR properties:
Chemical shifts                         ...  NO (   0 nuclei)
Spin-rotation constants                 ...  NO (   0 nuclei)
Spin-spin couplings                     ...  NO (   0 nuclei,    0 pairs)

Choice of magnetic origin               ... GIAO
Position of magnetic origin             ...     0.000000     0.000000     0.000000

Properties with geometric perturbations:
SCF Hessian                             ...  NO
IR spectrum                             ...  NO
VCD spectrum                            ...  NO
X-ray spectroscopy properties:
SCF XES/XAS/RIXS spectra                ...  NO


-------------
DIPOLE MOMENT
-------------

Method             : SCF
Type of density    : Electron Density
Multiplicity       :   1
Irrep              :   0
Energy             :  -292.3225595874868077 Eh
Relativity type    : 
Basis              : AO
                                X                 Y                 Z
Electronic contribution:     -0.395806040      -1.046200887       1.989506349
Nuclear contribution   :      0.344960832       1.021839492      -2.247767002
                        -----------------------------------------
Total Dipole Moment    :     -0.050845209      -0.024361395      -0.258260653
                        -----------------------------------------
Magnitude (a.u.)       :      0.264343106
Magnitude (Debye)      :      0.671906778



--------------------
Rotational spectrum 
--------------------
 
Rotational constants in cm-1:             0.129934             0.054585             0.048249 
Rotational constants in MHz :          3895.313334          1636.428418          1446.466620 

Dipole components along the rotational axes: 
x,y,z [a.u.] :     0.081171     0.248249    -0.040756 
x,y,z [Debye]:     0.206320     0.630999    -0.103594 

 

Dipole moment calculation done in   0.0 sec 

Maximum memory used throughout the entire PROP-calculation: 13.5 MB

--------------------------------
SUGGESTED CITATIONS FOR THIS RUN
--------------------------------

Below you find a list of papers that are relevant to this ORCA run
We neither can nor want to force you to cite these papers, but we appreciate if you do
You receive ORCA, which is the product of decades of hard work by many enthusiastic individuals, for free
The only thing we kindly ask in return is that you cite our papers,
We deeply appreciate it, if you show your appreciation for ORCA by not just citing the generic ORCA reference.

Please note that relegating all ORCA citations to the supporting information does *not* help us.
SI sections are not indexed - citations you put there will not count into any citation statistics
But we need these citations in order to attract the funding resources that allow us to do what we are doing

Therefore, if you are a happy ORCA user, please consider citing a few of the papers listed below in the main body of your paper

In addition to the list printed below, the program has created the file sp_gas.bibtex that contains the list in bibtex format
You can import this file easily into all common literature databanks and citation aid programs


List of essential papers. We consider these as the minimum necessary citations

  1. Neese,F.
     Software update: the ORCA program system, version 5.0
     WIRES Comput. Molec. Sci., 2022 12(1)e1606
     doi.org/10.1002/wcms.1606
  2. Grimme,S.; Hansen,A.; Ehlert,S.; Mewes,J.
     r2SCAN-3c: A 'Swiss army knife' composite electronic-structure method
     J. Chem. Phys., 2021 154 064103
     doi.org/10.1063/5.0040021

List of papers to cite with high priority. The work reported in these papers was absolutely
necessary for this run to complete.
Our perspective: the developers of density functionals and basis sets usually get cited in chemistry papers
Good! But without the algorithms to do something with them, the functionals or basis sets would not do anything.
Hence, in our opinion, the algorithm design and method developments papers are equally worthy of getting cited

  1. Neese,F.
     An improvement of the resolution of the identity approximation for the formation of the Coulomb matrix
     J. Comp. Chem., 2003 24(14)1740-1747
     doi.org/10.1002/jcc.10318
  2. Neese,F.
     The SHARK Integral Generation and Digestion System
     J. Comp. Chem., 2022  1-16
     doi.org/10.1002/jcc.26942
  3. Lehtola,S.; Steigemann,C.; Oliveira,M.; Marques,M.
     Recent developments in Libxc - A comprehensive library of functionals for density functional theory
     Software X, 2018 7 
     doi.org/10.1016/j.softx.2017.11.002
  4. Caldeweyher,E.; Bannwarth,C.; Grimme,S.
     Extension of the D3 dispersion coefficient model
     J. Chem. Phys., 2017 147 034112-XXXX
     doi.org/10.1063/1.4993215
  5. Caldeweyher,E.; Ehlert,S.; Hansen,A.; Neugebauer,H.; Spicher,S.; Bannwarth,C.; Grimme,S.
     A generally applicable atomic-charge dependent London dispersion correction
     J. Chem. Phys., 2019 150 154122-XXXX
     doi.org/10.1063/1.5090222
  6. Caldeweyher,E.; Mewes,J.; Ehlert,S.; Grimme,S.
     Extension and evaluation of the D4 London-dispersion model for periodic systems
     Phys. Chem. Chem. Phys., 2020 22(16)8499-8512
     doi.org/10.1039/D0CP00502A

List of suggested additional citations. These are papers that are important in the 'surrounding' of 
of this run, or papers that preceded the highly important papers. If you like your results we are grateful for a citation.

  1. Neese,F.
     The ORCA program system
     WIRES Comput. Molec. Sci., 2012 2(1)73-78
     doi.org/10.1002/wcms.81
  2. Neese,F.
     Software update: the ORCA program system, version 4.0
     WIRES Comput. Molec. Sci., 2018 8(1)1-6
     doi.org/10.1002/wcms.1327
  3. Neese,F.; Wennmohs,F.; Becker,U.; Riplinger,C.
     The ORCA quantum chemistry program package
     J. Chem. Phys., 2020 152 Art. No. L224108
     doi.org/10.1063/5.0004608

List of optional additional citations

  1. Neese,F.
     Approximate second-order SCF convergence for spin unrestricted wavefunctions
     Chem. Phys. Lett., 2000 325(1-3)93-98
     doi.org/10.1016/s0009-2614(00)00662-x

Timings for individual modules:

Sum of individual times          ...       24.619 sec (=   0.410 min)
Startup calculation              ...        1.387 sec (=   0.023 min)   5.6 %
SCF iterations                   ...       23.101 sec (=   0.385 min)  93.8 %
Property calculations            ...        0.131 sec (=   0.002 min)   0.5 %
                             ****ORCA TERMINATED NORMALLY****
TOTAL RUN TIME: 0 days 0 hours 0 minutes 25 seconds 952 msec
