
                                 *****************
                                 * O   R   C   A *
                                 *****************

                                            #,                                       
                                            ###                                      
                                            ####                                     
                                            #####                                    
                                            ######                                   
                                           ########,                                 
                                     ,,################,,,,,                         
                               ,,#################################,,                 
                          ,,##########################################,,             
                       ,#########################################, ''#####,          
                    ,#############################################,,   '####,        
                  ,##################################################,,,,####,       
                ,###########''''           ''''###############################       
              ,#####''   ,,,,##########,,,,          '''####'''          '####       
            ,##' ,,,,###########################,,,                        '##       
           ' ,,###''''                  '''############,,,                           
         ,,##''                                '''############,,,,        ,,,,,,###''
      ,#''                                            '''#######################'''  
     '                                                          ''''####''''         
             ,#######,   #######,   ,#######,      ##                                
            ,#'     '#,  ##    ##  ,#'     '#,    #''#        ,####,   ,####,        
            ##       ##  ##   ,#'  ##            #'  '#       #'       #'  '#        
            ##       ##  #######   ##           ,######,      #####,   #    #        
            '#,     ,#'  ##    ##  '#,     ,#' ,#      #,     #,   #   #,  ,#        
             '#######'   ##     ##  '#######'  #'      '#     '####' # '####'        



                #########################################################
                #                        -***-                          #
                #          Department of theory and spectroscopy        #
                #                                                       #
                #                      Frank Neese                      #
                #                                                       #
                #     Directorship, Architecture, Infrastructure        #
                #                    SHARK, DRIVERS                     #
                #        Core code/Algorithms in most modules           #
                #                                                       #
                #        Max Planck Institute fuer Kohlenforschung      #
                #                Kaiser Wilhelm Platz 1                 #
                #                 D-45470 Muelheim/Ruhr                 #
                #                      Germany                          #
                #                                                       #
                #                  All rights reserved                  #
                #                        -***-                          #
                #########################################################


                         Program Version 6.0.0  -   RELEASE  -


 With contributions from (in alphabetic order):
   Daniel Aravena         : Magnetic Suceptibility
   Michael Atanasov       : Ab Initio Ligand Field Theory (pilot matlab implementation)
   Alexander A. Auer      : GIAO ZORA, VPT2 properties, NMR spectrum
   Ute Becker             : All parallelization in ORCA, NUMFREQ, NUMCALC
   Giovanni Bistoni       : ED, misc. LED, open-shell LED, HFLD
   Martin Brehm           : Molecular dynamics
   Dmytro Bykov           : pre 5.0 version of the SCF Hessian
   Marcos Casanova-Páez   : Triplet and SCS-CIS(D). UHF-(DLPNO)-IP/EA/STEOM-CCSD. UHF-CVS-IP/STEOM-CCSD
   Vijay G. Chilkuri      : MRCI spin determinant printing, contributions to CSF-ICE
   Pauline Colinet        : FMM embedding
   Dipayan Datta          : RHF DLPNO-CCSD density
   Achintya Kumar Dutta   : EOM-CC, STEOM-CC
   Nicolas Foglia         : Exact transition moments, OPA infrastructure, MCD improvements
   Dmitry Ganyushin       : Spin-Orbit,Spin-Spin,Magnetic field MRCI
   Miquel Garcia          : C-PCM and meta-GGA Hessian, CCSD/C-PCM, Gaussian charge scheme
   Tiago L. C. Gouveia    : GS-ROHF, GS-ROCIS
   Yang Guo               : DLPNO-NEVPT2, F12-NEVPT2, CIM, IAO-localization
   Andreas Hansen         : Spin unrestricted coupled pair/coupled cluster methods
   Ingolf Harden          : AUTO-CI MPn and infrastructure 
   Benjamin Helmich-Paris : MC-RPA, TRAH-(SCF,CASSCF), AVAS, COSX integrals, SCF dyn. polar.
   Lee Huntington         : MR-EOM, pCC
   Robert Izsak           : Overlap fitted RIJCOSX, COSX-SCS-MP3, EOM
   Riya Kayal             : Wick's Theorem for AUTO-CI, AUTO-CI UHF-CCSDT
   Emily Kempfer          : AUTO-CI, RHF CISDT and CCSDT
   Christian Kollmar      : KDIIS, OOCD, Brueckner-CCSD(T), CCSD density, CASPT2, CASPT2-K, improved NEVPT2
   Axel Koslowski         : Symmetry handling
   Simone Kossmann        : Meta GGA functionals, TD-DFT gradient, OOMP2, (MP2 Hessian; deprecated post 5.0)
   Lucas Lang             : DCDCAS
   Marvin Lechner         : AUTO-CI (C++ implementation), FIC-MRCC
   Spencer Leger          : CASSCF response
   Dagmar Lenk            : GEPOL surface, SMD, ORCA-2-JSON
   Dimitrios Liakos       : Extrapolation schemes; Compound Job, initial MDCI parallelization
   Dimitrios Manganas     : Further ROCIS development; embedding schemes. LFT, Crystal Embedding
   Dimitrios Pantazis     : SARC Basis sets
   Anastasios Papadopoulos: AUTO-CI, single reference methods and gradients
   Taras Petrenko         : pre 6.0 DFT Hessian and TD-DFT gradient, (ASA, deprecated), ECA, 1-Electron XAS/XES, NRVS
   Peter Pinski           : DLPNO-MP2, DLPNO-MP2 Gradient
   Christoph Reimann      : Effective Core Potentials
   Marius Retegan         : Local ZFS, SOC
   Christoph Riplinger    : Optimizer, TS searches, QM/MM, DLPNO-CCSD(T), (RO)-DLPNO pert. Triples
   Michael Roemelt        : Original ROCIS implementation
   Masaaki Saitow         : Open-shell DLPNO-CCSD energy and density
   Barbara Sandhoefer     : DKH picture change effects
   Kantharuban Sivalingam : CASSCF convergence/infrastructure, NEVPT2 and variants, FIC-MRCI
   Bernardo de Souza      : ESD, SOC TD-DFT
   Georgi Stoychev        : AutoAux, RI-MP2 NMR, DLPNO-MP2 response, X2C
   Van Anh Tran           : RI-MP2 g-tensors
   Willem Van den Heuvel  : Paramagnetic NMR
   Zikuan Wang            : NOTCH, Electric field optimization 
   Frank Wennmohs         : Technical directorship and infrastructure
   Hang Xu                : AUTO-CI-Response properties 


 We gratefully acknowledge several colleagues who have allowed us to
 interface, adapt or use parts of their codes:
   Stefan Grimme, W. Hujo, H. Kruse, P. Pracht,  : VdW corrections, initial TS optimization,
                  C. Bannwarth, S. Ehlert,         DFT functionals, gCP, sTDA/sTD-DF
                  L. Wittmann, M. Mueller
   Ed Valeev, F. Pavosevic, A. Kumar             : LibInt (2-el integral package), F12 methods
   Garnet Chan, S. Sharma, J. Yang, R. Olivares  : DMRG
   Ulf Ekstrom                                   : XCFun DFT Library
   Mihaly Kallay                                 : mrcc  (arbitrary order and MRCC methods)
   Frank Weinhold                                : gennbo (NPA and NBO analysis)
   Simon Mueller                                 : openCOSMO-RS
   Christopher J. Cramer and Donald G. Truhlar   : smd solvation model
   Lars Goerigk                                  : TD-DFT with DH, B97 family of functionals
   V. Asgeirsson, H. Jonsson                     : NEB implementation
   FAccTs GmbH                                   : IRC, NEB, NEB-TS, DLPNO-Multilevel, CI-OPT
                                                   MM, QMMM, 2- and 3-layer-ONIOM, Crystal-QMMM,
                                                   LR-CPCM, SF, NACMEs, symmetry and pop. for TD-DFT,
                                                   nearIR, NL-DFT gradient (VV10), updates on ESD,
                                                   ML-optimized integration grids, MBIS, APM,
                                                   GOAT, DOCKER, SOLVATOR, interface openCOSMO-RS
   S Lehtola, MJT Oliveira, MAL Marques          : LibXC Library
   Liviu Ungur et al                             : ANISO software


 Your calculation uses the libint2 library for the computation of 2-el integrals
 For citations please refer to: http://libint.valeyev.net

 Your ORCA version has been built with support for libXC version: 6.2.2
 For citations please refer to: https://libxc.gitlab.io

 This ORCA versions uses:
   CBLAS   interface :  Fast vector & matrix operations
   LAPACKE interface :  Fast linear algebra routines
   SCALAPACK package :  Parallel linear algebra routines
   Shared memory     :  Shared parallel matrices
   BLAS/LAPACK       :  OpenBLAS 0.3.27  USE64BITINT DYNAMIC_ARCH NO_AFFINITY SkylakeX SINGLE_THREADED
        Core in use  :  SkylakeX
   Copyright (c) 2011-2014, The OpenBLAS Project


Your calculation utilizes the geometrical counterpoise correction gCP
Please cite in your paper:
H.Kruse, S. Grimme J.Chem.Phys., 136, (2012), 154101 
   

Your calculation utilizes the atom-pairwise dispersion correction
based on EEQ partial charges (D4)


================================================================================

----- Orbital basis set information -----
Your calculation utilizes the basis: def2-mTZVPP
   Stefan Grimme, Andreas Hansen, Sebastian Ehlert, and Jan-Michael Mewes 
   J. Chem. Phys. 154, 064103 (2021). DOI: 10.1063/5.0040021

----- AuxJ basis set information -----
Your calculation utilizes the auxiliary basis: def2/J
   F. Weigend, Phys. Chem. Chem. Phys. 8, 1057 (2006).

================================================================================
                                        WARNINGS
                       Please study these warnings very carefully!
================================================================================

Using LibXC functional ID 497 : Re-regularized SCAN exchange by Furness et al
[ 1]  J. W. Furness, A. D. Kaplan, J. Ning, J. P. Perdew, and J. Sun.,  J. Phys. Chem. Lett. 11, 8208-8215 (2020)
[ 2]  J. W. Furness, A. D. Kaplan, J. Ning, J. P. Perdew, and J. Sun.,  J. Phys. Chem. Lett. 11, 9248-9248 (2020)
Using LibXC functional ID 498 : Re-regularized SCAN correlation by Furness et al
[ 1]  J. W. Furness, A. D. Kaplan, J. Ning, J. P. Perdew, and J. Sun.,  J. Phys. Chem. Lett. 11, 8208-8215 (2020)
[ 2]  J. W. Furness, A. D. Kaplan, J. Ning, J. P. Perdew, and J. Sun.,  J. Phys. Chem. Lett. 11, 9248-9248 (2020)
Using LibXC functional ID 497 : Re-regularized SCAN exchange by Furness et al
[ 1]  J. W. Furness, A. D. Kaplan, J. Ning, J. P. Perdew, and J. Sun.,  J. Phys. Chem. Lett. 11, 8208-8215 (2020)
[ 2]  J. W. Furness, A. D. Kaplan, J. Ning, J. P. Perdew, and J. Sun.,  J. Phys. Chem. Lett. 11, 9248-9248 (2020)
Using LibXC functional ID 498 : Re-regularized SCAN correlation by Furness et al
[ 1]  J. W. Furness, A. D. Kaplan, J. Ning, J. P. Perdew, and J. Sun.,  J. Phys. Chem. Lett. 11, 8208-8215 (2020)
[ 2]  J. W. Furness, A. D. Kaplan, J. Ning, J. P. Perdew, and J. Sun.,  J. Phys. Chem. Lett. 11, 9248-9248 (2020)

================================================================================
                                       INPUT FILE
================================================================================
NAME = sp_gas.inp
|  1> ! r2scan-3c def2/J RI DEFGRID2 scfconv6 printgap
|  2> %output
|  3>     printlevel normal
|  4> end
|  5> * xyz 0 1
|  6> C 2.4332623654 -0.2525812507 0.1397440026
|  7> C 1.0144476112 0.2344697602 0.4095946522
|  8> C 0.0624546281 -0.1421498535 -0.7244864391
|  9> C -1.3628124976 0.3944616288 -0.5168796246
| 10> N -2.0936789785 -0.1694437956 0.6073206769
| 11> H 2.8186404573 0.188624368 -0.7766497802
| 12> H 3.0936365711 0.0221462086 0.9585523901
| 13> H 2.4508138033 -1.3349173947 0.0316947938
| 14> H 0.6629997865 -0.200958917 1.3482834639
| 15> H 1.0186006167 1.3207842559 0.5274402155
| 16> H 0.4476491595 0.2613499719 -1.6630421105
| 17> H 0.0250963728 -1.230887757 -0.8215399916
| 18> H -1.9516853238 0.1936154873 -1.4167071751
| 19> H -1.3257901789 1.4779702059 -0.3742289346
| 20> H -1.6117756167 0.0461986453 1.4733029993
| 21> H -2.1221957797 -1.1801104183 0.5198022387
| 22> *
| 23> 
| 24>                          ****END OF INPUT****
================================================================================

                       ****************************
                       * Single Point Calculation *
                       ****************************

---------------------------------
CARTESIAN COORDINATES (ANGSTROEM)
---------------------------------
  C      2.433262   -0.252581    0.139744
  C      1.014448    0.234470    0.409595
  C      0.062455   -0.142150   -0.724486
  C     -1.362812    0.394462   -0.516880
  N     -2.093679   -0.169444    0.607321
  H      2.818640    0.188624   -0.776650
  H      3.093637    0.022146    0.958552
  H      2.450814   -1.334917    0.031695
  H      0.663000   -0.200959    1.348283
  H      1.018601    1.320784    0.527440
  H      0.447649    0.261350   -1.663042
  H      0.025096   -1.230888   -0.821540
  H     -1.951685    0.193615   -1.416707
  H     -1.325790    1.477970   -0.374229
  H     -1.611776    0.046199    1.473303
  H     -2.122196   -1.180110    0.519802

----------------------------
CARTESIAN COORDINATES (A.U.)
----------------------------
  NO LB      ZA    FRAG     MASS         X           Y           Z
   0 C     6.0000    0    12.011    4.598199   -0.477309    0.264078
   1 C     6.0000    0    12.011    1.917028    0.443084    0.774022
   2 C     6.0000    0    12.011    0.118022   -0.268624   -1.369081
   3 C     6.0000    0    12.011   -2.575342    0.745424   -0.976761
   4 N     7.0000    0    14.007   -3.956480   -0.320202    1.147670
   5 H     1.0000    0     1.008    5.326459    0.356448   -1.467655
   6 H     1.0000    0     1.008    5.846126    0.041850    1.811402
   7 H     1.0000    0     1.008    4.631367   -2.522628    0.059894
   8 H     1.0000    0     1.008    1.252888   -0.379757    2.547886
   9 H     1.0000    0     1.008    1.924876    2.495921    0.996718
  10 H     1.0000    0     1.008    0.845934    0.493880   -3.142694
  11 H     1.0000    0     1.008    0.047425   -2.326041   -1.552486
  12 H     1.0000    0     1.008   -3.688151    0.365880   -2.677189
  13 H     1.0000    0     1.008   -2.505380    2.792959   -0.707190
  14 H     1.0000    0     1.008   -3.045815    0.087303    2.784139
  15 H     1.0000    0     1.008   -4.010369   -2.230085    0.982284

--------------------------------
INTERNAL COORDINATES (ANGSTROEM)
--------------------------------
 C      0   0   0     0.000000000000     0.00000000     0.00000000
 C      1   0   0     1.524163169429     0.00000000     0.00000000
 C      2   1   0     1.527832744426   111.70580898     0.00000000
 C      3   2   1     1.537022723308   113.04622577   182.84139693
 N      4   3   2     1.454641350458   115.78225364   293.87048261
 H      1   2   3     1.087637916240   110.44938147    60.10803152
 H      1   2   3     1.087205796474   110.56886374   180.17992445
 H      1   2   3     1.087857625383   110.52003599   300.26627579
 H      2   1   3     1.092817638778   108.91242880   121.47050671
 H      2   1   3     1.092695752628   109.46574933   239.03297996
 H      3   2   1     1.091821269455   109.09603752   303.41592577
 H      3   2   1     1.093693400277   109.42314526    60.98446374
 H      4   3   2     1.093983545869   108.90196401   173.16850360
 H      4   3   2     1.093485577449   109.40016066    55.45091281
 H      5   4   3     1.014227733372   109.79900284    61.95266843
 H      5   4   3     1.014849598323   109.48329845   304.29789569

---------------------------
INTERNAL COORDINATES (A.U.)
---------------------------
 C      0   0   0     0.000000000000     0.00000000     0.00000000
 C      1   0   0     2.880250973630     0.00000000     0.00000000
 C      2   1   0     2.887185465402   111.70580898     0.00000000
 C      3   2   1     2.904552008665   113.04622577   182.84139693
 N      4   3   2     2.748873775444   115.78225364   293.87048261
 H      1   2   3     2.055337794563   110.44938147    60.10803152
 H      1   2   3     2.054521206548   110.56886374   180.17992445
 H      1   2   3     2.055752984671   110.52003599   300.26627579
 H      2   1   3     2.065126051610   108.91242880   121.47050671
 H      2   1   3     2.064895720167   109.46574933   239.03297996
 H      3   2   1     2.063243186461   109.09603752   303.41592577
 H      3   2   1     2.066781001001   109.42314526    60.98446374
 H      4   3   2     2.067329296708   108.90196401   173.16850360
 H      4   3   2     2.066388272771   109.40016066    55.45091281
 H      5   4   3     1.916612653501   109.79900284    61.95266843
 H      5   4   3     1.917787807950   109.48329845   304.29789569

---------------------
BASIS SET INFORMATION
---------------------
There are 3 groups of distinct atoms

 Group   1 Type C   : 11s6p1d contracted to 5s3p1d pattern {62111/411/1}
 Group   2 Type N   : 11s6p2d contracted to 5s3p2d pattern {62111/411/11}
 Group   3 Type H   : 4s1p contracted to 2s1p pattern {31/1}

Atom   0C    basis set group =>   1
Atom   1C    basis set group =>   1
Atom   2C    basis set group =>   1
Atom   3C    basis set group =>   1
Atom   4N    basis set group =>   2
Atom   5H    basis set group =>   3
Atom   6H    basis set group =>   3
Atom   7H    basis set group =>   3
Atom   8H    basis set group =>   3
Atom   9H    basis set group =>   3
Atom  10H    basis set group =>   3
Atom  11H    basis set group =>   3
Atom  12H    basis set group =>   3
Atom  13H    basis set group =>   3
Atom  14H    basis set group =>   3
Atom  15H    basis set group =>   3
---------------------------------
AUXILIARY/J BASIS SET INFORMATION
---------------------------------
There are 3 groups of distinct atoms

 Group   1 Type C   : 12s5p4d2f1g contracted to 6s4p3d1f1g pattern {711111/2111/211/2/1}
 Group   2 Type N   : 12s5p4d2f1g contracted to 6s4p3d1f1g pattern {711111/2111/211/2/1}
 Group   3 Type H   : 5s2p1d contracted to 3s1p1d pattern {311/2/1}

Atom   0C    basis set group =>   1
Atom   1C    basis set group =>   1
Atom   2C    basis set group =>   1
Atom   3C    basis set group =>   1
Atom   4N    basis set group =>   2
Atom   5H    basis set group =>   3
Atom   6H    basis set group =>   3
Atom   7H    basis set group =>   3
Atom   8H    basis set group =>   3
Atom   9H    basis set group =>   3
Atom  10H    basis set group =>   3
Atom  11H    basis set group =>   3
Atom  12H    basis set group =>   3
Atom  13H    basis set group =>   3
Atom  14H    basis set group =>   3
Atom  15H    basis set group =>   3

Checking for AutoStart:
The File: sp_gas.gbw exists
Trying to determine its content:
     ... Fine, the file contains calculation information
     ... Fine, the calculation information was read
     ... Fine, the file contains a basis set
     ... Fine, the basis set was read
     ... Fine, the file contains a geometry
     ... Fine, the geometry was read
     ... Fine, the file contains a set of orbitals
     ... Fine, the orbitals can be read
     => possible old guess file was deleted
     => GBW file was renamed to GES file
     => GES file is set as startup file
     => Guess is set to MORead
     ... now leaving AutoStart

------------------------------------------------------------------------------
                             ORCA STARTUP CALCULATIONS
                           -- RI-GTO INTEGRALS CHOSEN --
------------------------------------------------------------------------------
------------------------------------------------------------------------------
                   ___                                                        
                  /   \      - P O W E R E D   B Y -                         
                 /     \                                                     
                 |  |  |   _    _      __       _____    __    __             
                 |  |  |  | |  | |    /  \     |  _  \  |  |  /  |          
                  \  \/   | |  | |   /    \    | | | |  |  | /  /          
                 / \  \   | |__| |  /  /\  \   | |_| |  |  |/  /          
                |  |  |   |  __  | /  /__\  \  |    /   |      \           
                |  |  |   | |  | | |   __   |  |    \   |  |\   \          
                \     /   | |  | | |  |  |  |  | |\  \  |  | \   \       
                 \___/    |_|  |_| |__|  |__|  |_| \__\ |__|  \__/        
                                                                              
                      - O R C A' S   B I G   F R I E N D -                    
                                      &                                       
                       - I N T E G R A L  F E E D E R -                       
                                                                              
 v1 FN, 2020, v2 2021, v3 2022-2024                                           
------------------------------------------------------------------------------


----------------------
SHARK INTEGRAL PACKAGE
----------------------

Number of atoms                             ...     16
Number of basis functions                   ...    155
Number of shells                            ...     79
Maximum angular momentum                    ...      2
Integral batch strategy                     ... SHARK/LIBINT Hybrid
RI-J (if used) integral strategy            ... SPLIT-RIJ (Revised 2003 algorithm where possible)
Printlevel                                  ...      1
Contraction scheme used                     ... SEGMENTED contraction
Prescreening option                         ... SCHWARTZ
   Thresh                                   ... 1.000e-10
   Tcut                                     ... 1.000e-11
   Tpresel                                  ... 1.000e-11 
Coulomb Range Separation                    ... NOT USED
Exchange Range Separation                   ... NOT USED
Multipole approximations                    ... NOT USED
Finite Nucleus Model                        ... NOT USED
CABS basis                                  ... NOT available
Auxiliary Coulomb fitting basis             ... AVAILABLE
   # of basis functions in Aux-J            ...    366
   # of shells in Aux-J                     ...    130
   Maximum angular momentum in Aux-J        ...      4
Auxiliary J/K fitting basis                 ... NOT available
Auxiliary Correlation fitting basis         ... NOT available
Auxiliary 'external' fitting basis          ... NOT available

Checking pre-screening integrals            ... done (  0.0 sec) Dimension = 79
Check shell pair data                       ... done (  0.0 sec)
Shell pair information
Shell pair cut-off parameter TPreSel        ...   1.0e-11
Total number of shell pairs                 ...      3160
Shell pairs after pre-screening             ...      2960
Total number of primitive shell pairs       ...     10874
Primitive shell pairs kept                  ...      7742
          la=0 lb=0:   1052 shell pairs
          la=1 lb=0:   1140 shell pairs
          la=1 lb=1:    331 shell pairs
          la=2 lb=0:    269 shell pairs
          la=2 lb=1:    148 shell pairs
          la=2 lb=2:     20 shell pairs

Calculating one electron integrals          ... done (  0.0 sec)
Calculating RI/J V-Matrix + Cholesky decomp.... done (  0.1 sec)
Calculating Nuclear repulsion               ... done (  0.0 sec) ENN=    188.947409848235 Eh

Diagonalization of the overlap matrix:
Smallest eigenvalue                        ... 2.153e-04
Time for diagonalization                   ...    0.002 sec
Threshold for overlap eigenvalues          ... 1.000e-07
Number of eigenvalues below threshold      ... 0
Time for construction of square roots      ...    0.023 sec
Total time needed                          ...    0.035 sec

-------------------
DFT GRID GENERATION
-------------------

General Integration Accuracy     IntAcc      ... 4.388
Radial Grid Type                 RadialGrid  ... OptM3 with GC (2021)
Angular Grid (max. ang.)         AngularGrid ... 4 (Lebedev-302)
Angular grid pruning method      GridPruning ... 4 (adaptive)
Weight generation scheme         WeightScheme... mBecke (2022)
Basis function cutoff            BFCut       ... 1.0000e-10
Integration weight cutoff        WCut        ... 1.0000e-14
Partially contracted basis set               ... off
Rotationally invariant grid construction     ... off
Angular grids for H and He will be reduced by one unit

Total number of grid points                  ...    65426
Total number of batches                      ...     1029
Average number of points per batch           ...       63
Average number of grid points per atom       ...     4089
Initializing property integral containers    ... done (  0.1 sec)

SHARK setup successfully completed in   1.0 seconds

Maximum memory used throughout the entire STARTUP-calculation: 27.1 MB
-------------------------------------------------------------------------------
                                 ORCA GUESS
                   Start orbitals & Density for SCF / CASSCF
-------------------------------------------------------------------------------

------------
SCF SETTINGS
------------
Hamiltonian:
 Density Functional     Method          .... DFT(GTOs)
  Functional kind                       .... Exchange
  Functional name                       .... Re-regularized SCAN exchange by Furness et al
  Functional family                     .... MGGA
  Functional refs                              
    [ 0] J. W. Furness, A. D. Kaplan, J. Ning, J. P. Perdew, and J. Sun.,  J. Phys. Chem. Lett. 11, 8208-8215 (2020), doi: 10.1021/acs.jpclett.0c02405
    [ 1] J. W. Furness, A. D. Kaplan, J. Ning, J. P. Perdew, and J. Sun.,  J. Phys. Chem. Lett. 11, 9248-9248 (2020), doi: 10.1021/acs.jpclett.0c03077
  Functional external parameters        .... 6
    Parameter  0 _c1        =  6.670000e-01 : c1 parameter        
    Parameter  1 _c2        =  8.000000e-01 : c2 parameter        
    Parameter  2 _d         =  1.240000e+00 : d parameter         
    Parameter  3 _k1        =  6.500000e-02 : k1 parameter        
    Parameter  4 _eta       =  1.000000e-03 : eta parameter       
    Parameter  5 _dp2       =  3.610000e-01 : dp2 parameter       
  Functional kind                       .... Correlation
  Functional name                       .... Re-regularized SCAN correlation by Furness et al
  Functional family                     .... MGGA
  Functional refs                              
    [ 0] J. W. Furness, A. D. Kaplan, J. Ning, J. P. Perdew, and J. Sun.,  J. Phys. Chem. Lett. 11, 8208-8215 (2020), doi: 10.1021/acs.jpclett.0c02405
    [ 1] J. W. Furness, A. D. Kaplan, J. Ning, J. P. Perdew, and J. Sun.,  J. Phys. Chem. Lett. 11, 9248-9248 (2020), doi: 10.1021/acs.jpclett.0c03077
  Functional external parameters        .... 1
    Parameter  0 _eta       =  1.000000e-03 : Regularization parameter
 Gradients option       PostSCFGGA      .... off
 RI-approximation to the Coulomb term is turned on
   Number of AuxJ basis functions       .... 366


General Settings:
 Integral files         IntName         .... sp_gas
 Hartree-Fock type      HFTyp           .... RHF
 Total Charge           Charge          ....    0
 Multiplicity           Mult            ....    1
 Number of Electrons    NEL             ....   42
 Basis Dimension        Dim             ....  155
 Nuclear Repulsion      ENuc            ....    188.9474098482 Eh

Convergence Acceleration:
 AO-DIIS                CNVDIIS         .... on
   Start iteration      DIISMaxIt       ....    12
   Startup error        DIISStart       ....  0.200000
   # of expansion vecs  DIISMaxEq       ....     5
   Bias factor          DIISBfac        ....   1.050
   Max. coefficient     DIISMaxC        ....  10.000
 MO-DIIS                CNVKDIIS        .... off
 Trust-Rad. Augm. Hess. CNVTRAH         .... auto
   Auto Start mean grad. ratio tolernc. ....  1.125000
   Auto Start start iteration           ....     1
   Auto Start num. interpolation iter.  ....    10
   Max. Number of Micro iterations      ....    24
   Max. Number of Macro iterations      .... Maxiter - #DIIS iter
   Number of Davidson start vectors     ....     2
   Converg. threshold    (grad. norm)   ....   3.330e-04
   Grad. Scal. Fac. for Micro threshold ....   0.100
   Minimum threshold for Micro iter.    ....   1.000e-02
   NR start threshold (gradient norm)   ....   1.000e-04
   Initial trust radius                 ....   0.400
   Minimum AH scaling param. (alpha)    ....   1.000
   Maximum AH scaling param. (alpha)    .... 1000.000
   Quad. conv. algorithm                .... NR
   White noise on init. David. guess    .... on
   Maximum white noise                  ....   0.010
   Pseudo random numbers                .... off
   Inactive MOs                         .... canonical
   Orbital update algorithm             .... Taylor
   Preconditioner                       .... Diag
   Full preconditioner red. dimension   ....   250
   COSX micro iterations for RIJONX calc.... off
 SOSCF                  CNVSOSCF        .... on
   Start iteration      SOSCFMaxIt      ....   150
   Startup grad/error   SOSCFStart      ....  0.003300
   Hessian update       SOSCFHessUp     .... L-BFGS
 Level Shifting         CNVShift        .... on
   Level shift para.    LevelShift      ....    0.2500
   Turn off err/grad.   ShiftErr        ....    0.0010
 Zerner damping         CNVZerner       .... off
 Static damping         CNVDamp         .... on
   Fraction old density DampFac         ....    0.7000
   Max. Damping (<1)    DampMax         ....    0.9800
   Min. Damping (>=0)   DampMin         ....    0.0000
   Turn off err/grad.   DampErr         ....    0.1000

SCF Procedure:
 Maximum # iterations   MaxIter         ....   125
 SCF integral mode      SCFMode         .... Direct
   Integral package                     .... SHARK and LIBINT hybrid scheme
 Reset frequency        DirectResetFreq ....    20
 Integral Threshold     Thresh          ....  1.000e-10 Eh
 Primitive CutOff       TCut            ....  1.000e-11 Eh

Convergence Tolerance:
 Convergence Check Mode ConvCheckMode   .... Total+1el-Energy
 Convergence forced     ConvForced      .... 0
 Energy Change          TolE            ....  1.000e-06 Eh
 1-El. energy change                    ....  1.000e-03 Eh
 Orbital Gradient       TolG            ....  3.330e-04
 Orbital Rotation angle TolX            ....  3.330e-04
 DIIS Error             TolErr          ....  1.000e-06

---------------------
INITIAL GUESS: MOREAD
---------------------
Guess MOs are being read from file: sp_gas.ges
Input Geometry matches current geometry (good)
Atom 0: N(Shells)= 9 and 6 - projection required
Input basis set needs projection
NBasis(read)= 92
NBasis(calc)= 155
Basis set overlap was calculated
Using GuessMode=FMatrix for the initial guess
C*T matrix was formed
Effective Fockian was calculated
Effective Fockian was diagonalized
Initial density was built
                      ------------------
                      INITIAL GUESS DONE (   0.0 sec)
                      ------------------
             **** ENERGY FILE WAS UPDATED (sp_gas.en.tmp) ****
Finished Guess after   0.2 sec
Maximum memory used throughout the entire GUESS-calculation: 10.5 MB

-------------------------------------------------------------------------------------------
                                      ORCA LEAN-SCF
                              memory conserving SCF solver
-------------------------------------------------------------------------------------------

----------------------------------------D-I-I-S--------------------------------------------
Iteration    Energy (Eh)           Delta-E    RMSDP     MaxDP     DIISErr   Damp  Time(sec)
-------------------------------------------------------------------------------------------
               ***  Starting incremental Fock matrix formation  ***
    1    -213.6049781242643064     0.00e+00  3.53e-03  8.14e-02  4.44e-01  0.700   1.8
    2    -213.6421344004400282    -3.72e-02  2.99e-03  6.82e-02  3.12e-01  0.700   1.7
    3    -213.6685181005617267    -2.64e-02  2.24e-03  4.98e-02  2.19e-01  0.700   1.7
                               ***Turning on AO-DIIS***
    4    -213.6870615993774720    -1.85e-02  1.65e-03  3.52e-02  1.53e-01  0.700   1.7
    5    -213.7000791492688734    -1.30e-02  1.19e-03  2.47e-02  1.07e-01  0.700   1.6
    6    -213.7092143794182277    -9.14e-03  8.46e-04  1.74e-02  7.49e-02  0.700   1.6
    7    -213.7156214928661768    -6.41e-03  2.00e-03  4.06e-02  5.24e-02  0.000   1.5
                              *** Initializing SOSCF ***
---------------------------------------S-O-S-C-F--------------------------------------
Iteration    Energy (Eh)           Delta-E    RMSDP     MaxDP     MaxGrad    Time(sec)
--------------------------------------------------------------------------------------
    8    -213.7306108849009263    -1.50e-02  2.01e-05  4.30e-04  2.77e-04     1.6
               *** Restarting incremental Fock matrix formation ***
    9    -213.7306110149414451    -1.30e-07  1.34e-05  2.93e-04  5.85e-05     1.7
                  *** Gradient check signals convergence ***

               *****************************************************
               *                     SUCCESS                       *
               *           SCF CONVERGED AFTER   9 CYCLES          *
               *****************************************************

             **** ENERGY FILE WAS UPDATED (sp_gas.en.tmp) ****

----------------
TOTAL SCF ENERGY
----------------

Total Energy       :       -213.73061101494145 Eh           -5815.90560 eV

Components:
Nuclear Repulsion  :        188.94740984823497 Eh            5141.52041 eV
Electronic Energy  :       -402.67802086317641 Eh          -10957.42601 eV
One Electron Energy:       -660.99004151261249 Eh          -17986.45344 eV
Two Electron Energy:        258.31202064943608 Eh            7029.02743 eV

Virial components:
Potential Energy   :       -426.46981043100828 Eh          -11604.83352 eV
Kinetic Energy     :        212.73919941606684 Eh            5788.92792 eV
Virial Ratio       :          2.00466022059684

DFT components:
N(Alpha)           :       20.999991866045 electrons
N(Beta)            :       20.999991866045 electrons
N(Total)           :       41.999983732089 electrons
E(X)               :      -31.380492739479 Eh       
E(C)               :       -1.297486144068 Eh       
E(XC)              :      -32.677978883547 Eh       

---------------
SCF CONVERGENCE
---------------

  Last Energy change         ...    1.3004e-07  Tolerance :   1.0000e-06
  Last MAX-Density change    ...    2.9323e-04  Tolerance :   1.0000e-05
  Last RMS-Density change    ...    1.3388e-05  Tolerance :   1.0000e-06
  Last DIIS Error            ...    2.7738e-04  Tolerance :   1.0000e-06
  Last Orbital Gradient      ...    5.8518e-05  Tolerance :   3.3300e-04
  Last Orbital Rotation      ...    1.1598e-04  Tolerance :   3.3300e-04


----------------
ORBITAL ENERGIES
----------------

  NO   OCC          E(Eh)            E(eV) 
   0   2.0000     -14.133370      -384.5886 
   1   2.0000     -10.046867      -273.3892 
   2   2.0000     -10.026609      -272.8379 
   3   2.0000     -10.021641      -272.7027 
   4   2.0000     -10.017642      -272.5939 
   5   2.0000      -0.846249       -23.0276 
   6   2.0000      -0.752238       -20.4694 
   7   2.0000      -0.672534       -18.3006 
   8   2.0000      -0.590864       -16.0782 
   9   2.0000      -0.543382       -14.7862 
  10   2.0000      -0.460945       -12.5429 
  11   2.0000      -0.435921       -11.8620 
  12   2.0000      -0.407112       -11.0781 
  13   2.0000      -0.386762       -10.5243 
  14   2.0000      -0.377237       -10.2651 
  15   2.0000      -0.347542        -9.4571 
  16   2.0000      -0.325315        -8.8523 
  17   2.0000      -0.313991        -8.5441 
  18   2.0000      -0.298430        -8.1207 
  19   2.0000      -0.291519        -7.9326 
  20   2.0000      -0.202956        -5.5227 
  21   0.0000       0.076703         2.0872 
  22   0.0000       0.103651         2.8205 
  23   0.0000       0.117135         3.1874 
  24   0.0000       0.125890         3.4256 
  25   0.0000       0.136716         3.7202 
  26   0.0000       0.146374         3.9830 
  27   0.0000       0.152438         4.1480 
  28   0.0000       0.169719         4.6183 
  29   0.0000       0.176424         4.8007 
  30   0.0000       0.191136         5.2011 
  31   0.0000       0.200594         5.4584 
*Only the first 10 virtual orbitals were printed.

                    ********************************
                    * MULLIKEN POPULATION ANALYSIS *
                    ********************************

-----------------------
MULLIKEN ATOMIC CHARGES
-----------------------
   0 C :   -0.471873
   1 C :   -0.251559
   2 C :   -0.224041
   3 C :   -0.257941
   4 N :   -0.551425
   5 H :    0.142666
   6 H :    0.146108
   7 H :    0.141016
   8 H :    0.132168
   9 H :    0.139896
  10 H :    0.133035
  11 H :    0.134259
  12 H :    0.151071
  13 H :    0.148692
  14 H :    0.247579
  15 H :    0.240348
Sum of atomic charges:   -0.0000000

--------------------------------
MULLIKEN REDUCED ORBITAL CHARGES
--------------------------------
  0 C s       :     3.331725  s :     3.331725
      pz      :     1.087197  p :     3.112933
      px      :     0.961408
      py      :     1.064327
      dz2     :     0.004821  d :     0.027216
      dxz     :     0.007862
      dyz     :     0.002498
      dx2y2   :     0.008105
      dxy     :     0.003930

  1 C s       :     3.216541  s :     3.216541
      pz      :     1.003180  p :     2.997949
      px      :     0.933374
      py      :     1.061394
      dz2     :     0.008203  d :     0.037070
      dxz     :     0.009118
      dyz     :     0.004259
      dx2y2   :     0.010226
      dxy     :     0.005263

  2 C s       :     3.205714  s :     3.205714
      pz      :     0.997388  p :     2.982339
      px      :     0.930690
      py      :     1.054261
      dz2     :     0.008169  d :     0.035989
      dxz     :     0.008732
      dyz     :     0.003947
      dx2y2   :     0.010119
      dxy     :     0.005022

  3 C s       :     3.315493  s :     3.315493
      pz      :     0.944588  p :     2.892591
      px      :     0.935206
      py      :     1.012797
      dz2     :     0.010374  d :     0.049857
      dxz     :     0.014595
      dyz     :     0.005801
      dx2y2   :     0.013158
      dxy     :     0.005928

  4 N s       :     3.529170  s :     3.529170
      pz      :     1.113127  p :     3.987436
      px      :     1.656170
      py      :     1.218140
      dz2     :     0.006047  d :     0.034819
      dxz     :     0.014405
      dyz     :    -0.000765
      dx2y2   :     0.012453
      dxy     :     0.002678

  5 H s       :     0.839068  s :     0.839068
      pz      :     0.008874  p :     0.018266
      px      :     0.004574
      py      :     0.004819

  6 H s       :     0.835579  s :     0.835579
      pz      :     0.007707  p :     0.018313
      px      :     0.006452
      py      :     0.004154

  7 H s       :     0.840710  s :     0.840710
      pz      :     0.003812  p :     0.018274
      px      :     0.003582
      py      :     0.010880

  8 H s       :     0.849773  s :     0.849773
      pz      :     0.008984  p :     0.018058
      px      :     0.004396
      py      :     0.004678

  9 H s       :     0.842293  s :     0.842293
      pz      :     0.003607  p :     0.017811
      px      :     0.003397
      py      :     0.010807

 10 H s       :     0.849012  s :     0.849012
      pz      :     0.009080  p :     0.017953
      px      :     0.004427
      py      :     0.004446

 11 H s       :     0.847898  s :     0.847898
      pz      :     0.003575  p :     0.017843
      px      :     0.003399
      py      :     0.010868

 12 H s       :     0.831560  s :     0.831560
      pz      :     0.008302  p :     0.017369
      px      :     0.005505
      py      :     0.003563

 13 H s       :     0.833918  s :     0.833918
      pz      :     0.003096  p :     0.017390
      px      :     0.003270
      py      :     0.011025

 14 H s       :     0.720397  s :     0.720397
      pz      :     0.014112  p :     0.032024
      px      :     0.011260
      py      :     0.006652

 15 H s       :     0.727846  s :     0.727846
      pz      :     0.005090  p :     0.031806
      px      :     0.009427
      py      :     0.017289


------------------------
MULLIKEN OVERLAP CHARGES
------------------------
B(  0-C ,  1-C ) :   0.4653 B(  0-C ,  2-C ) :  -0.1549 B(  0-C ,  5-H ) :   0.8631 
B(  0-C ,  6-H ) :   0.8090 B(  0-C ,  7-H ) :   0.8487 B(  0-C ,  9-H ) :  -0.0612 
B(  1-C ,  2-C ) :   0.3042 B(  1-C ,  3-C ) :  -0.1371 B(  1-C ,  4-N ) :   0.0551 
B(  1-C ,  5-H ) :  -0.1005 B(  1-C ,  6-H ) :  -0.0815 B(  1-C ,  7-H ) :  -0.0896 
B(  1-C ,  8-H ) :   0.8417 B(  1-C ,  9-H ) :   0.8407 B(  1-C , 10-H ) :  -0.0527 
B(  1-C , 11-H ) :  -0.0959 B(  2-C ,  3-C ) :   0.3716 B(  2-C ,  4-N ) :  -0.2038 
B(  2-C ,  8-H ) :  -0.0827 B(  2-C ,  9-H ) :  -0.0936 B(  2-C , 10-H ) :   0.7942 
B(  2-C , 11-H ) :   0.8403 B(  2-C , 12-H ) :  -0.1494 B(  2-C , 13-H ) :  -0.1441 
B(  3-C ,  4-N ) :   0.4246 B(  3-C , 10-H ) :  -0.0850 B(  3-C , 12-H ) :   0.9034 
B(  3-C , 13-H ) :   0.9404 B(  3-C , 14-H ) :  -0.0626 B(  4-N , 12-H ) :  -0.1037 
B(  4-N , 13-H ) :  -0.1358 B(  4-N , 14-H ) :   0.7087 B(  4-N , 15-H ) :   0.6776 
B(  5-H ,  7-H ) :  -0.0523 B(  8-H ,  9-H ) :  -0.0525 


                     *******************************
                     * LOEWDIN POPULATION ANALYSIS *
                     *******************************

----------------------
LOEWDIN ATOMIC CHARGES
----------------------
   0 C :   -0.424034
   1 C :   -0.321727
   2 C :   -0.307278
   3 C :   -0.084681
   4 N :   -0.732399
   5 H :    0.149889
   6 H :    0.149668
   7 H :    0.149843
   8 H :    0.147651
   9 H :    0.152106
  10 H :    0.155699
  11 H :    0.152976
  12 H :    0.172398
  13 H :    0.172003
  14 H :    0.234021
  15 H :    0.233864

-------------------------------
LOEWDIN REDUCED ORBITAL CHARGES
-------------------------------
  0 C s       :     2.974412  s :     2.974412
      pz      :     1.153926  p :     3.385876
      px      :     1.083362
      py      :     1.148588
      dz2     :     0.011903  d :     0.063746
      dxz     :     0.018058
      dyz     :     0.006273
      dx2y2   :     0.019218
      dxy     :     0.008293

  1 C s       :     2.940301  s :     2.940301
      pz      :     1.108347  p :     3.301070
      px      :     1.060028
      py      :     1.132695
      dz2     :     0.018201  d :     0.080356
      dxz     :     0.019697
      dyz     :     0.009213
      dx2y2   :     0.023008
      dxy     :     0.010236

  2 C s       :     2.949158  s :     2.949158
      pz      :     1.097428  p :     3.279906
      px      :     1.053435
      py      :     1.129043
      dz2     :     0.017914  d :     0.078214
      dxz     :     0.019031
      dyz     :     0.008476
      dx2y2   :     0.022632
      dxy     :     0.010161

  3 C s       :     2.869015  s :     2.869015
      pz      :     1.014007  p :     3.104065
      px      :     1.029112
      py      :     1.060946
      dz2     :     0.024056  d :     0.111601
      dxz     :     0.032859
      dyz     :     0.011992
      dx2y2   :     0.030762
      dxy     :     0.011932

  4 N s       :     3.245136  s :     3.245136
      pz      :     1.231248  p :     4.173189
      px      :     1.638555
      py      :     1.303387
      dz2     :     0.101852  d :     0.314074
      dxz     :     0.079521
      dyz     :     0.042942
      dx2y2   :     0.065591
      dxy     :     0.024168

  5 H s       :     0.806827  s :     0.806827
      pz      :     0.021758  p :     0.043284
      px      :     0.010381
      py      :     0.011144

  6 H s       :     0.806833  s :     0.806833
      pz      :     0.018852  p :     0.043499
      px      :     0.015346
      py      :     0.009300

  7 H s       :     0.806889  s :     0.806889
      pz      :     0.008301  p :     0.043267
      px      :     0.007958
      py      :     0.027008

  8 H s       :     0.808866  s :     0.808866
      pz      :     0.021914  p :     0.043483
      px      :     0.010525
      py      :     0.011043

  9 H s       :     0.804872  s :     0.804872
      pz      :     0.008320  p :     0.043022
      px      :     0.007963
      py      :     0.026739

 10 H s       :     0.800379  s :     0.800379
      pz      :     0.022278  p :     0.043922
      px      :     0.011184
      py      :     0.010461

 11 H s       :     0.804126  s :     0.804126
      pz      :     0.008111  p :     0.042897
      px      :     0.007992
      py      :     0.026795

 12 H s       :     0.787783  s :     0.787783
      pz      :     0.018110  p :     0.039819
      px      :     0.013629
      py      :     0.008080

 13 H s       :     0.788183  s :     0.788183
      pz      :     0.007248  p :     0.039815
      px      :     0.007258
      py      :     0.025308

 14 H s       :     0.680100  s :     0.680100
      pz      :     0.038197  p :     0.085879
      px      :     0.031437
      py      :     0.016245

 15 H s       :     0.680956  s :     0.680956
      pz      :     0.012724  p :     0.085180
      px      :     0.024915
      py      :     0.047541


---------------------------------
LOEWDIN BOND ORDERS (THRESH 0.050000)
---------------------------------
B(  0-C ,  1-C ) :   1.1455 B(  0-C ,  2-C ) :   0.0759 B(  0-C ,  5-H ) :   0.9292 
B(  0-C ,  6-H ) :   0.9305 B(  0-C ,  7-H ) :   0.9300 B(  1-C ,  2-C ) :   1.1008 
B(  1-C ,  3-C ) :   0.0673 B(  1-C ,  8-H ) :   0.8941 B(  1-C ,  9-H ) :   0.8955 
B(  2-C ,  3-C ) :   1.0436 B(  2-C ,  4-N ) :   0.1629 B(  2-C , 10-H ) :   0.8861 
B(  2-C , 11-H ) :   0.8909 B(  3-C ,  4-N ) :   1.4416 B(  3-C , 12-H ) :   0.8311 
B(  3-C , 13-H ) :   0.8314 B(  4-N , 12-H ) :   0.0995 B(  4-N , 13-H ) :   0.0964 
B(  4-N , 14-H ) :   0.9417 B(  4-N , 15-H ) :   0.9429 

------------------------------------------
LOEWDIN REDUCED ORBITAL POPULATIONS PER MO
-------------------------------------------
THRESHOLD FOR PRINTING IS 0.1%%
                      0         1         2         3         4         5   
                 -14.13337 -10.04687 -10.02661 -10.02164 -10.01764  -0.84625
                   2.00000   2.00000   2.00000   2.00000   2.00000   2.00000
                  --------  --------  --------  --------  --------  --------
 0 C  s               0.0       0.0       0.0       0.0      99.7       0.1
 0 C  px              0.0       0.0       0.1       0.0       0.0       0.1
 1 C  s               0.0       0.0      99.7       0.0       0.0       0.9
 1 C  pz              0.0       0.0       0.0       0.0       0.0       0.2
 1 C  px              0.0       0.0       0.0       0.0       0.1       0.5
 2 C  s               0.0       0.0       0.0      99.7       0.0       3.7
 2 C  pz              0.0       0.0       0.0       0.0       0.0       0.4
 2 C  px              0.0       0.1       0.0       0.0       0.0       1.7
 2 C  py              0.0       0.0       0.0       0.0       0.0       0.1
 3 C  s               0.0      99.4       0.0       0.0       0.0      16.1
 3 C  pz              0.0       0.0       0.0       0.0       0.0       3.9
 3 C  px              0.0       0.0       0.0       0.1       0.0       0.6
 3 C  py              0.0       0.0       0.0       0.0       0.0       1.4
 3 C  dxz             0.0       0.0       0.0       0.0       0.0       0.2
 3 C  dyz             0.0       0.0       0.0       0.0       0.0       0.1
 4 N  s              99.8       0.0       0.0       0.0       0.0      43.5
 4 N  pz              0.0       0.1       0.0       0.0       0.0       0.6
 4 N  px              0.0       0.0       0.0       0.0       0.0       2.1
 4 N  dxz             0.0       0.1       0.0       0.0       0.0       0.2
 4 N  dyz             0.0       0.1       0.0       0.0       0.0       0.1
 8 H  s               0.0       0.0       0.0       0.0       0.0       0.1
10 H  s               0.0       0.0       0.0       0.0       0.0       0.3
11 H  s               0.0       0.0       0.0       0.0       0.0       0.4
12 H  s               0.0       0.0       0.0       0.0       0.0       1.6
12 H  pz              0.0       0.0       0.0       0.0       0.0       0.1
13 H  s               0.0       0.0       0.0       0.0       0.0       1.6
13 H  py              0.0       0.0       0.0       0.0       0.0       0.2
14 H  s               0.0       0.0       0.0       0.0       0.0       8.1
14 H  pz              0.0       0.0       0.0       0.0       0.0       0.9
14 H  px              0.0       0.0       0.0       0.0       0.0       0.2
15 H  s               0.0       0.0       0.0       0.0       0.0       8.1
15 H  py              0.0       0.0       0.0       0.0       0.0       1.1

                      6         7         8         9        10        11   
                  -0.75224  -0.67253  -0.59086  -0.54338  -0.46094  -0.43592
                   2.00000   2.00000   2.00000   2.00000   2.00000   2.00000
                  --------  --------  --------  --------  --------  --------
 0 C  s              15.7      17.9      11.9       2.0       0.1       0.0
 0 C  pz              0.0       0.1       0.1       1.7       0.9       2.4
 0 C  px              2.9       0.1       4.4       2.4       0.9       0.1
 0 C  py              0.2       0.0       0.4       1.2       0.0      10.6
 1 C  s              26.7       1.5       6.9       8.8       0.7       0.0
 1 C  pz              1.1       1.2       0.1       7.2       1.8       5.1
 1 C  px              0.2       8.5       5.0       0.2       0.4       2.0
 1 C  py              0.4       0.1       0.2       3.1       0.4      19.2
 1 C  dxz             0.0       0.1       0.0       0.0       0.0       0.0
 2 C  s              16.0      13.5       1.7       9.3       0.2       0.0
 2 C  pz              1.2       0.7       1.4       6.0       0.0       5.7
 2 C  px              1.9       3.0       5.0       0.3       0.4       1.2
 2 C  py              0.2       0.1       0.2       4.1       3.3      12.1
 3 C  s               0.8       9.3      12.3       3.4       0.0       0.1
 3 C  pz              0.7       2.5       1.7       0.3       4.7       2.9
 3 C  px              4.1       3.3       1.3       2.2       3.9       0.0
 3 C  py              0.0       0.0       1.1       3.9      11.2       0.7
 4 N  s               4.1       4.8       1.4       0.4       0.0       0.3
 4 N  pz              0.2       2.7       6.4       2.0      18.7       0.1
 4 N  px              0.1       0.3       0.1       0.2       3.3       2.8
 4 N  py              0.1       1.0       2.5       4.1      18.6       4.9
 4 N  dz2             0.0       0.1       0.4       0.1       0.0       0.0
 4 N  dxz             0.1       0.8       0.5       0.0       0.3       0.0
 4 N  dyz             0.0       0.2       0.5       0.3       0.0       0.0
 4 N  dx2y2           0.1       0.1       0.0       0.0       0.2       0.4
 4 N  dxy             0.0       0.0       0.1       0.2       0.3       0.0
 5 H  s               2.2       3.6       4.1       1.6       0.6       2.3
 5 H  pz              0.1       0.2       0.2       0.1       0.0       0.1
 6 H  s               2.2       4.0       4.5       0.5       0.0       0.0
 6 H  pz              0.1       0.2       0.2       0.0       0.0       0.0
 6 H  px              0.1       0.1       0.1       0.0       0.0       0.0
 7 H  s               2.2       3.6       4.0       1.7       0.1       3.3
 7 H  py              0.2       0.3       0.3       0.1       0.0       0.1
 8 H  s               3.7       0.4       2.6       5.3       1.0       4.9
 8 H  pz              0.3       0.0       0.2       0.2       0.0       0.2
 8 H  py              0.1       0.0       0.0       0.1       0.0       0.0
 9 H  s               3.7       0.3       2.1       6.0       0.0       6.0
 9 H  py              0.3       0.0       0.2       0.4       0.0       0.2
10 H  s               2.4       3.0       0.3       5.4       0.7       4.4
10 H  pz              0.2       0.2       0.0       0.2       0.0       0.1
10 H  py              0.0       0.0       0.0       0.1       0.0       0.0
11 H  s               2.2       2.6       0.6       6.7       0.5       3.6
11 H  py              0.2       0.2       0.0       0.4       0.0       0.1
12 H  s               0.1       2.2       5.5       1.2       3.7       0.4
12 H  pz              0.0       0.1       0.3       0.1       0.2       0.0
12 H  px              0.0       0.1       0.1       0.0       0.0       0.0
13 H  s               0.1       2.1       4.4       3.5       3.4       0.1
13 H  py              0.0       0.2       0.3       0.2       0.1       0.0
14 H  s               0.9       1.8       1.8       0.3      10.5       0.2
14 H  pz              0.1       0.2       0.1       0.0       0.4       0.0
14 H  px              0.0       0.1       0.1       0.0       0.1       0.0
15 H  s               1.0       1.7       1.3       1.6       7.3       2.7
15 H  pz              0.0       0.0       0.1       0.0       0.1       0.0
15 H  py              0.1       0.2       0.1       0.1       0.3       0.1

                     12        13        14        15        16        17   
                  -0.40711  -0.38676  -0.37724  -0.34754  -0.32532  -0.31399
                   2.00000   2.00000   2.00000   2.00000   2.00000   2.00000
                  --------  --------  --------  --------  --------  --------
 0 C  s               0.1       0.1       0.0       0.0       0.1       0.8
 0 C  pz             12.8       1.7       6.4      21.9       1.5       2.2
 0 C  px              7.8       8.8       0.1       0.5       0.2      22.6
 0 C  py              0.2       5.5      13.7       3.6      15.8       0.2
 0 C  dz2             0.0       0.1       0.0       0.0       0.0       0.1
 0 C  dxz             0.0       0.0       0.0       0.3       0.0       0.0
 0 C  dyz             0.0       0.0       0.0       0.1       0.0       0.0
 0 C  dx2y2           0.0       0.0       0.1       0.0       0.4       0.1
 0 C  dxy             0.0       0.0       0.0       0.0       0.0       0.1
 1 C  s               0.4       0.2       0.0       0.1       0.1       0.3
 1 C  pz             11.9       0.7       1.4       0.3       1.4       4.7
 1 C  px              0.5       2.7       7.3       0.1       0.9      18.1
 1 C  py              1.5       5.5       0.9       0.1       7.0       0.9
 1 C  dz2             0.0       0.0       0.0       0.0       0.0       0.2
 1 C  dxz             0.0       0.0       0.0       0.2       0.0       0.0
 1 C  dx2y2           0.0       0.0       0.0       0.0       0.3       0.3
 1 C  dxy             0.0       0.1       0.0       0.0       0.0       0.2
 2 C  s               0.1       0.3       0.2       0.5       0.1       0.2
 2 C  pz              0.4       8.1       8.8       2.0       3.8       0.4
 2 C  px             13.8       2.8       0.1       4.1       0.6       5.8
 2 C  py              0.9       0.1       9.1       4.8       3.7       2.9
 2 C  dz2             0.0       0.0       0.0       0.1       0.1       0.2
 2 C  dyz             0.0       0.1       0.0       0.0       0.0       0.0
 2 C  dx2y2           0.0       0.0       0.1       0.0       0.1       0.4
 3 C  s               0.1       0.4       0.1       0.3       0.1       0.9
 3 C  pz              4.2      13.0       0.1       9.5       0.6       0.1
 3 C  px             12.0       2.9       5.1       0.2       0.5       8.0
 3 C  py              0.1       7.2       2.9       1.1      14.5       4.4
 3 C  dz2             0.0       0.0       0.2       0.0       0.3       0.0
 3 C  dxz             0.1       0.1       0.1       0.3       0.0       0.0
 3 C  dx2y2           0.0       0.0       0.0       0.0       0.3       0.0
 4 N  s               0.5       0.4       0.2       0.6       0.1       0.4
 4 N  pz              9.3       8.7       0.0       9.7       0.1       0.1
 4 N  px              0.4       4.1       0.5       0.7       1.4       6.1
 4 N  py              5.8       0.2      12.9       0.1       4.1       0.3
 4 N  dz2             0.0       0.5       0.7       0.9       1.0       0.0
 4 N  dxz             0.1       0.5       0.1       0.1       0.1       0.4
 4 N  dyz             0.1       0.2       0.1       0.0       0.3       0.1
 4 N  dx2y2           0.1       0.5       0.1       0.1       0.6       0.2
 4 N  dxy             0.0       0.0       0.1       0.1       0.1       0.0
 5 H  s               0.8       4.5       0.4      10.8       0.2       3.7
 5 H  pz              0.0       0.1       0.0       0.1       0.0       0.0
 5 H  px              0.1       0.0       0.0       0.1       0.0       0.1
 5 H  py              0.0       0.0       0.1       0.0       0.1       0.0
 6 H  s               8.7       1.1       3.1       6.7       2.2       1.1
 6 H  pz              0.1       0.1       0.0       0.0       0.0       0.1
 6 H  px              0.1       0.0       0.1       0.1       0.1       0.1
 6 H  py              0.0       0.0       0.0       0.1       0.1       0.0
 7 H  s               0.1       1.5       7.5       0.9      10.1       0.1
 7 H  pz              0.1       0.0       0.0       0.2       0.0       0.0
 7 H  px              0.1       0.1       0.0       0.0       0.0       0.2
 7 H  py              0.0       0.0       0.2       0.0       0.1       0.0
 8 H  s               2.1       1.1       0.0       0.6       0.2       5.4
 9 H  s               0.5       1.3       0.4       0.0       4.9       0.9
 9 H  px              0.0       0.0       0.1       0.0       0.0       0.2
10 H  s               0.0       3.3       1.5       5.8       2.5       0.8
10 H  pz              0.0       0.0       0.0       0.2       0.0       0.0
10 H  px              0.1       0.0       0.0       0.0       0.0       0.0
10 H  py              0.0       0.0       0.1       0.0       0.0       0.1
11 H  s               0.1       0.1       5.2       1.0       2.4       2.6
11 H  px              0.1       0.0       0.0       0.0       0.0       0.1
11 H  py              0.0       0.0       0.1       0.0       0.0       0.0
12 H  s               0.0       5.7       0.6       6.1       1.6       0.5
12 H  px              0.1       0.1       0.0       0.1       0.0       0.1
12 H  py              0.0       0.1       0.0       0.0       0.1       0.1
13 H  s               0.0       2.3       2.2       0.4      11.4       1.3
13 H  pz              0.0       0.1       0.0       0.1       0.0       0.0
13 H  py              0.0       0.0       0.0       0.0       0.1       0.0
14 H  s               1.5       2.0       1.0       3.5       0.5       0.2
14 H  px              0.0       0.1       0.0       0.0       0.0       0.0
14 H  py              0.1       0.0       0.1       0.0       0.0       0.0
15 H  s               1.1       0.3       4.9       0.1       2.5       0.0
15 H  pz              0.1       0.1       0.0       0.1       0.0       0.0
15 H  py              0.0       0.0       0.1       0.0       0.0       0.0

                     18        19        20        21        22        23   
                  -0.29843  -0.29152  -0.20296   0.07670   0.10365   0.11714
                   2.00000   2.00000   2.00000   0.00000   0.00000   0.00000
                  --------  --------  --------  --------  --------  --------
 0 C  s               0.0       0.0       0.1       0.7      26.7       0.9
 0 C  pz              1.0       5.1       0.1       0.0       0.2       1.2
 0 C  px              0.2       2.7       0.3       2.8       1.5       0.4
 0 C  py              5.8       0.1       0.0       0.1       0.2       0.4
 0 C  dz2             0.1       0.0       0.0       0.0       0.1       0.0
 0 C  dxz             0.1       0.4       0.0       0.1       0.1       0.0
 0 C  dyz             0.1       0.0       0.0       0.0       0.0       0.1
 0 C  dx2y2           0.2       0.1       0.0       0.0       0.2       0.0
 0 C  dxy             0.1       0.0       0.0       0.0       0.2       0.1
 1 C  s               0.0       0.5       0.1       4.5      13.1       0.5
 1 C  pz              2.6      15.5       0.2       2.6       2.9       6.9
 1 C  px              1.0       5.5       0.2       5.1       5.0       1.0
 1 C  py             16.7       0.6       0.1       1.2       0.2       1.3
 1 C  dz2             0.5       0.0       0.0       0.0       0.2       0.7
 1 C  dxz             0.0       0.4       0.0       0.2       0.0       0.0
 1 C  dyz             0.2       0.0       0.0       0.0       0.0       0.2
 1 C  dx2y2           0.3       0.1       0.0       0.2       0.4       0.0
 1 C  dxy             0.0       0.0       0.0       0.2       0.2       0.0
 2 C  s               0.1       0.6       1.2       1.9       1.4      13.2
 2 C  pz              1.3      14.4       0.4       0.1       1.6       7.1
 2 C  px              0.4       4.1       7.5       0.5       9.7       3.3
 2 C  py             12.7       1.7       0.5       1.2       0.2       0.4
 2 C  dz2             0.4       0.0       0.0       0.0       0.6       0.3
 2 C  dxz             0.0       0.5       0.0       0.2       0.3       0.0
 2 C  dyz             0.2       0.0       0.0       0.0       0.1       0.1
 2 C  dx2y2           0.3       0.1       0.0       0.0       0.0       0.5
 2 C  dxy             0.0       0.0       0.0       0.2       0.3       0.1
 3 C  s               0.1       0.0       0.0       6.8       2.4       9.1
 3 C  pz              0.1       5.9       0.3       6.8       0.4      13.6
 3 C  px              0.0       3.2       4.1       3.0       1.1       0.6
 3 C  py              1.9       2.2       0.3       3.1       0.2       1.3
 3 C  dz2             0.0       0.1       0.2       0.2       0.0       0.3
 3 C  dxz             0.0       0.4       0.4       0.5       0.0       0.0
 3 C  dyz             0.0       0.0       0.1       0.7       0.1       0.1
 3 C  dx2y2           0.1       0.2       0.6       0.0       0.0       0.0
 4 N  s               0.0       0.0       5.6      12.5       0.2       1.7
 4 N  pz              1.0       2.0       0.0       1.6       0.1       0.4
 4 N  px              0.5       0.6      58.8       2.1       0.4       0.4
 4 N  py              0.2       0.8       9.5       0.7       0.2       1.2
 4 N  dz2             0.0       1.3       0.1       0.0       0.4       2.9
 4 N  dxz             0.1       0.1       0.6       2.4       0.0       0.0
 4 N  dyz             0.0       0.0       0.1       2.9       0.1       0.7
 4 N  dx2y2           0.2       0.2       0.4       0.6       0.9       0.0
 4 N  dxy             0.0       0.1       0.0       0.4       0.0       1.1
 5 H  s               3.9       1.6       0.1       0.0       2.8       1.2
 5 H  pz              0.0       0.0       0.0       0.0       1.4       0.1
 5 H  px              0.0       0.0       0.0       0.2       0.0       0.0
 5 H  py              0.0       0.0       0.0       0.0       0.5       0.4
 6 H  s               0.0       5.9       0.3       0.2       3.6       0.1
 6 H  pz              0.0       0.0       0.0       0.0       1.8       0.0
 6 H  px              0.0       0.0       0.0       0.0       0.2       0.0
 6 H  py              0.0       0.0       0.0       0.0       0.4       0.0
 7 H  s               5.0       0.3       0.0       0.0       3.5       0.4
 7 H  pz              0.0       0.0       0.0       0.0       0.0       0.1
 7 H  px              0.0       0.0       0.0       0.1       0.2       0.1
 7 H  py              0.0       0.0       0.0       0.0       1.9       0.1
 8 H  s               9.9       3.2       0.1       1.5       2.3       0.2
 8 H  pz              0.1       0.0       0.0       0.6       1.3       0.5
 8 H  px              0.0       0.1       0.0       0.5       0.0       0.0
 8 H  py              0.0       0.1       0.0       0.0       0.5       0.2
 9 H  s              13.2       0.7       0.0       0.4       1.8       1.1
 9 H  pz              0.0       0.2       0.0       0.0       0.0       0.2
 9 H  px              0.0       0.0       0.0       0.2       0.2       0.0
 9 H  py              0.1       0.0       0.0       0.1       1.2       0.2
10 H  s               6.1       2.5       0.9       0.7       0.4       4.3
10 H  pz              0.1       0.0       0.0       0.1       0.0       2.0
10 H  px              0.0       0.1       0.1       0.1       0.5       0.0
10 H  py              0.0       0.1       0.0       0.0       0.1       1.1
11 H  s              10.5       1.6       0.0       0.6       0.6       2.7
11 H  pz              0.0       0.1       0.0       0.0       0.2       0.1
11 H  px              0.0       0.0       0.1       0.2       0.4       0.2
11 H  py              0.0       0.0       0.0       0.2       0.2       1.5
12 H  s               0.0       8.6       1.6       1.5       0.2       2.8
12 H  pz              0.0       0.0       0.0       0.1       0.1       1.7
12 H  px              0.0       0.0       0.0       0.4       0.0       0.1
12 H  py              0.0       0.0       0.0       0.6       0.0       0.0
13 H  s               2.3       3.5       0.8       1.7       0.2       0.9
13 H  pz              0.0       0.0       0.0       0.7       0.1       0.0
13 H  px              0.0       0.0       0.0       0.0       0.1       0.1
13 H  py              0.0       0.0       0.0       0.3       0.1       0.6
14 H  s               0.0       1.0       0.8       9.5       0.2       2.9
14 H  pz              0.0       0.0       0.1       2.4       0.1       1.1
14 H  px              0.0       0.0       0.8       0.8       0.0       0.1
14 H  py              0.0       0.0       0.2       0.4       0.0       0.0
15 H  s               0.1       0.6       0.7       6.7       0.3       0.1
15 H  pz              0.0       0.0       0.0       0.2       0.0       0.0
15 H  px              0.0       0.0       1.0       0.1       0.0       0.0
15 H  py              0.0       0.0       0.0       2.5       0.1       0.0

                     24        25        26        27        28        29   
                   0.12589   0.13672   0.14637   0.15244   0.16972   0.17642
                   0.00000   0.00000   0.00000   0.00000   0.00000   0.00000
                  --------  --------  --------  --------  --------  --------
 0 C  s               3.4       1.0       7.3       0.6       0.8       0.2
 0 C  pz              0.1       5.9       0.5       2.2       3.3      13.2
 0 C  px              3.1       2.0      24.9       7.2       2.0       0.2
 0 C  py              2.6       1.1       1.8       5.1       5.2       7.4
 0 C  dz2             0.1       0.3       0.2       0.2       0.1       0.1
 0 C  dxz             0.1       0.2       0.4       0.3       0.0       0.0
 0 C  dyz             0.0       0.3       0.0       0.0       0.2       0.0
 0 C  dx2y2           0.0       0.4       0.6       0.8       0.0       0.2
 0 C  dxy             0.3       0.0       0.2       0.1       0.3       0.2
 1 C  s               2.9       3.6       3.4       3.0       0.3       2.8
 1 C  pz              1.0       3.6       1.0       7.6       9.1       3.7
 1 C  px              2.6       1.5       2.9       1.9       1.2       0.5
 1 C  py              8.9       2.1       3.9       0.3       3.2       7.3
 1 C  dz2             0.2       0.0       0.0       0.2       0.7       0.0
 1 C  dxz             0.1       0.0       0.2       1.0       0.1       0.0
 1 C  dyz             0.3       0.8       0.0       0.5       0.1       0.2
 1 C  dx2y2           0.1       0.1       0.5       0.2       0.8       0.9
 1 C  dxy             0.1       0.3       0.1       0.1       0.0       0.0
 2 C  s               0.4       1.5       2.0       5.4       5.5       1.2
 2 C  pz              0.8      16.8       0.1       7.3       0.0       3.7
 2 C  px              0.4       4.9       1.0       1.2       0.5       2.4
 2 C  py              9.4       5.1       5.1       1.8       0.5       0.0
 2 C  dz2             0.1       0.1       0.2       0.4       0.1       0.1
 2 C  dxz             0.0       0.0       0.0       1.7       0.0       0.3
 2 C  dyz             0.0       0.6       0.1       0.4       0.2       0.0
 2 C  dx2y2           0.2       0.6       0.8       0.0       0.0       0.0
 2 C  dxy             0.0       0.5       0.2       0.0       0.0       0.2
 3 C  s               1.5       1.2       1.8       0.0       7.5       0.2
 3 C  pz              0.5       2.3       1.0       2.7       9.3       2.2
 3 C  px              1.4       3.2       4.1      10.2      10.9       1.8
 3 C  py             15.1       3.4       4.3       0.8       3.7       4.5
 3 C  dz2             0.1       0.3       0.3       0.0       0.0       0.7
 3 C  dxz             0.0       0.6       0.0       1.0       0.0       0.1
 3 C  dyz             0.1       0.3       0.2       0.0       0.2       0.0
 3 C  dx2y2           0.4       0.0       0.5       0.5       0.1       0.1
 3 C  dxy             0.1       0.1       0.4       0.7       0.0       0.1
 4 N  s               1.4       0.0       1.8       1.2       0.9       0.5
 4 N  pz              1.1       1.4       0.7       2.0       1.0       0.8
 4 N  px              0.5       0.1       1.0       0.2       0.6       0.9
 4 N  py              5.3       0.9       0.0       0.2       1.1       4.7
 4 N  dz2             1.0       0.1       0.0       0.6       0.5       2.4
 4 N  dxz             0.3       1.4       0.5       0.2       2.0       0.2
 4 N  dyz             0.6       0.1       0.2       2.9       0.3       0.6
 4 N  dx2y2           3.4       0.0       1.2       0.1       0.9       3.3
 4 N  dxy             0.3       5.4       0.2       0.3       0.0       0.4
 5 H  s               0.1       0.2       2.2       0.8       1.2       0.4
 5 H  pz              0.0       0.4       0.7       0.1       0.2       0.1
 5 H  px              0.1       0.0       0.9       0.0       0.0       0.0
 5 H  py              0.0       0.2       0.0       0.1       0.2       0.1
 6 H  s               0.5       5.3       0.7       1.3       0.8       1.1
 6 H  pz              0.0       0.5       0.0       0.0       0.1       0.4
 6 H  px              0.0       0.2       0.6       1.2       0.1       0.2
 6 H  py              0.0       0.0       0.1       0.1       0.1       0.0
 7 H  s               1.5       0.9       0.2       0.7       1.6       2.7
 7 H  pz              0.0       0.3       0.0       0.0       0.2       0.0
 7 H  px              0.1       0.0       0.4       0.1       0.2       0.1
 7 H  py              0.9       0.0       0.0       0.0       0.6       1.2
 8 H  s               0.2       5.0       0.4       3.3       0.5       0.1
 8 H  pz              0.0       0.7       0.6       0.1       0.7       0.0
 8 H  px              0.1       0.1       0.5       0.1       0.0       0.1
 8 H  py              0.0       1.3       0.0       0.3       0.4       0.1
 9 H  s               3.0       0.4       1.2       0.0       4.3       5.2
 9 H  pz              0.1       0.7       0.0       0.7       0.1       0.2
 9 H  px              0.3       0.2       0.3       0.1       0.1       0.0
 9 H  py              1.7       0.3       0.1       0.0       1.1       2.3
10 H  s               0.1       0.3       0.6       4.8       2.0       3.2
10 H  pz              0.2       0.5       0.0       0.1       0.8       1.0
10 H  px              0.0       0.4       0.0       0.3       0.3       0.3
10 H  py              0.0       0.6       0.0       0.1       0.1       0.1
11 H  s               2.2       0.9       4.9       1.7       0.1       0.2
11 H  pz              0.0       0.6       0.0       0.8       0.1       0.0
11 H  px              0.1       0.3       0.2       0.0       0.0       0.0
11 H  py              1.0       0.0       2.0       1.0       0.1       0.1
12 H  s               0.0       3.0       0.3       1.9       4.8       1.4
12 H  pz              0.0       0.3       0.0       0.0       1.9       0.6
12 H  px              0.0       0.0       0.0       1.3       1.0       0.0
12 H  py              0.0       0.4       0.2       0.3       0.0       0.1
13 H  s               3.5       0.2       4.3       2.4       0.4       0.5
13 H  pz              0.0       0.4       0.2       0.0       0.0       0.0
13 H  px              0.1       0.2       0.2       0.4       0.0       0.1
13 H  py              1.7       0.3       1.2       0.4       0.3       0.2
14 H  s               0.7       0.8       0.0       0.7       0.0       3.3
14 H  pz              0.1       0.2       0.0       0.1       0.1       1.2
14 H  px              0.1       0.1       0.0       0.1       0.1       0.1
15 H  s               8.5       0.1       0.6       0.6       1.5       3.7
15 H  pz              0.0       0.0       0.0       0.2       0.0       0.0
15 H  py              2.8       0.0       0.3       0.2       0.6       1.1

                     30        31        32        33        34        35   
                   0.19114   0.20059   0.20426   0.20809   0.22200   0.23358
                   0.00000   0.00000   0.00000   0.00000   0.00000   0.00000
                  --------  --------  --------  --------  --------  --------
 0 C  s               0.1       0.3       0.2       1.5       2.3       0.5
 0 C  pz              9.6       2.6      18.4       4.5       2.0       2.2
 0 C  px              2.5       5.0       5.1       2.0      10.2       0.2
 0 C  py             10.7       6.5       0.9      11.4       8.9      26.2
 0 C  dz2             1.7       0.4       0.4       0.6       0.5       0.1
 0 C  dxz             0.9       0.0       1.6       0.0       0.0       0.1
 0 C  dyz             2.0       0.2       0.0       0.1       0.2       0.3
 0 C  dx2y2           0.0       0.0       0.0       2.7       0.2       0.3
 0 C  dxy             0.0       0.0       0.0       0.2       0.7       0.1
 1 C  s               0.2       0.6       0.4       0.1       1.8       0.7
 1 C  pz              0.2       3.6       3.1       3.5       0.4       1.6
 1 C  px              0.1       2.1       1.7       3.8       7.8       5.9
 1 C  py              1.8       1.7       5.7       1.0       1.1       6.5
 1 C  dz2             0.3       0.0       0.2       0.1       0.5       1.6
 1 C  dxz             0.5       0.5       0.9       0.1       0.0       0.0
 1 C  dyz             0.3       0.1       0.2       0.1       0.0       0.2
 1 C  dx2y2           0.0       0.0       0.0       0.1       0.2       0.3
 1 C  dxy             0.4       0.0       0.0       0.1       0.7       0.1
 2 C  s               0.5       0.6       0.7       1.7       1.2       0.1
 2 C  pz              0.2       2.6       1.2       2.9       2.1       0.7
 2 C  px              0.8       0.7       2.1       1.6       4.9       0.7
 2 C  py              4.5       7.3       1.2       3.2       1.5       3.2
 2 C  dz2             0.7       0.2       0.1       0.3       0.4       0.7
 2 C  dxz             0.0       0.0       0.0       0.1       1.0       0.0
 2 C  dyz             0.4       0.1       0.0       0.2       0.3       0.0
 2 C  dx2y2           0.3       0.0       0.7       0.2       0.2       0.1
 2 C  dxy             0.1       0.0       0.4       0.0       0.1       0.3
 3 C  s               0.4       1.3       0.2       0.3       0.6       0.3
 3 C  pz              1.5       7.4       0.5       3.9       2.8       0.8
 3 C  px              0.2       0.2       4.8       0.1       2.5       0.1
 3 C  py              2.4      14.8       2.4       1.6       2.8       5.9
 3 C  dz2             0.0       0.1       0.2       0.0       0.1       0.4
 3 C  dxz             0.2       0.2       0.0       0.2       0.9       0.0
 3 C  dyz             0.2       0.1       0.1       0.7       0.1       0.0
 3 C  dx2y2           0.0       0.0       0.5       0.1       0.4       0.7
 3 C  dxy             0.2       0.0       0.7       0.0       0.2       0.1
 4 N  s               0.5       0.1       0.2       0.2       0.2       0.1
 4 N  pz              1.3       0.4       3.8       1.4       2.6       2.1
 4 N  px              0.6       1.5       0.1       0.0       0.8       0.1
 4 N  py              0.9       1.5       0.2       2.0       0.8       0.1
 4 N  dz2             1.0       0.2       0.2       0.0       0.0       2.0
 4 N  dxz             0.0       0.9       3.1       0.6       3.4       0.0
 4 N  dyz             0.5       2.1       2.3       0.1       0.0       3.3
 4 N  dx2y2           0.0       3.7       0.0       0.1       0.7       0.0
 4 N  dxy             0.9       2.4       2.2       1.6       0.2       0.0
 5 H  s              20.0       0.3       1.0       0.1       7.3       1.5
 5 H  pz              2.6       0.1       0.1       0.7       1.6       0.0
 5 H  px              0.2       0.0       1.3       0.1       0.0       0.1
 5 H  py              0.2       0.3       0.3       1.5       0.7       0.1
 6 H  s               2.4       0.9       7.9       2.4       2.7       0.4
 6 H  pz              0.1       0.1       1.8       0.2       1.7       0.0
 6 H  px              1.0       0.2       0.8       0.2       0.0       0.0
 6 H  py              1.9       0.0       0.0       0.5       0.2       0.3
 7 H  s               5.3       0.3       1.7      18.5       0.2       2.8
 7 H  pz              1.6       0.4       0.0       0.1       0.2       0.2
 7 H  px              0.0       0.0       0.1       0.0       0.7       0.1
 7 H  py              0.3       0.1       0.2       4.4       0.0       0.1
 8 H  s               0.4       3.6       3.2       0.6       3.1       2.6
 8 H  pz              0.3       0.4       0.4       0.3       0.6       0.2
 8 H  px              0.5       0.5       0.1       0.0       0.1       0.0
 8 H  py              0.0       0.3       0.2       0.0       0.3       0.4
 9 H  s               1.1       0.1       1.4       0.8       1.3       8.3
 9 H  pz              0.2       0.4       0.4       0.0       0.0       0.1
 9 H  px              0.3       0.0       0.0       0.0       0.3       0.4
 9 H  py              0.2       0.0       0.4       0.1       0.6       0.9
10 H  s               2.1       0.6       1.0       2.3       0.9       0.6
10 H  pz              0.8       0.6       0.4       0.3       0.0       0.3
10 H  px              0.1       0.0       0.1       0.1       1.1       0.3
10 H  py              0.0       0.0       0.0       0.8       0.2       0.5
11 H  s               2.0       3.0       1.9       2.0       0.0       2.7
[...]
 0 C  dx2y2           0.6       3.6       1.7       0.1       0.0       0.0
 0 C  dxy             0.7       0.0       1.1       0.0       0.0       0.0
 1 C  s               0.5       0.2       1.9       0.1       0.0       0.0
 1 C  pz              1.0       0.5       4.3       0.9       0.0       0.0
 1 C  px              3.7       0.2       1.8       0.4       0.1       0.0
 1 C  py              1.6       6.1       0.4       0.5       0.0       0.0
 1 C  dz2             3.0       5.6       1.7       1.9       0.0       0.0
 1 C  dxz             2.8       0.9       1.4       0.9       0.0       0.0
 1 C  dyz             0.1       2.9       2.1       1.0       0.0       0.0
 1 C  dx2y2           1.8       6.5       4.8       0.4       0.0       0.0
 1 C  dxy             0.4       0.0       1.0       0.3       0.0       0.0
 2 C  s               0.6       0.0       2.5       0.1       0.0       0.0
 2 C  pz              4.8       0.0       2.3       1.6       0.1       0.0
 2 C  px              1.1       0.1       1.7       0.1       0.0       0.0
 2 C  py              0.3       0.1       3.5       3.5       0.0       0.0
 2 C  dz2             0.1       0.1       0.2       5.3       0.0       0.0
 2 C  dxz             6.2       0.2       0.9       1.3       0.0       0.0
 2 C  dyz             2.5       0.1       0.3       1.9       0.1       0.0
 2 C  dx2y2           0.0       0.2       9.9       4.8       0.0       0.0
 2 C  dxy             0.2       0.2       1.6       0.0       0.0       0.0
 3 C  s               0.8       0.1       0.7       0.3       1.7       0.0
 3 C  pz              2.2       2.4       0.0       1.9       4.9       0.0
 3 C  px              0.6       0.4       4.5       0.3       1.3       0.0
 3 C  py              0.1       1.7       0.6       4.1       1.4       0.0
 3 C  dz2             0.7       1.7       0.7       4.0       1.5       0.3
 3 C  dxz             5.5       1.8       1.0       1.1       5.4       0.1
 3 C  dyz             0.6       0.0       0.0       0.1       3.3       0.0
 3 C  dx2y2           0.0       3.0       3.3       6.5       0.2       0.2
 3 C  dxy             0.0       0.1       1.4       0.0       0.9       0.0
 4 N  s               5.5       0.7       0.0       0.1       1.2       0.0
 4 N  pz              0.2       0.0       0.1       0.1      12.5       5.3
 4 N  px              1.3       0.4       0.1       0.0       0.8       1.5
 4 N  py              0.1       0.1       0.0       0.2       6.2       8.4
 4 N  dz2             1.5       0.0       0.1       0.1       1.3      17.2
 4 N  dxz             0.3       0.0       0.0       0.0      20.9       9.3
 4 N  dyz             0.0       0.0       0.1       0.0       8.2       0.3
 4 N  dx2y2           2.1       0.1       0.0       0.1       5.9      17.9
 4 N  dxy             1.2       0.3       0.0       0.0       0.6       0.7
 5 H  s               0.0       0.7       0.5       0.1       0.0       0.0
 5 H  pz              0.2       1.1       1.3       0.2       0.0       0.0
 5 H  px              0.0       0.5       0.0       0.1       0.0       0.0
 5 H  py              0.1       0.1       0.3       0.1       0.0       0.0
 6 H  s               1.2       0.0       0.1       0.0       0.0       0.0
 6 H  pz              1.7       0.0       0.2       0.0       0.0       0.0
 6 H  px              1.2       0.1       0.0       0.1       0.0       0.0
 6 H  py              0.3       0.0       0.1       0.0       0.0       0.0
 7 H  s               0.6       2.1       0.1       0.0       0.0       0.0
 7 H  px              0.2       0.0       0.3       0.0       0.0       0.0
 7 H  py              1.3       5.3       0.2       0.0       0.0       0.0
 8 H  s               0.1       2.7       2.9       1.6       0.0       0.0
 8 H  pz              0.2       4.5       5.6       3.5       0.0       0.0
 8 H  px              0.0       1.4       0.7       0.0       0.0       0.0
 8 H  py              0.0       0.2       2.0       1.0       0.0       0.0
 9 H  s               1.4       5.4       0.4       0.5       0.0       0.0
 9 H  pz              0.0       0.2       0.1       0.3       0.0       0.0
 9 H  px              0.5       0.0       0.1       0.0       0.0       0.0
 9 H  py              3.9      13.0       1.6       1.2       0.0       0.0
10 H  s               2.3       0.1       0.7       3.1       0.1       0.0
10 H  pz              4.0       0.6       1.6       4.6       0.2       0.0
10 H  px              1.8       0.0       0.0       1.3       0.1       0.0
10 H  py              0.6       0.0       1.3       0.9       0.0       0.0
11 H  s               0.1       0.1       2.7       3.6       0.0       0.0
11 H  pz              0.3       0.0       0.0       0.7       0.0       0.0
11 H  py              0.1       0.3       7.9       8.2       0.0       0.0
12 H  s               2.5       2.5       0.6       2.5       0.4       0.1
12 H  pz              4.1       3.5       1.4       2.9       0.2       0.1
12 H  px              2.6       1.9       0.0       2.1       0.5       0.0
12 H  py              0.4       0.0       0.3       0.0       0.2       0.0
13 H  s               0.1       2.0       0.4       4.5       0.3       0.1
13 H  pz              0.2       0.0       0.2       0.0       0.3       0.0
13 H  px              0.1       0.0       0.4       0.1       0.0       0.0
13 H  py              0.1       4.7       1.2      11.2       0.3       0.2
14 H  s               1.0       0.2       0.0       0.0       3.0       7.8
14 H  pz              2.5       0.4       0.0       0.1       3.4       9.2
14 H  px              0.6       0.0       0.0       0.0       1.6       2.2
14 H  py              0.4       0.0       0.0       0.1       1.0       0.3
15 H  s               0.8       0.0       0.0       0.1       3.3       7.6
15 H  pz              0.0       0.0       0.1       0.0       0.6       0.0
15 H  px              0.1       0.0       0.0       0.1       0.0       0.0
15 H  py              2.5       0.2       0.0       0.3       5.8      11.1

                    150       151       152       153       154   
                  21.85698  21.94671  21.99303  22.01635  31.83094
                   0.00000   0.00000   0.00000   0.00000   0.00000
                  --------  --------  --------  --------  --------
 0 C  s              41.2      47.2       3.3       8.0       0.0
 1 C  s              25.6      11.6      59.6       2.9       0.0
 2 C  s              24.1       3.2       4.9      67.4       0.0
 3 C  s               8.6      37.6      31.9      21.5       0.0
 4 N  s               0.0       0.0       0.0       0.0      99.8


                      *****************************
                      * MAYER POPULATION ANALYSIS *
                      *****************************

  NA   - Mulliken gross atomic population
  ZA   - Total nuclear charge
  QA   - Mulliken gross atomic charge
  VA   - Mayer's total valence
  BVA  - Mayer's bonded valence
  FA   - Mayer's free valence

  ATOM       NA         ZA         QA         VA         BVA        FA
  0 C      6.4719     6.0000    -0.4719     3.8098     3.8098    -0.0000
  1 C      6.2516     6.0000    -0.2516     3.6700     3.6700     0.0000
  2 C      6.2240     6.0000    -0.2240     3.5410     3.5410    -0.0000
  3 C      6.2579     6.0000    -0.2579     3.7850     3.7850    -0.0000
  4 N      7.5514     7.0000    -0.5514     2.7357     2.7357     0.0000
  5 H      0.8573     1.0000     0.1427     0.9650     0.9650     0.0000
  6 H      0.8539     1.0000     0.1461     0.9621     0.9621    -0.0000
  7 H      0.8590     1.0000     0.1410     0.9649     0.9649     0.0000
  8 H      0.8678     1.0000     0.1322     0.9636     0.9636     0.0000
  9 H      0.8601     1.0000     0.1399     0.9617     0.9617    -0.0000
 10 H      0.8670     1.0000     0.1330     0.9673     0.9673    -0.0000
 11 H      0.8657     1.0000     0.1343     0.9695     0.9695    -0.0000
 12 H      0.8489     1.0000     0.1511     0.9566     0.9566    -0.0000
 13 H      0.8513     1.0000     0.1487     0.9583     0.9583     0.0000
 14 H      0.7524     1.0000     0.2476     0.9303     0.9303     0.0000
 15 H      0.7597     1.0000     0.2403     0.9321     0.9321    -0.0000

  Mayer bond orders larger than 0.100000
B(  0-C ,  1-C ) :   0.9060 B(  0-C ,  5-H ) :   0.9853 B(  0-C ,  6-H ) :   0.9751 
B(  0-C ,  7-H ) :   0.9823 B(  1-C ,  2-C ) :   0.9088 B(  1-C ,  8-H ) :   0.9692 
B(  1-C ,  9-H ) :   0.9697 B(  2-C ,  3-C ) :   0.8806 B(  2-C , 10-H ) :   0.9681 
B(  2-C , 11-H ) :   0.9761 B(  3-C ,  4-N ) :   0.9570 B(  3-C , 12-H ) :   0.9923 
B(  3-C , 13-H ) :   1.0034 B(  4-N , 14-H ) :   0.9217 B(  4-N , 15-H ) :   0.9181 


-------
TIMINGS
-------

Total SCF time: 0 days 0 hours 0 min 15 sec 

Total time                  ....      15.283 sec
Sum of individual times     ....      14.686 sec  ( 96.1%)

SCF preparation             ....       0.196 sec  (  1.3%)
Fock matrix formation       ....      13.427 sec  ( 87.9%)
  Startup                   ....       0.074 sec  (  0.5% of F)
  Split-RI-J                ....       1.862 sec  ( 13.9% of F)
  XC integration            ....      10.946 sec  ( 81.5% of F)
    Basis function eval.    ....       2.030 sec  ( 18.5% of XC)
    Density eval.           ....       2.908 sec  ( 26.6% of XC)
    XC-Functional eval.     ....       1.681 sec  ( 15.4% of XC)
    XC-Potential eval.      ....       3.252 sec  ( 29.7% of XC)
Diagonalization             ....       0.000 sec  (  0.0%)
Density matrix formation    ....       0.283 sec  (  1.8%)
Total Energy calculation    ....       0.068 sec  (  0.4%)
Population analysis         ....       0.088 sec  (  0.6%)
Orbital Transformation      ....       0.061 sec  (  0.4%)
Orbital Orthonormalization  ....       0.000 sec  (  0.0%)
DIIS solution               ....       0.505 sec  (  3.3%)
  MO trafo                  ....       0.000 sec  (  0.0 % of DIIS)
  Orb grad                  ....       0.000 sec  (  0.0 % of DIIS)
  Energy W gradient         ....       0.000 sec  (  0.0 % of DIIS)
  DIIS error                ....       0.006 sec  (  1.1 % of DIIS)
  DIIS work                 ....       0.439 sec  ( 86.9 % of DIIS)
  Form Q                    ....       0.000 sec  (  0.0 % of DIIS)
  Form QpQm                 ....       0.000 sec  (  0.0 % of DIIS)
  Exp/Cayley                ....       0.000 sec  (  0.0 % of DIIS)
  Orb update                ....       0.000 sec  (  0.0 % of DIIS)
  Wake-sleep                ....       0.028 sec  (  5.5 % of DIIS)
SOSCF solution              ....       0.057 sec  (  0.4%)
  MO trafo                  ....       0.043 sec  ( 74.7 % of SOSCF)
  Orb grad                  ....       0.001 sec  (  1.9 % of SOSCF)
  Rot update                ....       0.000 sec  (  0.0 % of SOSCF)
  Step                      ....       0.013 sec  ( 23.2 % of SOSCF)
Finished LeanSCF after  15.4 sec

Maximum memory used throughout the entire LEANSCF-calculation: 16.5 MB


-------------------------------------------------------------------------------
                          DFT DISPERSION CORRECTION                            
                                                                               
                                DFTD4 V3.4.0                                   
-------------------------------------------------------------------------------
The R2SCAN3C composite method is recognized
Using three-body term ABC
Active option DFTDOPT                   ...         5   

-------------------------   ----------------
Dispersion correction           -0.003434029
-------------------------   ----------------

------------------   -----------------
gCP correction             0.010557747
------------------   -----------------

-------------------------   --------------------
FINAL SINGLE POINT ENERGY      -213.723487296876
-------------------------   --------------------


------------------------------------------------------------------------------
                              ORCA PROPERTY CALCULATIONS
------------------------------------------------------------------------------

GBWName                                 ... sp_gas.gbw
Number of atoms                         ...     16
Number of basis functions               ...    155
Max core memory                         ...   1024 MB

Electric properties:
Dipole moment                           ... YES
Quadrupole moment                       ...  NO
Static polarizability (Dipole/Dipole)   ...  NO
Static polarizability (Dipole/Quad.)    ...  NO
Static polarizability (Quad./Quad.)     ...  NO
Static polarizability (Velocity)        ...  NO

Atomic electric properties:
Dipole moment                           ...  NO
Quadrupole moment                       ...  NO
Static polarizability                   ...  NO

Choice of electric origin               ... Center of mass
Position of electric origin             ...    -0.000007    -0.000002     0.000004

General magnetic properties:
Magnetizability                         ...  NO

EPR properties:
g-Tensor (aka g-matrix)                 ...  NO
Zero-Field splitting spin-orbit         ...  NO
Zero-field splitting spin-spin          ...  NO
Hyperfine couplings                     ...  NO (   0 nuclei)
Quadrupole couplings                    ...  NO (   0 nuclei)
Contact density                         ...  NO (   0 nuclei)

NMR properties:
Chemical shifts                         ...  NO (   0 nuclei)
Spin-rotation constants                 ...  NO (   0 nuclei)
Spin-spin couplings                     ...  NO (   0 nuclei,    0 pairs)

Choice of magnetic origin               ... GIAO
Position of magnetic origin             ...     0.000000     0.000000     0.000000

Properties with geometric perturbations:
SCF Hessian                             ...  NO
IR spectrum                             ...  NO
VCD spectrum                            ...  NO
X-ray spectroscopy properties:
SCF XES/XAS/RIXS spectra                ...  NO


-------------
DIPOLE MOMENT
-------------

Method             : SCF
Type of density    : Electron Density
Multiplicity       :   1
Irrep              :   0
Energy             :  -213.7306110149414451 Eh
Relativity type    : 
Basis              : AO
                                X                 Y                 Z
Electronic contribution:     -2.790585564       0.212204747       0.178317575
Nuclear contribution   :      3.277747023      -0.410138537      -0.177832949
                        -----------------------------------------
Total Dipole Moment    :      0.487161458      -0.197933790       0.000484626
                        -----------------------------------------
Magnitude (a.u.)       :      0.525836768
Magnitude (Debye)      :      1.336570845



--------------------
Rotational spectrum 
--------------------
 
Rotational constants in cm-1:             0.409195             0.077381             0.071821 
Rotational constants in MHz :         12267.353402          2319.814269          2153.142754 

Dipole components along the rotational axes: 
x,y,z [a.u.] :     0.494408    -0.025098    -0.177300 
x,y,z [Debye]:     1.256685    -0.063794    -0.450661 

 

Dipole moment calculation done in   0.0 sec 

Maximum memory used throughout the entire PROP-calculation: 8.9 MB

--------------------------------
SUGGESTED CITATIONS FOR THIS RUN
--------------------------------

Below you find a list of papers that are relevant to this ORCA run
We neither can nor want to force you to cite these papers, but we appreciate if you do
You receive ORCA, which is the product of decades of hard work by many enthusiastic individuals, for free
The only thing we kindly ask in return is that you cite our papers,
We deeply appreciate it, if you show your appreciation for ORCA by not just citing the generic ORCA reference.

Please note that relegating all ORCA citations to the supporting information does *not* help us.
SI sections are not indexed - citations you put there will not count into any citation statistics
But we need these citations in order to attract the funding resources that allow us to do what we are doing

Therefore, if you are a happy ORCA user, please consider citing a few of the papers listed below in the main body of your paper

In addition to the list printed below, the program has created the file sp_gas.bibtex that contains the list in bibtex format
You can import this file easily into all common literature databanks and citation aid programs


List of essential papers. We consider these as the minimum necessary citations

  1. Neese,F.
     Software update: the ORCA program system, version 5.0
     WIRES Comput. Molec. Sci., 2022 12(1)e1606
     doi.org/10.1002/wcms.1606
  2. Grimme,S.; Hansen,A.; Ehlert,S.; Mewes,J.
     r2SCAN-3c: A 'Swiss army knife' composite electronic-structure method
     J. Chem. Phys., 2021 154 064103
     doi.org/10.1063/5.0040021

List of papers to cite with high priority. The work reported in these papers was absolutely
necessary for this run to complete.
Our perspective: the developers of density functionals and basis sets usually get cited in chemistry papers
Good! But without the algorithms to do something with them, the functionals or basis sets would not do anything.
Hence, in our opinion, the algorithm design and method developments papers are equally worthy of getting cited

  1. Neese,F.
     An improvement of the resolution of the identity approximation for the formation of the Coulomb matrix
     J. Comp. Chem., 2003 24(14)1740-1747
     doi.org/10.1002/jcc.10318
  2. Neese,F.
     The SHARK Integral Generation and Digestion System
     J. Comp. Chem., 2022  1-16
     doi.org/10.1002/jcc.26942
  3. Lehtola,S.; Steigemann,C.; Oliveira,M.; Marques,M.
     Recent developments in Libxc - A comprehensive library of functionals for density functional theory
     Software X, 2018 7 
     doi.org/10.1016/j.softx.2017.11.002
  4. Caldeweyher,E.; Bannwarth,C.; Grimme,S.
     Extension of the D3 dispersion coefficient model
     J. Chem. Phys., 2017 147 034112-XXXX
     doi.org/10.1063/1.4993215
  5. Caldeweyher,E.; Ehlert,S.; Hansen,A.; Neugebauer,H.; Spicher,S.; Bannwarth,C.; Grimme,S.
     A generally applicable atomic-charge dependent London dispersion correction
     J. Chem. Phys., 2019 150 154122-XXXX
     doi.org/10.1063/1.5090222
  6. Caldeweyher,E.; Mewes,J.; Ehlert,S.; Grimme,S.
     Extension and evaluation of the D4 London-dispersion model for periodic systems
     Phys. Chem. Chem. Phys., 2020 22(16)8499-8512
     doi.org/10.1039/D0CP00502A

List of suggested additional citations. These are papers that are important in the 'surrounding' of 
of this run, or papers that preceded the highly important papers. If you like your results we are grateful for a citation.

  1. Neese,F.
     The ORCA program system
     WIRES Comput. Molec. Sci., 2012 2(1)73-78
     doi.org/10.1002/wcms.81
  2. Neese,F.
     Software update: the ORCA program system, version 4.0
     WIRES Comput. Molec. Sci., 2018 8(1)1-6
     doi.org/10.1002/wcms.1327
  3. Neese,F.; Wennmohs,F.; Becker,U.; Riplinger,C.
     The ORCA quantum chemistry program package
     J. Chem. Phys., 2020 152 Art. No. L224108
     doi.org/10.1063/5.0004608

List of optional additional citations

  1. Neese,F.
     Approximate second-order SCF convergence for spin unrestricted wavefunctions
     Chem. Phys. Lett., 2000 325(1-3)93-98
     doi.org/10.1016/s0009-2614(00)00662-x

Timings for individual modules:

Sum of individual times          ...       16.883 sec (=   0.281 min)
Startup calculation              ...        1.077 sec (=   0.018 min)   6.4 %
SCF iterations                   ...       15.702 sec (=   0.262 min)  93.0 %
Property calculations            ...        0.103 sec (=   0.002 min)   0.6 %
                             ****ORCA TERMINATED NORMALLY****
TOTAL RUN TIME: 0 days 0 hours 0 minutes 17 seconds 819 msec
