      -----------------------------------------------------------      
     |                   =====================                   |     
     |                           x T B                           |     
     |                   =====================                   |     
     |                         S. Grimme                         |     
     |          Mulliken Center for Theoretical Chemistry        |     
     |                    University of Bonn                     |     
      -----------------------------------------------------------      

   * xtb version 6.7.1 (edcfbbe) compiled by 'albert@albert-system' on 2024-07-22

   xtb is free software: you can redistribute it and/or modify it under
   the terms of the GNU Lesser General Public License as published by
   the Free Software Foundation, either version 3 of the License, or
   (at your option) any later version.
   
   xtb is distributed in the hope that it will be useful,
   but WITHOUT ANY WARRANTY; without even the implied warranty of
   MERCHANTABILITY or FITNESS FOR A PARTICULAR PURPOSE.  See the
   GNU Lesser General Public License for more details.
   
   Cite this work as:
   * C. Bannwarth, E. Caldeweyher, S. Ehlert, A. Hansen, P. Pracht,
     J. Seibert, S. Spicher, S. Grimme, WIREs Comput. Mol. Sci., 2020, 11,
     e01493. DOI: 10.1002/wcms.1493
   
   for GFN2-xTB:
   * C. Bannwarth, S. Ehlert and S. Grimme., J. Chem. Theory Comput., 2019,
     15, 1652-1671. DOI: 10.1021/acs.jctc.8b01176
   for GFN1-xTB:
   * S. Grimme, C. Bannwarth, P. Shushkov, J. Chem. Theory Comput., 2017,
     13, 1989-2009. DOI: 10.1021/acs.jctc.7b00118
   for GFN0-xTB:
   * P. Pracht, E. Caldeweyher, S. Ehlert, S. Grimme, ChemRxiv, 2019, preprint.
     DOI: 10.26434/chemrxiv.8326202.v1
   for GFN-FF:
   * S. Spicher and S. Grimme, Angew. Chem. Int. Ed., 2020, 59, 15665-15673.
     DOI: 10.1002/anie.202004239
   
   for ALPB and GBSA implicit solvation:
   * S. Ehlert, M. Stahn, S. Spicher, S. Grimme, J. Chem. Theory Comput.,
     2021, 17, 4250-4261. DOI: 10.1021/acs.jctc.1c00471
   
   for ddCOSMO and CPCM-X implicit solvation:
   * M. Stahn, S. Ehlert, S. Grimme, J. Phys. Chem. A,
     2023, XX, XXXX-XXXX. DOI: 10.1021/acs.jpca.3c04382
   
   for DFT-D4:
   * E. Caldeweyher, C. Bannwarth and S. Grimme, J. Chem. Phys., 2017,
     147, 034112. DOI: 10.1063/1.4993215
   * E. Caldeweyher, S. Ehlert, A. Hansen, H. Neugebauer, S. Spicher,
     C. Bannwarth and S. Grimme, J. Chem. Phys., 2019, 150, 154122.
     DOI: 10.1063/1.5090222
   * E. Caldeweyher, J.-M. Mewes, S. Ehlert and S. Grimme, Phys. Chem. Chem. Phys.
     2020, 22, 8499-8512. DOI: 10.1039/D0CP00502A
   
   for sTDA-xTB:
   * S. Grimme and C. Bannwarth, J. Chem. Phys., 2016, 145, 054103.
     DOI: 10.1063/1.4959605
   
   in the mass-spec context:
   * V. Asgeirsson, C. Bauer and S. Grimme, Chem. Sci., 2017, 8, 4879.
     DOI: 10.1039/c7sc00601b
   * J. Koopman and S. Grimme, ACS Omega 2019, 4, 12, 15120-15133.
     DOI: 10.1021/acsomega.9b02011
   
   for metadynamics refer to:
   * S. Grimme, J. Chem. Theory Comput., 2019, 155, 2847-2862
     DOI: 10.1021/acs.jctc.9b00143
   
   for SPH calculations refer to:
   * S. Spicher and S. Grimme, J. Chem. Theory Comput., 2021, 17, 1701-1714
     DOI: 10.1021/acs.jctc.0c01306
   
   for ONIOM refer to:
   * C. Plett, A. Katbashev, S. Ehlert, S. Grimme, M. Bursch,
     Phys. Chem. Chem. Phys., 2023, 25, 17860-17868. DOI: 10.1039/D3CP02178E
   
   for DIPRO refer to:
   * J. Kohn, N. Gildemeister, S. Grimme, D. Fazzi, A. Hansen,
     J. Chem. Phys., 2023, just accepted.
   
   for PTB refer to:
   * S. Grimme, M. Mueller, A. Hansen, J. Chem. Phys., 2023, 158, 124111.
     DOI: 10.1063/5.0137838
   
   with help from (in alphabetical order)
   P. Atkinson, C. Bannwarth, F. Bohle, G. Brandenburg, E. Caldeweyher
   M. Checinski, S. Dohm, S. Ehlert, S. Ehrlich, I. Gerasimov, C. Hölzer
   A. Katbashev, J. Kohn, J. Koopman, C. Lavigne, S. Lehtola, F. März, M. Müller,
   F. Musil, H. Neugebauer, J. Pisarek, C. Plett, P. Pracht, F. Pultar,
   J. Seibert, P. Shushkov, S. Spicher, M. Stahn, M. Steiner, T. Strunk,
   J. Stückrath, T. Rose, and J. Unsleber
   
 * started run on 2025/04/11 at 16:26:34.274     
   ID    Z sym.   atoms
    1    6 C      1-4, 7, 8
    2    8 O      5, 6
    3    1 H      9-20

           -------------------------------------------------
          |                Calculation Setup                |
           -------------------------------------------------

          program call               : /srv/scratch/z5358697/.xtb/bin/xtb xtb_opt.coord --opt normal --orca -I xtb_opt-xcontrol-inp
          hostname                   : k061
          coordinate file            : xtb_opt.coord
          omp threads                :                    16

           -------------------------------------------------
          |                   Orca driver                   |
           -------------------------------------------------
orca executable           : /apps/z_install_tree/linux-rocky8-ivybridge/gcc-12.2.0/orca-6.0.0-srtngmq3qlimg2qxbl6avaaiffipurdx/bin/orca
orca input file           : xtb_opt.inp
orca input line           : 
orca parallel             : true
orca number of threads    : 16
                         * ORCA takes the control...
  ------------------------------------------------------------------------

                                 *****************
                                 * O   R   C   A *
                                 *****************

                                            #,                                       
                                            ###                                      
                                            ####                                     
                                            #####                                    
                                            ######                                   
                                           ########,                                 
                                     ,,################,,,,,                         
                               ,,#################################,,                 
                          ,,##########################################,,             
                       ,#########################################, ''#####,          
                    ,#############################################,,   '####,        
                  ,##################################################,,,,####,       
                ,###########''''           ''''###############################       
              ,#####''   ,,,,##########,,,,          '''####'''          '####       
            ,##' ,,,,###########################,,,                        '##       
           ' ,,###''''                  '''############,,,                           
         ,,##''                                '''############,,,,        ,,,,,,###''
      ,#''                                            '''#######################'''  
     '                                                          ''''####''''         
             ,#######,   #######,   ,#######,      ##                                
            ,#'     '#,  ##    ##  ,#'     '#,    #''#        ,####,   ,####,        
            ##       ##  ##   ,#'  ##            #'  '#       #'       #'  '#        
            ##       ##  #######   ##           ,######,      #####,   #    #        
            '#,     ,#'  ##    ##  '#,     ,#' ,#      #,     #,   #   #,  ,#        
             '#######'   ##     ##  '#######'  #'      '#     '####' # '####'        



                #########################################################
                #                        -***-                          #
                #          Department of theory and spectroscopy        #
                #                                                       #
                #                      Frank Neese                      #
                #                                                       #
                #     Directorship, Architecture, Infrastructure        #
                #                    SHARK, DRIVERS                     #
                #        Core code/Algorithms in most modules           #
                #                                                       #
                #        Max Planck Institute fuer Kohlenforschung      #
                #                Kaiser Wilhelm Platz 1                 #
                #                 D-45470 Muelheim/Ruhr                 #
                #                      Germany                          #
                #                                                       #
                #                  All rights reserved                  #
                #                        -***-                          #
                #########################################################


                         Program Version 6.0.0  -   RELEASE  -


 With contributions from (in alphabetic order):
   Daniel Aravena         : Magnetic Suceptibility
   Michael Atanasov       : Ab Initio Ligand Field Theory (pilot matlab implementation)
   Alexander A. Auer      : GIAO ZORA, VPT2 properties, NMR spectrum
   Ute Becker             : All parallelization in ORCA, NUMFREQ, NUMCALC
   Giovanni Bistoni       : ED, misc. LED, open-shell LED, HFLD
   Martin Brehm           : Molecular dynamics
   Dmytro Bykov           : pre 5.0 version of the SCF Hessian
   Marcos Casanova-Páez   : Triplet and SCS-CIS(D). UHF-(DLPNO)-IP/EA/STEOM-CCSD. UHF-CVS-IP/STEOM-CCSD
   Vijay G. Chilkuri      : MRCI spin determinant printing, contributions to CSF-ICE
   Pauline Colinet        : FMM embedding
   Dipayan Datta          : RHF DLPNO-CCSD density
   Achintya Kumar Dutta   : EOM-CC, STEOM-CC
   Nicolas Foglia         : Exact transition moments, OPA infrastructure, MCD improvements
   Dmitry Ganyushin       : Spin-Orbit,Spin-Spin,Magnetic field MRCI
   Miquel Garcia          : C-PCM and meta-GGA Hessian, CCSD/C-PCM, Gaussian charge scheme
   Tiago L. C. Gouveia    : GS-ROHF, GS-ROCIS
   Yang Guo               : DLPNO-NEVPT2, F12-NEVPT2, CIM, IAO-localization
   Andreas Hansen         : Spin unrestricted coupled pair/coupled cluster methods
   Ingolf Harden          : AUTO-CI MPn and infrastructure 
   Benjamin Helmich-Paris : MC-RPA, TRAH-(SCF,CASSCF), AVAS, COSX integrals, SCF dyn. polar.
   Lee Huntington         : MR-EOM, pCC
   Robert Izsak           : Overlap fitted RIJCOSX, COSX-SCS-MP3, EOM
   Riya Kayal             : Wick's Theorem for AUTO-CI, AUTO-CI UHF-CCSDT
   Emily Kempfer          : AUTO-CI, RHF CISDT and CCSDT
   Christian Kollmar      : KDIIS, OOCD, Brueckner-CCSD(T), CCSD density, CASPT2, CASPT2-K, improved NEVPT2
   Axel Koslowski         : Symmetry handling
   Simone Kossmann        : Meta GGA functionals, TD-DFT gradient, OOMP2, (MP2 Hessian; deprecated post 5.0)
   Lucas Lang             : DCDCAS
   Marvin Lechner         : AUTO-CI (C++ implementation), FIC-MRCC
   Spencer Leger          : CASSCF response
   Dagmar Lenk            : GEPOL surface, SMD, ORCA-2-JSON
   Dimitrios Liakos       : Extrapolation schemes; Compound Job, initial MDCI parallelization
   Dimitrios Manganas     : Further ROCIS development; embedding schemes. LFT, Crystal Embedding
   Dimitrios Pantazis     : SARC Basis sets
   Anastasios Papadopoulos: AUTO-CI, single reference methods and gradients
   Taras Petrenko         : pre 6.0 DFT Hessian and TD-DFT gradient, (ASA, deprecated), ECA, 1-Electron XAS/XES, NRVS
   Peter Pinski           : DLPNO-MP2, DLPNO-MP2 Gradient
   Christoph Reimann      : Effective Core Potentials
   Marius Retegan         : Local ZFS, SOC
   Christoph Riplinger    : Optimizer, TS searches, QM/MM, DLPNO-CCSD(T), (RO)-DLPNO pert. Triples
   Michael Roemelt        : Original ROCIS implementation
   Masaaki Saitow         : Open-shell DLPNO-CCSD energy and density
   Barbara Sandhoefer     : DKH picture change effects
   Kantharuban Sivalingam : CASSCF convergence/infrastructure, NEVPT2 and variants, FIC-MRCI
   Bernardo de Souza      : ESD, SOC TD-DFT
   Georgi Stoychev        : AutoAux, RI-MP2 NMR, DLPNO-MP2 response, X2C
   Van Anh Tran           : RI-MP2 g-tensors
   Willem Van den Heuvel  : Paramagnetic NMR
   Zikuan Wang            : NOTCH, Electric field optimization 
   Frank Wennmohs         : Technical directorship and infrastructure
   Hang Xu                : AUTO-CI-Response properties 


 We gratefully acknowledge several colleagues who have allowed us to
 interface, adapt or use parts of their codes:
   Stefan Grimme, W. Hujo, H. Kruse, P. Pracht,  : VdW corrections, initial TS optimization,
                  C. Bannwarth, S. Ehlert,         DFT functionals, gCP, sTDA/sTD-DF
                  L. Wittmann, M. Mueller
   Ed Valeev, F. Pavosevic, A. Kumar             : LibInt (2-el integral package), F12 methods
   Garnet Chan, S. Sharma, J. Yang, R. Olivares  : DMRG
   Ulf Ekstrom                                   : XCFun DFT Library
   Mihaly Kallay                                 : mrcc  (arbitrary order and MRCC methods)
   Frank Weinhold                                : gennbo (NPA and NBO analysis)
   Simon Mueller                                 : openCOSMO-RS
   Christopher J. Cramer and Donald G. Truhlar   : smd solvation model
   Lars Goerigk                                  : TD-DFT with DH, B97 family of functionals
   V. Asgeirsson, H. Jonsson                     : NEB implementation
   FAccTs GmbH                                   : IRC, NEB, NEB-TS, DLPNO-Multilevel, CI-OPT
                                                   MM, QMMM, 2- and 3-layer-ONIOM, Crystal-QMMM,
                                                   LR-CPCM, SF, NACMEs, symmetry and pop. for TD-DFT,
                                                   nearIR, NL-DFT gradient (VV10), updates on ESD,
                                                   ML-optimized integration grids, MBIS, APM,
                                                   GOAT, DOCKER, SOLVATOR, interface openCOSMO-RS
   S Lehtola, MJT Oliveira, MAL Marques          : LibXC Library
   Liviu Ungur et al                             : ANISO software


 Your calculation uses the libint2 library for the computation of 2-el integrals
 For citations please refer to: http://libint.valeyev.net

 Your ORCA version has been built with support for libXC version: 6.2.2
 For citations please refer to: https://libxc.gitlab.io

 This ORCA versions uses:
   CBLAS   interface :  Fast vector & matrix operations
   LAPACKE interface :  Fast linear algebra routines
   SCALAPACK package :  Parallel linear algebra routines
   Shared memory     :  Shared parallel matrices
   BLAS/LAPACK       :  OpenBLAS 0.3.27  USE64BITINT DYNAMIC_ARCH NO_AFFINITY SkylakeX SINGLE_THREADED
        Core in use  :  SkylakeX
   Copyright (c) 2011-2014, The OpenBLAS Project




***************************************
The coordinates will be read from file: xtb_opt.xyz
***************************************


Your calculation utilizes the geometrical counterpoise correction gCP
Please cite in your paper:
H.Kruse, S. Grimme J.Chem.Phys., 136, (2012), 154101 
   

Your calculation utilizes the atom-pairwise dispersion correction
based on EEQ partial charges (D4)


Your calculation utilizes the SMD solvation module
Please cite in your paper:
A.V. Marenich, C.J. Cramer, D.G. Truhlar J. Phys. Chem. B, 113, (2009), 6378 

================================================================================

----- Orbital basis set information -----
Your calculation utilizes the basis: def2-mTZVPP
   Stefan Grimme, Andreas Hansen, Sebastian Ehlert, and Jan-Michael Mewes 
   J. Chem. Phys. 154, 064103 (2021). DOI: 10.1063/5.0040021

----- AuxJ basis set information -----
Your calculation utilizes the auxiliary basis: def2/J
   F. Weigend, Phys. Chem. Chem. Phys. 8, 1057 (2006).

================================================================================
                                        WARNINGS
                       Please study these warnings very carefully!
================================================================================

Using LibXC functional ID 497 : Re-regularized SCAN exchange by Furness et al
[ 1]  J. W. Furness, A. D. Kaplan, J. Ning, J. P. Perdew, and J. Sun.,  J. Phys. Chem. Lett. 11, 8208-8215 (2020)
[ 2]  J. W. Furness, A. D. Kaplan, J. Ning, J. P. Perdew, and J. Sun.,  J. Phys. Chem. Lett. 11, 9248-9248 (2020)
Using LibXC functional ID 498 : Re-regularized SCAN correlation by Furness et al
[ 1]  J. W. Furness, A. D. Kaplan, J. Ning, J. P. Perdew, and J. Sun.,  J. Phys. Chem. Lett. 11, 8208-8215 (2020)
[ 2]  J. W. Furness, A. D. Kaplan, J. Ning, J. P. Perdew, and J. Sun.,  J. Phys. Chem. Lett. 11, 9248-9248 (2020)
Using LibXC functional ID 497 : Re-regularized SCAN exchange by Furness et al
[ 1]  J. W. Furness, A. D. Kaplan, J. Ning, J. P. Perdew, and J. Sun.,  J. Phys. Chem. Lett. 11, 8208-8215 (2020)
[ 2]  J. W. Furness, A. D. Kaplan, J. Ning, J. P. Perdew, and J. Sun.,  J. Phys. Chem. Lett. 11, 9248-9248 (2020)
Using LibXC functional ID 498 : Re-regularized SCAN correlation by Furness et al
[ 1]  J. W. Furness, A. D. Kaplan, J. Ning, J. P. Perdew, and J. Sun.,  J. Phys. Chem. Lett. 11, 8208-8215 (2020)
[ 2]  J. W. Furness, A. D. Kaplan, J. Ning, J. P. Perdew, and J. Sun.,  J. Phys. Chem. Lett. 11, 9248-9248 (2020)

================================================================================
                                       INPUT FILE
================================================================================
NAME = xtb_opt.inp
|  1> ! r2scan-3c def2/J RI DEFGRID2 scfconv7 ENGRAD tightSCF miniprint
|  2> %cpcm
|  3>     smd true
|  4>     smdsolvent "water"
|  5> end
|  6> * xyzfile 0 1 xtb_opt.xyz
|  7> 
|  8>                          ****END OF INPUT****
================================================================================

                     *******************************
                     * Energy+Gradient Calculation *
                     *******************************

---------------------------------
CARTESIAN COORDINATES (ANGSTROEM)
---------------------------------
  C     -3.318198   -1.057491    0.251138
  C     -1.869830   -0.821699   -0.157193
  C     -1.356071    0.525721    0.372658
  C      0.063381    0.722884   -0.085390
  O      0.388243    1.278641   -1.114564
  O      0.927260    0.183339    0.764829
  C      2.325527    0.210575    0.432884
  C      2.707448   -0.987598   -0.422771
  H     -3.959333   -0.277264   -0.150745
  H     -3.662034   -2.015951   -0.127839
  H     -3.412647   -1.059106    1.333802
  H     -1.785602   -0.829799   -1.246052
  H     -1.240081   -1.621223    0.237406
  H     -1.384541    0.527479    1.461365
  H     -1.968321    1.335133   -0.023792
  H      2.540253    1.144926   -0.094575
  H      2.837772    0.191439    1.395186
  H      2.444896   -1.910784    0.086665
  H      2.183485   -0.946529   -1.375208
  H      3.776424   -0.971525   -0.607893

----------------------------
CARTESIAN COORDINATES (A.U.)
----------------------------
  NO LB      ZA    FRAG     MASS         X           Y           Z
   0 C     6.0000    0    12.011   -6.270486   -1.998368    0.474581
   1 C     6.0000    0    12.011   -3.533467   -1.552787   -0.297052
   2 C     6.0000    0    12.011   -2.562604    0.993470    0.704221
   3 C     6.0000    0    12.011    0.119772    1.366052   -0.161364
   4 O     8.0000    0    15.999    0.733673    2.416281   -2.106221
   5 O     8.0000    0    15.999    1.752267    0.346461    1.445318
   6 C     6.0000    0    12.011    4.394609    0.397930    0.818033
   7 C     6.0000    0    12.011    5.116335   -1.866290   -0.798921
   8 H     1.0000    0     1.008   -7.482056   -0.523952   -0.284866
   9 H     1.0000    0     1.008   -6.920241   -3.809596   -0.241581
  10 H     1.0000    0     1.008   -6.448968   -2.001420    2.520520
  11 H     1.0000    0     1.008   -3.374299   -1.568092   -2.354697
  12 H     1.0000    0     1.008   -2.343413   -3.063668    0.448633
  13 H     1.0000    0     1.008   -2.616404    0.996792    2.761580
  14 H     1.0000    0     1.008   -3.719588    2.523036   -0.044960
  15 H     1.0000    0     1.008    4.800383    2.163597   -0.178720
  16 H     1.0000    0     1.008    5.362613    0.361768    2.636519
  17 H     1.0000    0     1.008    4.620184   -3.610858    0.163773
  18 H     1.0000    0     1.008    4.126188   -1.788681   -2.598767
  19 H     1.0000    0     1.008    7.136407   -1.835917   -1.148750

------------------------------------------------------------------------------
                   ___                                                        
                  /   \      - P O W E R E D   B Y -                         
                 /     \                                                     
                 |  |  |   _    _      __       _____    __    __             
                 |  |  |  | |  | |    /  \     |  _  \  |  |  /  |          
                  \  \/   | |  | |   /    \    | | | |  |  | /  /          
                 / \  \   | |__| |  /  /\  \   | |_| |  |  |/  /          
                |  |  |   |  __  | /  /__\  \  |    /   |      \           
                |  |  |   | |  | | |   __   |  |    \   |  |\   \          
                \     /   | |  | | |  |  |  |  | |\  \  |  | \   \       
                 \___/    |_|  |_| |__|  |__|  |_| \__\ |__|  \__/        
                                                                              
                      - O R C A' S   B I G   F R I E N D -                    
                                      &                                       
                       - I N T E G R A L  F E E D E R -                       
                                                                              
 v1 FN, 2020, v2 2021, v3 2022-2024                                           
------------------------------------------------------------------------------


----------------------
SHARK INTEGRAL PACKAGE
----------------------

Number of atoms                             ...     20
Number of basis functions                   ...    222
Number of shells                            ...    110
Maximum angular momentum                    ...      2
Integral batch strategy                     ... SHARK/LIBINT Hybrid
RI-J (if used) integral strategy            ... SPLIT-RIJ (Revised 2003 algorithm where possible)
Printlevel                                  ...      1
Contraction scheme used                     ... SEGMENTED contraction
Prescreening option                         ... SCHWARTZ
   Thresh                                   ... 3.000e-11
   Tcut                                     ... 1.000e-12
   Tpresel                                  ... 1.000e-12 
Coulomb Range Separation                    ... NOT USED
Exchange Range Separation                   ... NOT USED
Multipole approximations                    ... NOT USED
Finite Nucleus Model                        ... NOT USED
CABS basis                                  ... NOT available
Auxiliary Coulomb fitting basis             ... AVAILABLE
   # of basis functions in Aux-J            ...    524
   # of shells in Aux-J                     ...    180
   Maximum angular momentum in Aux-J        ...      4
Auxiliary J/K fitting basis                 ... NOT available
Auxiliary Correlation fitting basis         ... NOT available
Auxiliary 'external' fitting basis          ... NOT available

Checking pre-screening integrals            ... done (  0.0 sec) Dimension = 110
Check shell pair data                       ... done (  0.0 sec)
Shell pair information
Shell pair cut-off parameter TPreSel        ...   1.0e-12
Total number of shell pairs                 ...      6105
Shell pairs after pre-screening             ...      5347
Total number of primitive shell pairs       ...     21533
Primitive shell pairs kept                  ...     13380
          la=0 lb=0:   1790 shell pairs
          la=1 lb=0:   2017 shell pairs
          la=1 lb=1:    588 shell pairs
          la=2 lb=0:    573 shell pairs
          la=2 lb=1:    327 shell pairs
          la=2 lb=2:     52 shell pairs

Calculating one electron integrals          ... done (  0.0 sec)
Calculating RI/J V-Matrix + Cholesky decomp.... done (  0.1 sec)
Calculating Nuclear repulsion               ... done (  0.0 sec) ENN=    391.309855427724 Eh

Diagonalization of the overlap matrix:
Smallest eigenvalue                        ... 1.277e-04
Time for diagonalization                   ...    0.011 sec
Threshold for overlap eigenvalues          ... 1.000e-07
Number of eigenvalues below threshold      ... 0
Time for construction of square roots      ...    0.018 sec
Total time needed                          ...    0.041 sec

-------------------
DFT GRID GENERATION
-------------------

General Integration Accuracy     IntAcc      ... 4.388
Radial Grid Type                 RadialGrid  ... OptM3 with GC (2021)
Angular Grid (max. ang.)         AngularGrid ... 4 (Lebedev-302)
Angular grid pruning method      GridPruning ... 4 (adaptive)
Weight generation scheme         WeightScheme... mBecke (2022)
Basis function cutoff            BFCut       ... 1.0000e-11
Integration weight cutoff        WCut        ... 1.0000e-14
Partially contracted basis set               ... off
Rotationally invariant grid construction     ... off
Angular grids for H and He will be reduced by one unit
Diffuse basis detected: some atoms will have their outermost
                        angular grid increased by 1.

Total number of grid points                  ...    87375
Total number of batches                      ...     1376
Average number of points per batch           ...       63
Average number of grid points per atom       ...     4369
Initializing property integral containers    ... done (  0.0 sec)

SHARK setup successfully completed in   1.3 seconds

Maximum memory used throughout the entire STARTUP-calculation: 39.4 MB
Occupation numbers will be reassigned to an Aufbau configuration
             **** ENERGY FILE WAS UPDATED (xtb_opt.en.tmp) ****
Finished Guess after   0.3 sec
Maximum memory used throughout the entire GUESS-calculation: 15.1 MB
--------------------
CPCM SOLVATION MODEL
--------------------
CPCM parameters:
  Epsilon                                         ...      78.3550
  Refrac                                          ...       1.3328
  Rsolv                                           ...       1.3000
  Surface type                                    ... GAUSSIAN VDW
  Discretization scheme                           ... Constant charge density
    Threshold for H atoms                         ...       5.0000 (charges/Ang^2)
    Threshold for non-H atoms                     ...       5.0000 (charges/Ang^2)
  Epsilon function type                           ...         CPCM
Solvent:                                          ... WATER
SMD-CDS solvent descriptors:
  Soln                                            ...       1.3328
  Soln25                                          ...       1.3323
  Sola                                            ...       0.0000
  Solb                                            ...       0.0000
  Solg                                            ...       0.0000
  Solc                                            ...       0.0000
  Solh                                            ...       0.0000
Radii:
  Scheme                                          ... Element-dependent radii
  Radius for C  used is    3.4960 Bohr (=   1.8500 Ang.)
  Radius for O  used is    2.8724 Bohr (=   1.5200 Ang.)
  Radius for H  used is    2.2677 Bohr (=   1.2000 Ang.)
Calculating surface                               ...        done! (  0.0s)
Cavity surface points                             ...         1502
Cavity Volume                                     ...     876.5578
Cavity Surface-area                               ...     587.5231
Calculating surface distance matrix               ...        done! (  0.0s)
Performing Cholesky decomposition & store         ...        done! (  0.1s)
Overall time for CPCM initialization              ...                 0.1s

----------------------------------------D-I-I-S--------------------------------------------
Iteration    Energy (Eh)           Delta-E    RMSDP     MaxDP     DIISErr   Damp  Time(sec)
-------------------------------------------------------------------------------------------
               ***  Starting incremental Fock matrix formation  ***
                              *** Initializing SOSCF ***
---------------------------------------S-O-S-C-F--------------------------------------
Iteration    Energy (Eh)           Delta-E    RMSDP     MaxDP     MaxGrad    Time(sec)
--------------------------------------------------------------------------------------
    1    -386.2555698557520714     0.00e+00  6.82e-06  2.70e-04  4.70e-05     3.9
               *** Restarting incremental Fock matrix formation ***
    2    -386.2555697761945908     7.96e-08  1.06e-05  4.29e-04  1.28e-04     3.6
    3    -386.2555689294395620     8.47e-07  7.25e-06  2.88e-04  2.69e-04     3.1
    4    -386.2555701113779492    -1.18e-06  1.21e-06  4.49e-05  1.50e-05     2.7
                  *** Gradient check signals convergence ***

               *****************************************************
               *                     SUCCESS                       *
               *           SCF CONVERGED AFTER   4 CYCLES          *
               *****************************************************


SMD CDS free energy correction energy :                 5.04495     Kcal/mol
Total Energy after SMD CDS correction =              -386.247530480 Eh
             **** ENERGY FILE WAS UPDATED (xtb_opt.en.tmp) ****

----------------
TOTAL SCF ENERGY
----------------

Total Energy       :       -386.24753047950014 Eh          -10510.32964 eV

Components:
Nuclear Repulsion  :        391.30985542772368 Eh           10648.08250 eV
Electronic Energy  :       -777.54963660318776 Eh          -21158.20127 eV
One Electron Energy:      -1299.92182945158675 Eh          -35372.67129 eV
Two Electron Energy:        522.37219284839898 Eh           14214.47002 eV
CPCM Dielectric    :         -0.01578893591383 Eh              -0.42964 eV
SMD CDS (Gcds)     :          0.00803963187780 Eh               0.21877 eV

Virial components:
Potential Energy   :       -770.89002055242850 Eh          -20976.98391 eV
Kinetic Energy     :        384.64249007292835 Eh           10466.65427 eV
Virial Ratio       :          2.00417281098161

DFT components:
N(Alpha)           :       31.999975622256 electrons
N(Beta)            :       31.999975622256 electrons
N(Total)           :       63.999951244512 electrons
E(X)               :      -52.086029354718 Eh       
E(C)               :       -2.037062898772 Eh       
E(XC)              :      -54.123092253490 Eh       

CPCM Solvation Model Properties:
Surface-charge          :         -0.04749342664636
Corrected charge        :         -0.00000000000000
Outlying charge corr.   :          0.00016954506083 Eh               0.00461 eV
Free-energy (cav+disp)  :          0.00803963187780 Eh               0.21877 eV

---------------
SCF CONVERGENCE
---------------

  Last Energy change         ...    1.1819e-06  Tolerance :   1.0000e-07
  Last MAX-Density change    ...    4.4933e-05  Tolerance :   1.0000e-07
  Last RMS-Density change    ...    1.2138e-06  Tolerance :   5.0000e-09
  Last DIIS Error            ...    3.8790e-04  Tolerance :   1.0000e-07
  Last Orbital Gradient      ...    1.4969e-05  Tolerance :   1.0000e-04
  Last Orbital Rotation      ...    5.5551e-05  Tolerance :   1.0000e-04


----------------
ORBITAL ENERGIES
----------------

  NO   OCC          E(Eh)            E(eV) 
   0   2.0000     -19.001536      -517.0581 
   1   2.0000     -18.942503      -515.4517 
   2   2.0000     -10.161669      -276.5131 
   3   2.0000     -10.083158      -274.3767 
   4   2.0000     -10.034607      -273.0555 
   5   2.0000     -10.030580      -272.9459 
   6   2.0000     -10.018162      -272.6081 
   7   2.0000     -10.011974      -272.4397 
   8   2.0000      -1.078259       -29.3409 
   9   2.0000      -0.988167       -26.8894 
  10   2.0000      -0.769832       -20.9482 
  11   2.0000      -0.732500       -19.9323 
  12   2.0000      -0.674139       -18.3443 
  13   2.0000      -0.616062       -16.7639 
  14   2.0000      -0.561301       -15.2738 
  15   2.0000      -0.519882       -14.1467 
  16   2.0000      -0.472420       -12.8552 
  17   2.0000      -0.461253       -12.5513 
  18   2.0000      -0.439250       -11.9526 
  19   2.0000      -0.425000       -11.5648 
  20   2.0000      -0.408008       -11.1025 
  21   2.0000      -0.384108       -10.4521 
  22   2.0000      -0.362934        -9.8759 
  23   2.0000      -0.357446        -9.7266 
  24   2.0000      -0.355667        -9.6782 
  25   2.0000      -0.339765        -9.2455 
  26   2.0000      -0.320113        -8.7107 
  27   2.0000      -0.305771        -8.3205 
  28   2.0000      -0.303685        -8.2637 
  29   2.0000      -0.300647        -8.1810 
  30   2.0000      -0.276864        -7.5339 
  31   2.0000      -0.248762        -6.7692 
  32   0.0000      -0.022500        -0.6123 
  33   0.0000       0.079322         2.1585 
  34   0.0000       0.098989         2.6936 
  35   0.0000       0.112993         3.0747 
  36   0.0000       0.130609         3.5540 
  37   0.0000       0.135810         3.6956 
  38   0.0000       0.139520         3.7965 
  39   0.0000       0.143857         3.9145 
  40   0.0000       0.153554         4.1784 
  41   0.0000       0.167955         4.5703 
  42   0.0000       0.170481         4.6390 
*Only the first 10 virtual orbitals were printed.
Total SCF time: 0 days 0 hours 0 min 13 sec 
Finished LeanSCF after  14.1 sec

Maximum memory used throughout the entire LEANSCF-calculation: 30.6 MB


-------------------------------------------------------------------------------
                          DFT DISPERSION CORRECTION                            
                                                                               
                                DFTD4 V3.4.0                                   
-------------------------------------------------------------------------------
-------------------------   ----------------
Dispersion correction           -0.005031676
-------------------------   ----------------

------------------   -----------------
gCP correction             0.011655949
------------------   -----------------

-------------------------   --------------------
FINAL SINGLE POINT ENERGY      -386.240906206213
-------------------------   --------------------

------------------------------------------------------------------------------
                         ORCA SCF GRADIENT CALCULATION
------------------------------------------------------------------------------

Nuc. rep. gradient        (SHARK) ... done (  0.0 sec)
HCore & Overlap gradient  (SHARK) ... done (  0.3 sec)
Split-RIJ-J gradient      (SHARK) ... done (  1.8 sec)
XC gradient                       ... done (  7.3 sec)
CPCM gradient                     ... done (  1.0 sec)
SMD gradient                      ... done (  0.0 sec)
Dispersion correction             ... done (  0.0 sec)

-------------------
DISPERSION GRADIENT
-------------------

   1   C   :   -0.000073399   -0.000032646    0.000006591
   2   C   :   -0.000070393   -0.000028644   -0.000006908
   3   C   :   -0.000058028    0.000032608    0.000016656
   4   C   :    0.000012179    0.000050848   -0.000003136
   5   O   :    0.000010871    0.000073159   -0.000050809
   6   O   :    0.000044932    0.000021225    0.000030632
   7   C   :    0.000077161    0.000011172    0.000012044
   8   C   :    0.000085371   -0.000037890   -0.000014501
   9   H   :   -0.000028623   -0.000009010   -0.000001159
  10   H   :   -0.000023385   -0.000018507   -0.000001514
  11   H   :   -0.000027222   -0.000014202    0.000008841
  12   H   :   -0.000031062   -0.000011235   -0.000016150
  13   H   :   -0.000034329   -0.000024119    0.000004282
  14   H   :   -0.000016744    0.000012640    0.000021039
  15   H   :   -0.000015613    0.000021771   -0.000002540
  16   H   :    0.000021640    0.000007234    0.000001617
  17   H   :    0.000027318   -0.000000223    0.000015997
  18   H   :    0.000036153   -0.000025736    0.000000150
  19   H   :    0.000036462   -0.000014220   -0.000015501
  20   H   :    0.000026713   -0.000014225   -0.000005632

Difference to translation invariance:
           :   -0.0000000000    0.0000000000    0.0000000000

Difference to rotation invariance:
           :    0.0000000000   -0.0000000000    0.0000000000

Norm of the Dispersion gradient    ...    0.0002452659
RMS gradient                       ...    0.0000316637
MAX gradient                       ...    0.0000853705
gCP correction                   ... done

------------------
CARTESIAN GRADIENT
------------------

   1   C   :   -0.006033798   -0.000154889    0.002314248
   2   C   :    0.003029691   -0.001750575   -0.001964913
   3   C   :   -0.005524132    0.002670502    0.003383504
   4   C   :    0.014173083   -0.003045080   -0.002869508
   5   O   :   -0.002932781   -0.005665949    0.012739309
   6   O   :    0.000887183    0.008558234   -0.014424462
   7   C   :   -0.011647089    0.000691972    0.008309254
   8   C   :    0.007153606   -0.006965366   -0.004981788
   9   H   :    0.003941662   -0.003359266    0.001458049
  10   H   :    0.002981994    0.004295656    0.001131175
  11   H   :    0.001543535    0.000209005   -0.005231808
  12   H   :   -0.000962361    0.000891891    0.002433109
  13   H   :   -0.001982696    0.002355872    0.000250383
  14   H   :    0.001835316   -0.000943871   -0.002862277
  15   H   :    0.000738113   -0.002324110    0.000073621
  16   H   :   -0.001827597   -0.000347122   -0.002567781
  17   H   :   -0.000869561   -0.000901347   -0.000439221
  18   H   :    0.000004823    0.004630287   -0.001715361
  19   H   :    0.001033448    0.000908256    0.004089327
  20   H   :   -0.005542439    0.000245900    0.000875142

Difference to translation invariance:
           :    0.0000000000    0.0000000000   -0.0000000000

Difference to rotation invariance:
           :    0.0000080370    0.0000026055   -0.0000325338

Norm of the Cartesian gradient     ...    0.0367350255
RMS gradient                       ...    0.0047424714
MAX gradient                       ...    0.0144244624

-------
TIMINGS
-------

Total SCF gradient time     ....       11.326 sec

Densities                   ....       0.001 sec  (  0.0%)
One electron gradient       ....       0.349 sec  (  3.1%)
RI-J Coulomb gradient       ....       1.786 sec  ( 15.8%)
XC gradient                 ....       7.257 sec  ( 64.1%)
CPCM gradient               ....       1.017 sec  (  9.0%)
   A-Matrix (El+Nuc)        ....       0.080 sec  (  0.7%)
   Potential                ....       0.936 sec  (  8.3%)
SMD gradient                ....       0.013 sec  (  0.1%)

Maximum memory used throughout the entire SCFGRAD-calculation: 35.4 MB

------------------------------------------------------------------------------
                              ORCA PROPERTY CALCULATIONS
------------------------------------------------------------------------------

GBWName                                 ... xtb_opt.gbw
Number of atoms                         ...     20
Number of basis functions               ...    222
Max core memory                         ...   1024 MB

Electric properties:
Dipole moment                           ... YES
Quadrupole moment                       ...  NO
Static polarizability (Dipole/Dipole)   ...  NO
Static polarizability (Dipole/Quad.)    ...  NO
Static polarizability (Quad./Quad.)     ...  NO
Static polarizability (Velocity)        ...  NO

Atomic electric properties:
Dipole moment                           ...  NO
Quadrupole moment                       ...  NO
Static polarizability                   ...  NO

Choice of electric origin               ... Center of mass
Position of electric origin             ...    -0.000014    -0.000020     0.000004

General magnetic properties:
Magnetizability                         ...  NO

EPR properties:
g-Tensor (aka g-matrix)                 ...  NO
Zero-Field splitting spin-orbit         ...  NO
Zero-field splitting spin-spin          ...  NO
Hyperfine couplings                     ...  NO (   0 nuclei)
Quadrupole couplings                    ...  NO (   0 nuclei)
Contact density                         ...  NO (   0 nuclei)

NMR properties:
Chemical shifts                         ...  NO (   0 nuclei)
Spin-rotation constants                 ...  NO (   0 nuclei)
Spin-spin couplings                     ...  NO (   0 nuclei,    0 pairs)

Choice of magnetic origin               ... GIAO
Position of magnetic origin             ...     0.000000     0.000000     0.000000

Properties with geometric perturbations:
SCF Hessian                             ...  NO
IR spectrum                             ...  NO
VCD spectrum                            ...  NO
X-ray spectroscopy properties:
SCF XES/XAS/RIXS spectra                ...  NO


-------------
DIPOLE MOMENT
-------------

Method             : SCF
Type of density    : Electron Density
Multiplicity       :   1
Irrep              :   0
Energy             :  -386.2475304795001421 Eh
Relativity type    : 
Basis              : AO
                                X                 Y                 Z
Electronic contribution:      3.470800191       5.241772667       0.061367124
Nuclear contribution   :     -3.385784755      -6.013737518       0.828207617
                        -----------------------------------------
Total Dipole Moment    :      0.085015435      -0.771964851       0.889574742
                        -----------------------------------------
Magnitude (a.u.)       :      1.180889739
Magnitude (Debye)      :      3.001583178



--------------------
Rotational spectrum 
--------------------
 
Rotational constants in cm-1:             0.131092             0.033359             0.030755 
Rotational constants in MHz :          3930.042157          1000.062910           922.001086 

Dipole components along the rotational axes: 
x,y,z [a.u.] :     0.037510     0.977536    -0.661450 
x,y,z [Debye]:     0.095344     2.484700    -1.681273 

 

Dipole moment calculation done in   0.0 sec 

Maximum memory used throughout the entire PROP-calculation: 13.9 MB

--------------------------------
SUGGESTED CITATIONS FOR THIS RUN
--------------------------------

Below you find a list of papers that are relevant to this ORCA run
We neither can nor want to force you to cite these papers, but we appreciate if you do
You receive ORCA, which is the product of decades of hard work by many enthusiastic individuals, for free
The only thing we kindly ask in return is that you cite our papers,
We deeply appreciate it, if you show your appreciation for ORCA by not just citing the generic ORCA reference.

Please note that relegating all ORCA citations to the supporting information does *not* help us.
SI sections are not indexed - citations you put there will not count into any citation statistics
But we need these citations in order to attract the funding resources that allow us to do what we are doing

Therefore, if you are a happy ORCA user, please consider citing a few of the papers listed below in the main body of your paper

In addition to the list printed below, the program has created the file xtb_opt.bibtex that contains the list in bibtex format
You can import this file easily into all common literature databanks and citation aid programs


List of essential papers. We consider these as the minimum necessary citations

  1. Neese,F.
     Software update: the ORCA program system, version 5.0
     WIRES Comput. Molec. Sci., 2022 12(1)e1606
     doi.org/10.1002/wcms.1606
  2. Grimme,S.; Hansen,A.; Ehlert,S.; Mewes,J.
     r2SCAN-3c: A 'Swiss army knife' composite electronic-structure method
     J. Chem. Phys., 2021 154 064103
     doi.org/10.1063/5.0040021

List of papers to cite with high priority. The work reported in these papers was absolutely
necessary for this run to complete.
Our perspective: the developers of density functionals and basis sets usually get cited in chemistry papers
Good! But without the algorithms to do something with them, the functionals or basis sets would not do anything.
Hence, in our opinion, the algorithm design and method developments papers are equally worthy of getting cited

  1. Neese,F.
     An improvement of the resolution of the identity approximation for the formation of the Coulomb matrix
     J. Comp. Chem., 2003 24(14)1740-1747
     doi.org/10.1002/jcc.10318
  2. Garcia-Rates,M.; Neese,F.
     Effect of the Solute Cavity on the Solvation Energy and its Derivatives within the Framework of the Gaussian Charge Scheme
     J. Comput. Chem., 2020 41 922-939
     doi.org/10.1002/jcc.26139
  3. Neese,F.
     The SHARK Integral Generation and Digestion System
     J. Comp. Chem., 2022  1-16
     doi.org/10.1002/jcc.26942
  4. Lehtola,S.; Steigemann,C.; Oliveira,M.; Marques,M.
     Recent developments in Libxc - A comprehensive library of functionals for density functional theory
     Software X, 2018 7 
     doi.org/10.1016/j.softx.2017.11.002
  5. Caldeweyher,E.; Bannwarth,C.; Grimme,S.
     Extension of the D3 dispersion coefficient model
     J. Chem. Phys., 2017 147 034112-XXXX
     doi.org/10.1063/1.4993215
  6. Caldeweyher,E.; Ehlert,S.; Hansen,A.; Neugebauer,H.; Spicher,S.; Bannwarth,C.; Grimme,S.
     A generally applicable atomic-charge dependent London dispersion correction
     J. Chem. Phys., 2019 150 154122-XXXX
     doi.org/10.1063/1.5090222
  7. Caldeweyher,E.; Mewes,J.; Ehlert,S.; Grimme,S.
     Extension and evaluation of the D4 London-dispersion model for periodic systems
     Phys. Chem. Chem. Phys., 2020 22(16)8499-8512
     doi.org/10.1039/D0CP00502A

List of suggested additional citations. These are papers that are important in the 'surrounding' of 
of this run, or papers that preceded the highly important papers. If you like your results we are grateful for a citation.

  1. Neese,F.
     The ORCA program system
     WIRES Comput. Molec. Sci., 2012 2(1)73-78
     doi.org/10.1002/wcms.81
  2. Neese,F.
     Software update: the ORCA program system, version 4.0
     WIRES Comput. Molec. Sci., 2018 8(1)1-6
     doi.org/10.1002/wcms.1327
  3. Neese,F.; Wennmohs,F.; Becker,U.; Riplinger,C.
     The ORCA quantum chemistry program package
     J. Chem. Phys., 2020 152 Art. No. L224108
     doi.org/10.1063/5.0004608

List of optional additional citations

  1. Neese,F.
     Approximate second-order SCF convergence for spin unrestricted wavefunctions
     Chem. Phys. Lett., 2000 325(1-3)93-98
     doi.org/10.1016/s0009-2614(00)00662-x

Timings for individual modules:

Sum of individual times          ...       27.414 sec (=   0.457 min)
Startup calculation              ...        1.358 sec (=   0.023 min)   5.0 %
SCF iterations                   ...       14.454 sec (=   0.241 min)  52.7 %
Property calculations            ...        0.137 sec (=   0.002 min)   0.5 %
SCF Gradient evaluation          ...       11.465 sec (=   0.191 min)  41.8 %
                             ****ORCA TERMINATED NORMALLY****
TOTAL RUN TIME: 0 days 0 hours 0 minutes 28 seconds 357 msec
  ------------------------------------------------------------------------
          * successful ORCA run, taking over control again...

         :::::::::::::::::::::::::::::::::::::::::::::::::::::
         ::                  ORCA SUMMARY                   ::
         :::::::::::::::::::::::::::::::::::::::::::::::::::::
         :: total energy            -386.240906206213 Eh    ::
         :: gradient norm              0.036735025501 Eh/a0 ::
         :: HOMO-LUMO gap              0.000000000000 eV    ::
         :::::::::::::::::::::::::::::::::::::::::::::::::::::

      ----------------------------------------------------------- 
     |                       L-ANC optimizer                     |
      ----------------------------------------------------------- 
          low memory version by Sebastian Ehlert

          ...................................................
          :                      SETUP                      :
          :.................................................:
          :   energy convergence        0.5000000E-05 Eh    :
          :   grad. convergence         0.1000000E-02 Eh/a0 :
          :   optimization log               true           :
          :   writing optlog all                1     steps :
          :   Hessian reset                     8     steps :
          :   maximium step len.        1.0000000     a0    :
          :   LBFGS images                      8           :
          ...................................................
 * calculating model hessian...
Using Lindh-Hessian (1995)
 Shifting diagonal of input Hessian by   1.000000000000000E-002
 Lowest  eigenvalues of input Hessian
    0.000000    0.000000    0.000000    0.000000    0.000000    0.000000
    0.011161    0.012708    0.012891    0.017960    0.019500    0.020237
    0.023413    0.027672    0.034062    0.040727    0.052724    0.054323
 Highest eigenvalues
    1.218414    1.233569    1.247417    1.308915    1.811542    2.339193
 

........................................................................
.............................. CYCLE    1 ..............................
........................................................................
                         * ORCA takes the control...
  ------------------------------------------------------------------------

                                 *****************
                                 * O   R   C   A *
                                 *****************

                                            #,                                       
                                            ###                                      
                                            ####                                     
                                            #####                                    
                                            ######                                   
                                           ########,                                 
                                     ,,################,,,,,                         
                               ,,#################################,,                 
                          ,,##########################################,,             
                       ,#########################################, ''#####,          
                    ,#############################################,,   '####,        
                  ,##################################################,,,,####,       
                ,###########''''           ''''###############################       
              ,#####''   ,,,,##########,,,,          '''####'''          '####       
            ,##' ,,,,###########################,,,                        '##       
           ' ,,###''''                  '''############,,,                           
         ,,##''                                '''############,,,,        ,,,,,,###''
      ,#''                                            '''#######################'''  
     '                                                          ''''####''''         
             ,#######,   #######,   ,#######,      ##                                
            ,#'     '#,  ##    ##  ,#'     '#,    #''#        ,####,   ,####,        
            ##       ##  ##   ,#'  ##            #'  '#       #'       #'  '#        
            ##       ##  #######   ##           ,######,      #####,   #    #        
            '#,     ,#'  ##    ##  '#,     ,#' ,#      #,     #,   #   #,  ,#        
             '#######'   ##     ##  '#######'  #'      '#     '####' # '####'        



                #########################################################
                #                        -***-                          #
                #          Department of theory and spectroscopy        #
                #                                                       #
                #                      Frank Neese                      #
                #                                                       #
                #     Directorship, Architecture, Infrastructure        #
                #                    SHARK, DRIVERS                     #
                #        Core code/Algorithms in most modules           #
                #                                                       #
                #        Max Planck Institute fuer Kohlenforschung      #
                #                Kaiser Wilhelm Platz 1                 #
                #                 D-45470 Muelheim/Ruhr                 #
                #                      Germany                          #
                #                                                       #
                #                  All rights reserved                  #
                #                        -***-                          #
                #########################################################


                         Program Version 6.0.0  -   RELEASE  -


 With contributions from (in alphabetic order):
   Daniel Aravena         : Magnetic Suceptibility
   Michael Atanasov       : Ab Initio Ligand Field Theory (pilot matlab implementation)
   Alexander A. Auer      : GIAO ZORA, VPT2 properties, NMR spectrum
   Ute Becker             : All parallelization in ORCA, NUMFREQ, NUMCALC
   Giovanni Bistoni       : ED, misc. LED, open-shell LED, HFLD
   Martin Brehm           : Molecular dynamics
   Dmytro Bykov           : pre 5.0 version of the SCF Hessian
   Marcos Casanova-Páez   : Triplet and SCS-CIS(D). UHF-(DLPNO)-IP/EA/STEOM-CCSD. UHF-CVS-IP/STEOM-CCSD
   Vijay G. Chilkuri      : MRCI spin determinant printing, contributions to CSF-ICE
   Pauline Colinet        : FMM embedding
   Dipayan Datta          : RHF DLPNO-CCSD density
   Achintya Kumar Dutta   : EOM-CC, STEOM-CC
   Nicolas Foglia         : Exact transition moments, OPA infrastructure, MCD improvements
   Dmitry Ganyushin       : Spin-Orbit,Spin-Spin,Magnetic field MRCI
   Miquel Garcia          : C-PCM and meta-GGA Hessian, CCSD/C-PCM, Gaussian charge scheme
   Tiago L. C. Gouveia    : GS-ROHF, GS-ROCIS
   Yang Guo               : DLPNO-NEVPT2, F12-NEVPT2, CIM, IAO-localization
   Andreas Hansen         : Spin unrestricted coupled pair/coupled cluster methods
   Ingolf Harden          : AUTO-CI MPn and infrastructure 
   Benjamin Helmich-Paris : MC-RPA, TRAH-(SCF,CASSCF), AVAS, COSX integrals, SCF dyn. polar.
   Lee Huntington         : MR-EOM, pCC
   Robert Izsak           : Overlap fitted RIJCOSX, COSX-SCS-MP3, EOM
   Riya Kayal             : Wick's Theorem for AUTO-CI, AUTO-CI UHF-CCSDT
   Emily Kempfer          : AUTO-CI, RHF CISDT and CCSDT
   Christian Kollmar      : KDIIS, OOCD, Brueckner-CCSD(T), CCSD density, CASPT2, CASPT2-K, improved NEVPT2
   Axel Koslowski         : Symmetry handling
   Simone Kossmann        : Meta GGA functionals, TD-DFT gradient, OOMP2, (MP2 Hessian; deprecated post 5.0)
   Lucas Lang             : DCDCAS
   Marvin Lechner         : AUTO-CI (C++ implementation), FIC-MRCC
   Spencer Leger          : CASSCF response
   Dagmar Lenk            : GEPOL surface, SMD, ORCA-2-JSON
   Dimitrios Liakos       : Extrapolation schemes; Compound Job, initial MDCI parallelization
   Dimitrios Manganas     : Further ROCIS development; embedding schemes. LFT, Crystal Embedding
   Dimitrios Pantazis     : SARC Basis sets
   Anastasios Papadopoulos: AUTO-CI, single reference methods and gradients
   Taras Petrenko         : pre 6.0 DFT Hessian and TD-DFT gradient, (ASA, deprecated), ECA, 1-Electron XAS/XES, NRVS
   Peter Pinski           : DLPNO-MP2, DLPNO-MP2 Gradient
   Christoph Reimann      : Effective Core Potentials
   Marius Retegan         : Local ZFS, SOC
   Christoph Riplinger    : Optimizer, TS searches, QM/MM, DLPNO-CCSD(T), (RO)-DLPNO pert. Triples
   Michael Roemelt        : Original ROCIS implementation
   Masaaki Saitow         : Open-shell DLPNO-CCSD energy and density
   Barbara Sandhoefer     : DKH picture change effects
   Kantharuban Sivalingam : CASSCF convergence/infrastructure, NEVPT2 and variants, FIC-MRCI
   Bernardo de Souza      : ESD, SOC TD-DFT
   Georgi Stoychev        : AutoAux, RI-MP2 NMR, DLPNO-MP2 response, X2C
   Van Anh Tran           : RI-MP2 g-tensors
   Willem Van den Heuvel  : Paramagnetic NMR
   Zikuan Wang            : NOTCH, Electric field optimization 
   Frank Wennmohs         : Technical directorship and infrastructure
   Hang Xu                : AUTO-CI-Response properties 


 We gratefully acknowledge several colleagues who have allowed us to
 interface, adapt or use parts of their codes:
   Stefan Grimme, W. Hujo, H. Kruse, P. Pracht,  : VdW corrections, initial TS optimization,
                  C. Bannwarth, S. Ehlert,         DFT functionals, gCP, sTDA/sTD-DF
                  L. Wittmann, M. Mueller
   Ed Valeev, F. Pavosevic, A. Kumar             : LibInt (2-el integral package), F12 methods
   Garnet Chan, S. Sharma, J. Yang, R. Olivares  : DMRG
   Ulf Ekstrom                                   : XCFun DFT Library
   Mihaly Kallay                                 : mrcc  (arbitrary order and MRCC methods)
   Frank Weinhold                                : gennbo (NPA and NBO analysis)
   Simon Mueller                                 : openCOSMO-RS
   Christopher J. Cramer and Donald G. Truhlar   : smd solvation model
   Lars Goerigk                                  : TD-DFT with DH, B97 family of functionals
   V. Asgeirsson, H. Jonsson                     : NEB implementation
   FAccTs GmbH                                   : IRC, NEB, NEB-TS, DLPNO-Multilevel, CI-OPT
                                                   MM, QMMM, 2- and 3-layer-ONIOM, Crystal-QMMM,
                                                   LR-CPCM, SF, NACMEs, symmetry and pop. for TD-DFT,
                                                   nearIR, NL-DFT gradient (VV10), updates on ESD,
                                                   ML-optimized integration grids, MBIS, APM,
                                                   GOAT, DOCKER, SOLVATOR, interface openCOSMO-RS
   S Lehtola, MJT Oliveira, MAL Marques          : LibXC Library
   Liviu Ungur et al                             : ANISO software


 Your calculation uses the libint2 library for the computation of 2-el integrals
 For citations please refer to: http://libint.valeyev.net

 Your ORCA version has been built with support for libXC version: 6.2.2
 For citations please refer to: https://libxc.gitlab.io

 This ORCA versions uses:
   CBLAS   interface :  Fast vector & matrix operations
   LAPACKE interface :  Fast linear algebra routines
   SCALAPACK package :  Parallel linear algebra routines
   Shared memory     :  Shared parallel matrices
   BLAS/LAPACK       :  OpenBLAS 0.3.27  USE64BITINT DYNAMIC_ARCH NO_AFFINITY SkylakeX SINGLE_THREADED
        Core in use  :  SkylakeX
   Copyright (c) 2011-2014, The OpenBLAS Project




***************************************
The coordinates will be read from file: xtb_opt.xyz
***************************************


Your calculation utilizes the geometrical counterpoise correction gCP
Please cite in your paper:
H.Kruse, S. Grimme J.Chem.Phys., 136, (2012), 154101 
   

Your calculation utilizes the atom-pairwise dispersion correction
based on EEQ partial charges (D4)


Your calculation utilizes the SMD solvation module
Please cite in your paper:
A.V. Marenich, C.J. Cramer, D.G. Truhlar J. Phys. Chem. B, 113, (2009), 6378 

================================================================================

----- Orbital basis set information -----
Your calculation utilizes the basis: def2-mTZVPP
   Stefan Grimme, Andreas Hansen, Sebastian Ehlert, and Jan-Michael Mewes 
   J. Chem. Phys. 154, 064103 (2021). DOI: 10.1063/5.0040021

----- AuxJ basis set information -----
Your calculation utilizes the auxiliary basis: def2/J
   F. Weigend, Phys. Chem. Chem. Phys. 8, 1057 (2006).

================================================================================
                                        WARNINGS
                       Please study these warnings very carefully!
================================================================================

WARNING: Old DensityContainer found on disk!
         Will remove this file - 
         If you want to keep old densities, please start your calculation with a different basename. 

Using LibXC functional ID 497 : Re-regularized SCAN exchange by Furness et al
[ 1]  J. W. Furness, A. D. Kaplan, J. Ning, J. P. Perdew, and J. Sun.,  J. Phys. Chem. Lett. 11, 8208-8215 (2020)
[ 2]  J. W. Furness, A. D. Kaplan, J. Ning, J. P. Perdew, and J. Sun.,  J. Phys. Chem. Lett. 11, 9248-9248 (2020)
Using LibXC functional ID 498 : Re-regularized SCAN correlation by Furness et al
[ 1]  J. W. Furness, A. D. Kaplan, J. Ning, J. P. Perdew, and J. Sun.,  J. Phys. Chem. Lett. 11, 8208-8215 (2020)
[ 2]  J. W. Furness, A. D. Kaplan, J. Ning, J. P. Perdew, and J. Sun.,  J. Phys. Chem. Lett. 11, 9248-9248 (2020)
Using LibXC functional ID 497 : Re-regularized SCAN exchange by Furness et al
[ 1]  J. W. Furness, A. D. Kaplan, J. Ning, J. P. Perdew, and J. Sun.,  J. Phys. Chem. Lett. 11, 8208-8215 (2020)
[ 2]  J. W. Furness, A. D. Kaplan, J. Ning, J. P. Perdew, and J. Sun.,  J. Phys. Chem. Lett. 11, 9248-9248 (2020)
Using LibXC functional ID 498 : Re-regularized SCAN correlation by Furness et al
[ 1]  J. W. Furness, A. D. Kaplan, J. Ning, J. P. Perdew, and J. Sun.,  J. Phys. Chem. Lett. 11, 8208-8215 (2020)
[ 2]  J. W. Furness, A. D. Kaplan, J. Ning, J. P. Perdew, and J. Sun.,  J. Phys. Chem. Lett. 11, 9248-9248 (2020)

================================================================================
                                       INPUT FILE
================================================================================
NAME = xtb_opt.inp
|  1> ! r2scan-3c def2/J RI DEFGRID2 scfconv7 ENGRAD tightSCF miniprint
|  2> %cpcm
|  3>     smd true
|  4>     smdsolvent "water"
|  5> end
|  6> * xyzfile 0 1 xtb_opt.xyz
|  7> 
|  8>                          ****END OF INPUT****
================================================================================

                     *******************************
                     * Energy+Gradient Calculation *
                     *******************************

---------------------------------
CARTESIAN COORDINATES (ANGSTROEM)
---------------------------------
  C     -3.322561   -1.061657    0.249778
  C     -1.872226   -0.824605   -0.157310
  C     -1.355123    0.524936    0.370738
  C      0.062472    0.736666   -0.078069
  O      0.387298    1.280831   -1.122438
  O      0.933252    0.188560    0.777103
  C      2.339412    0.215089    0.430801
  C      2.701557   -0.985336   -0.423607
  H     -3.970800   -0.277965   -0.151196
  H     -3.677076   -2.023821   -0.127280
  H     -3.423241   -1.063132    1.338369
  H     -1.782741   -0.837269   -1.248693
  H     -1.238622   -1.627624    0.233055
  H     -1.399353    0.534522    1.462466
  H     -1.966480    1.337394   -0.028041
  H      2.565140    1.154653   -0.080493
  H      2.856211    0.191051    1.391274
  H      2.444263   -1.915439    0.088229
  H      2.179583   -0.950706   -1.382886
  H      3.777064   -0.974978   -0.611888

----------------------------
CARTESIAN COORDINATES (A.U.)
----------------------------
  NO LB      ZA    FRAG     MASS         X           Y           Z
   0 C     6.0000    0    12.011   -6.278731   -2.006242    0.472013
   1 C     6.0000    0    12.011   -3.537994   -1.558277   -0.297273
   2 C     6.0000    0    12.011   -2.560812    0.991986    0.700593
   3 C     6.0000    0    12.011    0.118056    1.392097   -0.147529
   4 O     8.0000    0    15.999    0.731886    2.420419   -2.121101
   5 O     8.0000    0    15.999    1.763592    0.356327    1.468512
   6 C     6.0000    0    12.011    4.420848    0.406459    0.814096
   7 C     6.0000    0    12.011    5.105202   -1.862015   -0.800501
   8 H     1.0000    0     1.008   -7.503725   -0.525277   -0.285718
   9 H     1.0000    0     1.008   -6.948667   -3.824467   -0.240525
  10 H     1.0000    0     1.008   -6.468988   -2.009029    2.529152
  11 H     1.0000    0     1.008   -3.368892   -1.582209   -2.359689
  12 H     1.0000    0     1.008   -2.340657   -3.075763    0.440410
  13 H     1.0000    0     1.008   -2.644393    1.010099    2.763661
  14 H     1.0000    0     1.008   -3.716108    2.527307   -0.052989
  15 H     1.0000    0     1.008    4.847413    2.181978   -0.152109
  16 H     1.0000    0     1.008    5.397457    0.361033    2.629127
  17 H     1.0000    0     1.008    4.618987   -3.619655    0.166728
  18 H     1.0000    0     1.008    4.118815   -1.796575   -2.613277
  19 H     1.0000    0     1.008    7.137617   -1.842441   -1.156300

------------------------------------------------------------------------------
                   ___                                                        
                  /   \      - P O W E R E D   B Y -                         
                 /     \                                                     
                 |  |  |   _    _      __       _____    __    __             
                 |  |  |  | |  | |    /  \     |  _  \  |  |  /  |          
                  \  \/   | |  | |   /    \    | | | |  |  | /  /          
                 / \  \   | |__| |  /  /\  \   | |_| |  |  |/  /          
                |  |  |   |  __  | /  /__\  \  |    /   |      \           
                |  |  |   | |  | | |   __   |  |    \   |  |\   \          
                \     /   | |  | | |  |  |  |  | |\  \  |  | \   \       
                 \___/    |_|  |_| |__|  |__|  |_| \__\ |__|  \__/        
                                                                              
                      - O R C A' S   B I G   F R I E N D -                    
                                      &                                       
                       - I N T E G R A L  F E E D E R -                       
                                                                              
 v1 FN, 2020, v2 2021, v3 2022-2024                                           
------------------------------------------------------------------------------


----------------------
SHARK INTEGRAL PACKAGE
----------------------

Number of atoms                             ...     20
Number of basis functions                   ...    222
Number of shells                            ...    110
Maximum angular momentum                    ...      2
Integral batch strategy                     ... SHARK/LIBINT Hybrid
RI-J (if used) integral strategy            ... SPLIT-RIJ (Revised 2003 algorithm where possible)
Printlevel                                  ...      1
Contraction scheme used                     ... SEGMENTED contraction
Prescreening option                         ... SCHWARTZ
   Thresh                                   ... 3.000e-11
   Tcut                                     ... 1.000e-12
   Tpresel                                  ... 1.000e-12 
Coulomb Range Separation                    ... NOT USED
Exchange Range Separation                   ... NOT USED
Multipole approximations                    ... NOT USED
Finite Nucleus Model                        ... NOT USED
CABS basis                                  ... NOT available
Auxiliary Coulomb fitting basis             ... AVAILABLE
   # of basis functions in Aux-J            ...    524
   # of shells in Aux-J                     ...    180
   Maximum angular momentum in Aux-J        ...      4
Auxiliary J/K fitting basis                 ... NOT available
Auxiliary Correlation fitting basis         ... NOT available
Auxiliary 'external' fitting basis          ... NOT available

Checking pre-screening integrals            ... done (  0.0 sec) Dimension = 110
Check shell pair data                       ... done (  0.0 sec)
Shell pair information
Shell pair cut-off parameter TPreSel        ...   1.0e-12
Total number of shell pairs                 ...      6105
Shell pairs after pre-screening             ...      5343
Total number of primitive shell pairs       ...     21533
Primitive shell pairs kept                  ...     13351
          la=0 lb=0:   1788 shell pairs
          la=1 lb=0:   2015 shell pairs
          la=1 lb=1:    588 shell pairs
          la=2 lb=0:    573 shell pairs
          la=2 lb=1:    327 shell pairs
          la=2 lb=2:     52 shell pairs

Calculating one electron integrals          ... done (  0.0 sec)
Calculating RI/J V-Matrix + Cholesky decomp.... done (  0.1 sec)
Calculating Nuclear repulsion               ... done (  0.0 sec) ENN=    390.026326059093 Eh

Diagonalization of the overlap matrix:
Smallest eigenvalue                        ... 1.319e-04
Time for diagonalization                   ...    0.008 sec
Threshold for overlap eigenvalues          ... 1.000e-07
Number of eigenvalues below threshold      ... 0
Time for construction of square roots      ...    0.016 sec
Total time needed                          ...    0.033 sec

-------------------
DFT GRID GENERATION
-------------------

General Integration Accuracy     IntAcc      ... 4.388
Radial Grid Type                 RadialGrid  ... OptM3 with GC (2021)
Angular Grid (max. ang.)         AngularGrid ... 4 (Lebedev-302)
Angular grid pruning method      GridPruning ... 4 (adaptive)
Weight generation scheme         WeightScheme... mBecke (2022)
Basis function cutoff            BFCut       ... 1.0000e-11
Integration weight cutoff        WCut        ... 1.0000e-14
Partially contracted basis set               ... off
Rotationally invariant grid construction     ... off
Angular grids for H and He will be reduced by one unit
Diffuse basis detected: some atoms will have their outermost
                        angular grid increased by 1.

Total number of grid points                  ...    87397
Total number of batches                      ...     1376
Average number of points per batch           ...       63
Average number of grid points per atom       ...     4370
Initializing property integral containers    ... done (  0.0 sec)

SHARK setup successfully completed in   1.7 seconds

Maximum memory used throughout the entire STARTUP-calculation: 39.4 MB
Occupation numbers will be reassigned to an Aufbau configuration
             **** ENERGY FILE WAS UPDATED (xtb_opt.en.tmp) ****
Finished Guess after   0.3 sec
Maximum memory used throughout the entire GUESS-calculation: 15.1 MB
--------------------
CPCM SOLVATION MODEL
--------------------
CPCM parameters:
  Epsilon                                         ...      78.3550
  Refrac                                          ...       1.3328
  Rsolv                                           ...       1.3000
  Surface type                                    ... GAUSSIAN VDW
  Discretization scheme                           ... Constant charge density
    Threshold for H atoms                         ...       5.0000 (charges/Ang^2)
    Threshold for non-H atoms                     ...       5.0000 (charges/Ang^2)
  Epsilon function type                           ...         CPCM
Solvent:                                          ... WATER
SMD-CDS solvent descriptors:
  Soln                                            ...       1.3328
  Soln25                                          ...       1.3323
  Sola                                            ...       0.0000
  Solb                                            ...       0.0000
  Solg                                            ...       0.0000
  Solc                                            ...       0.0000
  Solh                                            ...       0.0000
Radii:
  Scheme                                          ... Element-dependent radii
  Radius for C  used is    3.4960 Bohr (=   1.8500 Ang.)
  Radius for O  used is    2.8724 Bohr (=   1.5200 Ang.)
  Radius for H  used is    2.2677 Bohr (=   1.2000 Ang.)
Calculating surface                               ...        done! (  0.0s)
Cavity surface points                             ...         1502
Cavity Volume                                     ...     879.6953
Cavity Surface-area                               ...     589.9109
Calculating surface distance matrix               ...        done! (  0.0s)
Performing Cholesky decomposition & store         ...        done! (  0.1s)
Overall time for CPCM initialization              ...                 0.1s

----------------------------------------D-I-I-S--------------------------------------------
Iteration    Energy (Eh)           Delta-E    RMSDP     MaxDP     DIISErr   Damp  Time(sec)
-------------------------------------------------------------------------------------------
               ***  Starting incremental Fock matrix formation  ***
    1    -386.2560295695863601     0.00e+00  7.49e-05  2.16e-03  7.43e-03  0.700   3.6
    2    -386.2561638370544301    -1.34e-04  6.50e-05  1.80e-03  5.64e-03  0.700   3.2
                               ***Turning on AO-DIIS***
    3    -386.2562609622429477    -9.71e-05  4.80e-05  1.27e-03  4.04e-03  0.700   3.4
                              *** Initializing SOSCF ***
---------------------------------------S-O-S-C-F--------------------------------------
Iteration    Energy (Eh)           Delta-E    RMSDP     MaxDP     MaxGrad    Time(sec)
--------------------------------------------------------------------------------------
    4    -386.2563282084460639    -6.72e-05  1.13e-04  2.71e-03  2.85e-03     3.1
               *** Restarting incremental Fock matrix formation ***
    5    -386.2564867648368931    -1.59e-04  1.12e-05  1.99e-04  5.76e-05     4.1
    6    -386.2564866703679058     9.45e-08  5.56e-06  1.11e-04  7.87e-05     3.2
                 **** Energy Check signals convergence ****

               *****************************************************
               *                     SUCCESS                       *
               *           SCF CONVERGED AFTER   6 CYCLES          *
               *****************************************************


SMD CDS free energy correction energy :                 5.00347     Kcal/mol
Total Energy after SMD CDS correction =              -386.248513134 Eh
             **** ENERGY FILE WAS UPDATED (xtb_opt.en.tmp) ****

----------------
TOTAL SCF ENERGY
----------------

Total Energy       :       -386.24851313416895 Eh          -10510.35638 eV

Components:
Nuclear Repulsion  :        390.02632605909281 Eh           10613.15589 eV
Electronic Energy  :       -776.26679144787443 Eh          -21123.29328 eV
One Electron Energy:      -1297.41407255155400 Eh          -35304.43176 eV
Two Electron Energy:        521.14728110367957 Eh           14181.13847 eV
CPCM Dielectric    :         -0.01602128158623 Eh              -0.43596 eV
SMD CDS (Gcds)     :          0.00797353619895 Eh               0.21697 eV

Virial components:
Potential Energy   :       -770.75040966509550 Eh          -20973.18490 eV
Kinetic Energy     :        384.50189653092656 Eh           10462.82852 eV
Virial Ratio       :          2.00454254353230

DFT components:
N(Alpha)           :       31.999976571650 electrons
N(Beta)            :       31.999976571650 electrons
N(Total)           :       63.999953143300 electrons
E(X)               :      -52.049903967751 Eh       
E(C)               :       -2.035302697295 Eh       
E(XC)              :      -54.085206665046 Eh       

CPCM Solvation Model Properties:
Surface-charge          :         -0.04772121591574
Corrected charge        :         -0.00000000000000
Outlying charge corr.   :          0.00017092700685 Eh               0.00465 eV
Free-energy (cav+disp)  :          0.00797353619895 Eh               0.21697 eV

---------------
SCF CONVERGENCE
---------------

  Last Energy change         ...   -9.4469e-08  Tolerance :   1.0000e-07
  Last MAX-Density change    ...    1.1057e-04  Tolerance :   1.0000e-07
  Last RMS-Density change    ...    5.5586e-06  Tolerance :   5.0000e-09
  Last DIIS Error            ...    2.8529e-03  Tolerance :   1.0000e-07
  Last Orbital Gradient      ...    7.8715e-05  Tolerance :   1.0000e-04
  Last Orbital Rotation      ...    1.4087e-04  Tolerance :   1.0000e-04


----------------
ORBITAL ENERGIES
----------------

  NO   OCC          E(Eh)            E(eV) 
   0   2.0000     -19.001644      -517.0610 
   1   2.0000     -18.944680      -515.5110 
   2   2.0000     -10.164212      -276.5823 
   3   2.0000     -10.083848      -274.3955 
   4   2.0000     -10.036507      -273.1072 
   5   2.0000     -10.032731      -273.0045 
   6   2.0000     -10.020451      -272.6703 
   7   2.0000     -10.015156      -272.5262 
   8   2.0000      -1.072396       -29.1814 
   9   2.0000      -0.985151       -26.8073 
  10   2.0000      -0.768900       -20.9228 
  11   2.0000      -0.731595       -19.9077 
  12   2.0000      -0.673951       -18.3392 
  13   2.0000      -0.613541       -16.6953 
  14   2.0000      -0.561755       -15.2861 
  15   2.0000      -0.519997       -14.1498 
  16   2.0000      -0.471617       -12.8333 
  17   2.0000      -0.459658       -12.5079 
  18   2.0000      -0.437135       -11.8951 
  19   2.0000      -0.423737       -11.5305 
  20   2.0000      -0.407274       -11.0825 
  21   2.0000      -0.383614       -10.4387 
  22   2.0000      -0.362316        -9.8591 
  23   2.0000      -0.356961        -9.7134 
  24   2.0000      -0.354414        -9.6441 
  25   2.0000      -0.339331        -9.2337 
  26   2.0000      -0.320933        -8.7330 
  27   2.0000      -0.306137        -8.3304 
  28   2.0000      -0.304652        -8.2900 
  29   2.0000      -0.299738        -8.1563 
  30   2.0000      -0.277283        -7.5453 
  31   2.0000      -0.249860        -6.7990 
  32   0.0000      -0.026818        -0.7298 
  33   0.0000       0.077821         2.1176 
  34   0.0000       0.095425         2.5966 
  35   0.0000       0.112442         3.0597 
  36   0.0000       0.129864         3.5338 
  37   0.0000       0.135087         3.6759 
  38   0.0000       0.138842         3.7781 
  39   0.0000       0.143163         3.8957 
  40   0.0000       0.152227         4.1423 
  41   0.0000       0.166675         4.5354 
  42   0.0000       0.170328         4.6349 
*Only the first 10 virtual orbitals were printed.
Total SCF time: 0 days 0 hours 0 min 21 sec 
Finished LeanSCF after  22.1 sec

Maximum memory used throughout the entire LEANSCF-calculation: 30.6 MB


-------------------------------------------------------------------------------
                          DFT DISPERSION CORRECTION                            
                                                                               
                                DFTD4 V3.4.0                                   
-------------------------------------------------------------------------------
-------------------------   ----------------
Dispersion correction           -0.005020121
-------------------------   ----------------

------------------   -----------------
[...]
  Last MAX-Density change    ...    1.7345e-05  Tolerance :   1.0000e-07
  Last RMS-Density change    ...    5.1872e-07  Tolerance :   5.0000e-09
  Last DIIS Error            ...    2.3513e-05  Tolerance :   1.0000e-07
  Last Orbital Gradient      ...    3.4570e-06  Tolerance :   1.0000e-04
  Last Orbital Rotation      ...    6.3603e-06  Tolerance :   1.0000e-04


----------------
ORBITAL ENERGIES
----------------

  NO   OCC          E(Eh)            E(eV) 
   0   2.0000     -19.000719      -517.0359 
   1   2.0000     -18.944787      -515.5139 
   2   2.0000     -10.164185      -276.5815 
   3   2.0000     -10.084350      -274.4091 
   4   2.0000     -10.037064      -273.1224 
   5   2.0000     -10.033201      -273.0173 
   6   2.0000     -10.020527      -272.6724 
   7   2.0000     -10.015373      -272.5322 
   8   2.0000      -1.067486       -29.0478 
   9   2.0000      -0.983194       -26.7541 
  10   2.0000      -0.767957       -20.8972 
  11   2.0000      -0.730933       -19.8897 
  12   2.0000      -0.673922       -18.3383 
  13   2.0000      -0.611329       -16.6351 
  14   2.0000      -0.561714       -15.2850 
  15   2.0000      -0.518117       -14.0987 
  16   2.0000      -0.471494       -12.8300 
  17   2.0000      -0.457588       -12.4516 
  18   2.0000      -0.435970       -11.8633 
  19   2.0000      -0.422637       -11.5005 
  20   2.0000      -0.407120       -11.0783 
  21   2.0000      -0.384990       -10.4761 
  22   2.0000      -0.361675        -9.8417 
  23   2.0000      -0.356948        -9.7131 
  24   2.0000      -0.352980        -9.6051 
  25   2.0000      -0.339005        -9.2248 
  26   2.0000      -0.321097        -8.7375 
  27   2.0000      -0.305915        -8.3244 
  28   2.0000      -0.304924        -8.2974 
  29   2.0000      -0.299225        -8.1423 
  30   2.0000      -0.278034        -7.5657 
  31   2.0000      -0.249850        -6.7988 
  32   0.0000      -0.027982        -0.7614 
  33   0.0000       0.076543         2.0828 
  34   0.0000       0.091527         2.4906 
  35   0.0000       0.112190         3.0528 
  36   0.0000       0.129517         3.5243 
  37   0.0000       0.134682         3.6649 
  38   0.0000       0.138484         3.7683 
  39   0.0000       0.143807         3.9132 
  40   0.0000       0.151690         4.1277 
  41   0.0000       0.165794         4.5115 
  42   0.0000       0.169949         4.6245 
*Only the first 10 virtual orbitals were printed.
Total SCF time: 0 days 0 hours 0 min 7 sec 
Finished LeanSCF after   8.0 sec

Maximum memory used throughout the entire LEANSCF-calculation: 30.5 MB


-------------------------------------------------------------------------------
                          DFT DISPERSION CORRECTION                            
                                                                               
                                DFTD4 V3.4.0                                   
-------------------------------------------------------------------------------
-------------------------   ----------------
Dispersion correction           -0.005021782
-------------------------   ----------------

------------------   -----------------
gCP correction             0.011438131
------------------   -----------------

-------------------------   --------------------
FINAL SINGLE POINT ENERGY      -386.242369368570
-------------------------   --------------------

------------------------------------------------------------------------------
                         ORCA SCF GRADIENT CALCULATION
------------------------------------------------------------------------------

Nuc. rep. gradient        (SHARK) ... done (  0.0 sec)
HCore & Overlap gradient  (SHARK) ... done (  0.3 sec)
Split-RIJ-J gradient      (SHARK) ... done (  1.6 sec)
XC gradient                       ... done (  6.6 sec)
CPCM gradient                     ... done (  1.0 sec)
SMD gradient                      ... done (  0.0 sec)
Dispersion correction             ... done (  0.0 sec)

-------------------
DISPERSION GRADIENT
-------------------

   1   C   :   -0.000073487   -0.000032289    0.000006702
   2   C   :   -0.000070120   -0.000028977   -0.000007164
   3   C   :   -0.000058441    0.000032879    0.000016438
   4   C   :    0.000011560    0.000050410   -0.000002836
   5   O   :    0.000010977    0.000070428   -0.000052176
   6   O   :    0.000047536    0.000022434    0.000031945
   7   C   :    0.000075027    0.000011282    0.000013708
   8   C   :    0.000085304   -0.000037510   -0.000015187
   9   H   :   -0.000028497   -0.000008975   -0.000001047
  10   H   :   -0.000023149   -0.000018024   -0.000001363
  11   H   :   -0.000027098   -0.000014081    0.000008629
  12   H   :   -0.000030815   -0.000011430   -0.000016222
  13   H   :   -0.000034296   -0.000024602    0.000004164
  14   H   :   -0.000016677    0.000012734    0.000020954
  15   H   :   -0.000015383    0.000021837   -0.000002795
  16   H   :    0.000021694    0.000007316    0.000002213
  17   H   :    0.000026733   -0.000000137    0.000015636
  18   H   :    0.000036260   -0.000025599    0.000000037
  19   H   :    0.000036262   -0.000013427   -0.000015680
  20   H   :    0.000026609   -0.000014269   -0.000005957

Difference to translation invariance:
           :   -0.0000000000    0.0000000000    0.0000000000

Difference to rotation invariance:
           :    0.0000000000   -0.0000000000   -0.0000000000

Norm of the Dispersion gradient    ...    0.0002446280
RMS gradient                       ...    0.0000315813
MAX gradient                       ...    0.0000853041
gCP correction                   ... done

------------------
CARTESIAN GRADIENT
------------------

   1   C   :    0.000021108   -0.000030671   -0.000014462
   2   C   :    0.000003671    0.000038936    0.000029800
   3   C   :    0.000031649    0.000011986   -0.000047009
   4   C   :    0.000018447   -0.000051189    0.000107474
   5   O   :    0.000004358    0.000091642   -0.000135164
   6   O   :   -0.000003698   -0.000056284    0.000013064
   7   C   :   -0.000016138    0.000036140   -0.000002390
   8   C   :   -0.000012089    0.000010931    0.000015819
   9   H   :   -0.000021597    0.000032715   -0.000012424
  10   H   :   -0.000025060   -0.000041874   -0.000004998
  11   H   :   -0.000000709    0.000000645    0.000050916
  12   H   :    0.000014325   -0.000010953   -0.000014405
  13   H   :    0.000030948   -0.000014935    0.000008689
  14   H   :   -0.000023261    0.000026765    0.000013296
  15   H   :   -0.000002887   -0.000001423   -0.000023527
  16   H   :    0.000012532   -0.000008640    0.000030095
  17   H   :   -0.000002492    0.000007719    0.000015770
  18   H   :   -0.000014922   -0.000041744    0.000013396
  19   H   :   -0.000033343   -0.000000032   -0.000024601
  20   H   :    0.000019159    0.000000265   -0.000019339

Difference to translation invariance:
           :    0.0000000000    0.0000000000   -0.0000000000

Difference to rotation invariance:
           :   -0.0001158879   -0.0000558471   -0.0000328865

Norm of the Cartesian gradient     ...    0.0002655920
RMS gradient                       ...    0.0000342878
MAX gradient                       ...    0.0001351642

-------
TIMINGS
-------

Total SCF gradient time     ....       10.372 sec

Densities                   ....       0.001 sec  (  0.0%)
One electron gradient       ....       0.296 sec  (  2.9%)
RI-J Coulomb gradient       ....       1.612 sec  ( 15.5%)
XC gradient                 ....       6.600 sec  ( 63.6%)
CPCM gradient               ....       0.978 sec  (  9.4%)
   A-Matrix (El+Nuc)        ....       0.077 sec  (  0.7%)
   Potential                ....       0.901 sec  (  8.7%)
SMD gradient                ....       0.012 sec  (  0.1%)

Maximum memory used throughout the entire SCFGRAD-calculation: 35.3 MB

------------------------------------------------------------------------------
                              ORCA PROPERTY CALCULATIONS
------------------------------------------------------------------------------

GBWName                                 ... xtb_opt.gbw
Number of atoms                         ...     20
Number of basis functions               ...    222
Max core memory                         ...   1024 MB

Electric properties:
Dipole moment                           ... YES
Quadrupole moment                       ...  NO
Static polarizability (Dipole/Dipole)   ...  NO
Static polarizability (Dipole/Quad.)    ...  NO
Static polarizability (Quad./Quad.)     ...  NO
Static polarizability (Velocity)        ...  NO

Atomic electric properties:
Dipole moment                           ...  NO
Quadrupole moment                       ...  NO
Static polarizability                   ...  NO

Choice of electric origin               ... Center of mass
Position of electric origin             ...     0.009560    -0.005275     0.008047

General magnetic properties:
Magnetizability                         ...  NO

EPR properties:
g-Tensor (aka g-matrix)                 ...  NO
Zero-Field splitting spin-orbit         ...  NO
Zero-field splitting spin-spin          ...  NO
Hyperfine couplings                     ...  NO (   0 nuclei)
Quadrupole couplings                    ...  NO (   0 nuclei)
Contact density                         ...  NO (   0 nuclei)

NMR properties:
Chemical shifts                         ...  NO (   0 nuclei)
Spin-rotation constants                 ...  NO (   0 nuclei)
Spin-spin couplings                     ...  NO (   0 nuclei,    0 pairs)

Choice of magnetic origin               ... GIAO
Position of magnetic origin             ...     0.000000     0.000000     0.000000

Properties with geometric perturbations:
SCF Hessian                             ...  NO
IR spectrum                             ...  NO
VCD spectrum                            ...  NO
X-ray spectroscopy properties:
SCF XES/XAS/RIXS spectra                ...  NO


-------------
DIPOLE MOMENT
-------------

Method             : SCF
Type of density    : Electron Density
Multiplicity       :   1
Irrep              :   0
Energy             :  -386.2487857177612796 Eh
Relativity type    : 
Basis              : AO
                                X                 Y                 Z
Electronic contribution:      3.558483716       5.231881781       0.110663877
Nuclear contribution   :     -3.481941384      -5.963382089       0.749662551
                        -----------------------------------------
Total Dipole Moment    :      0.076542332      -0.731500308       0.860326429
                        -----------------------------------------
Magnitude (a.u.)       :      1.131862621
Magnitude (Debye)      :      2.876966147



--------------------
Rotational spectrum 
--------------------
 
Rotational constants in cm-1:             0.131844             0.032932             0.030727 
Rotational constants in MHz :          3952.592010           987.268009           921.166046 

Dipole components along the rotational axes: 
x,y,z [a.u.] :     0.041213     0.933163    -0.639234 
x,y,z [Debye]:     0.104754     2.371913    -1.624805 

 

Dipole moment calculation done in   0.0 sec 

Maximum memory used throughout the entire PROP-calculation: 13.9 MB

--------------------------------
SUGGESTED CITATIONS FOR THIS RUN
--------------------------------

Below you find a list of papers that are relevant to this ORCA run
We neither can nor want to force you to cite these papers, but we appreciate if you do
You receive ORCA, which is the product of decades of hard work by many enthusiastic individuals, for free
The only thing we kindly ask in return is that you cite our papers,
We deeply appreciate it, if you show your appreciation for ORCA by not just citing the generic ORCA reference.

Please note that relegating all ORCA citations to the supporting information does *not* help us.
SI sections are not indexed - citations you put there will not count into any citation statistics
But we need these citations in order to attract the funding resources that allow us to do what we are doing

Therefore, if you are a happy ORCA user, please consider citing a few of the papers listed below in the main body of your paper

In addition to the list printed below, the program has created the file xtb_opt.bibtex that contains the list in bibtex format
You can import this file easily into all common literature databanks and citation aid programs


List of essential papers. We consider these as the minimum necessary citations

  1. Neese,F.
     Software update: the ORCA program system, version 5.0
     WIRES Comput. Molec. Sci., 2022 12(1)e1606
     doi.org/10.1002/wcms.1606
  2. Grimme,S.; Hansen,A.; Ehlert,S.; Mewes,J.
     r2SCAN-3c: A 'Swiss army knife' composite electronic-structure method
     J. Chem. Phys., 2021 154 064103
     doi.org/10.1063/5.0040021

List of papers to cite with high priority. The work reported in these papers was absolutely
necessary for this run to complete.
Our perspective: the developers of density functionals and basis sets usually get cited in chemistry papers
Good! But without the algorithms to do something with them, the functionals or basis sets would not do anything.
Hence, in our opinion, the algorithm design and method developments papers are equally worthy of getting cited

  1. Neese,F.
     An improvement of the resolution of the identity approximation for the formation of the Coulomb matrix
     J. Comp. Chem., 2003 24(14)1740-1747
     doi.org/10.1002/jcc.10318
  2. Garcia-Rates,M.; Neese,F.
     Effect of the Solute Cavity on the Solvation Energy and its Derivatives within the Framework of the Gaussian Charge Scheme
     J. Comput. Chem., 2020 41 922-939
     doi.org/10.1002/jcc.26139
  3. Neese,F.
     The SHARK Integral Generation and Digestion System
     J. Comp. Chem., 2022  1-16
     doi.org/10.1002/jcc.26942
  4. Lehtola,S.; Steigemann,C.; Oliveira,M.; Marques,M.
     Recent developments in Libxc - A comprehensive library of functionals for density functional theory
     Software X, 2018 7 
     doi.org/10.1016/j.softx.2017.11.002
  5. Caldeweyher,E.; Bannwarth,C.; Grimme,S.
     Extension of the D3 dispersion coefficient model
     J. Chem. Phys., 2017 147 034112-XXXX
     doi.org/10.1063/1.4993215
  6. Caldeweyher,E.; Ehlert,S.; Hansen,A.; Neugebauer,H.; Spicher,S.; Bannwarth,C.; Grimme,S.
     A generally applicable atomic-charge dependent London dispersion correction
     J. Chem. Phys., 2019 150 154122-XXXX
     doi.org/10.1063/1.5090222
  7. Caldeweyher,E.; Mewes,J.; Ehlert,S.; Grimme,S.
     Extension and evaluation of the D4 London-dispersion model for periodic systems
     Phys. Chem. Chem. Phys., 2020 22(16)8499-8512
     doi.org/10.1039/D0CP00502A

List of suggested additional citations. These are papers that are important in the 'surrounding' of 
of this run, or papers that preceded the highly important papers. If you like your results we are grateful for a citation.

  1. Neese,F.
     The ORCA program system
     WIRES Comput. Molec. Sci., 2012 2(1)73-78
     doi.org/10.1002/wcms.81
  2. Neese,F.
     Software update: the ORCA program system, version 4.0
     WIRES Comput. Molec. Sci., 2018 8(1)1-6
     doi.org/10.1002/wcms.1327
  3. Neese,F.; Wennmohs,F.; Becker,U.; Riplinger,C.
     The ORCA quantum chemistry program package
     J. Chem. Phys., 2020 152 Art. No. L224108
     doi.org/10.1063/5.0004608

List of optional additional citations

  1. Neese,F.
     Approximate second-order SCF convergence for spin unrestricted wavefunctions
     Chem. Phys. Lett., 2000 325(1-3)93-98
     doi.org/10.1016/s0009-2614(00)00662-x

Timings for individual modules:

Sum of individual times          ...       20.449 sec (=   0.341 min)
Startup calculation              ...        1.399 sec (=   0.023 min)   6.8 %
SCF iterations                   ...        8.437 sec (=   0.141 min)  41.3 %
Property calculations            ...        0.135 sec (=   0.002 min)   0.7 %
SCF Gradient evaluation          ...       10.478 sec (=   0.175 min)  51.2 %
                             ****ORCA TERMINATED NORMALLY****
TOTAL RUN TIME: 0 days 0 hours 0 minutes 21 seconds 397 msec
  ------------------------------------------------------------------------
          * successful ORCA run, taking over control again...

         :::::::::::::::::::::::::::::::::::::::::::::::::::::
         ::                  ORCA SUMMARY                   ::
         :::::::::::::::::::::::::::::::::::::::::::::::::::::
         :: total energy            -386.242369368570 Eh    ::
         :: gradient norm              0.000265591969 Eh/a0 ::
         :: HOMO-LUMO gap              0.000000000000 eV    ::
         :::::::::::::::::::::::::::::::::::::::::::::::::::::

           -------------------------------------------------
          |                Property Printout                |
           -------------------------------------------------
           -------------------------------------------------
          |                Geometry Summary                 |
           -------------------------------------------------

      molecular mass/u    :      116.1585142
   center of mass at/Å    :        0.0050688      -0.0027797       0.0042561
  moments of inertia/u·Å² :        0.1278590E+03   0.5118839E+03   0.5486167E+03
rotational constants/cm⁻¹ :        0.1318455E+00   0.3293253E-01   0.3072753E-01

 * 16 selected distances

     #   Z          #   Z                                           value/Å
     1   6 C        2   6 C                                       1.5242381 (max)
     4   6 C        5   8 O                                       1.2215162
     4   6 C        6   8 O                                       1.3479823
     7   6 C        8   6 C                                       1.5112007
     1   6 C        9   1 H                                       1.0952970
     1   6 C       10   1 H                                       1.0944480
     1   6 C       11   1 H                                       1.0952959
     2   6 C       12   1 H                                       1.0961355
     2   6 C       13   1 H                                       1.0962158
     3   6 C       14   1 H                                       1.0936675
     3   6 C       15   1 H                                       1.0936713
     7   6 C       16   1 H                                       1.0927475
     7   6 C       17   1 H                                       1.0915953 (min)
     8   6 C       18   1 H                                       1.0939083
     8   6 C       19   1 H                                       1.0935392
     8   6 C       20   1 H                                       1.0946501

 * 3 distinct bonds (by element types)

   Z      Z             #   av. dist./Å        max./Å        min./Å
   1 H    6 C          12     1.0942643     1.0962158     1.0915953
   6 C    6 C           2     1.5177194     1.5242381     1.5112007
   6 C    8 O           2     1.2847493     1.3479823     1.2215162


optimized geometry written to: xtbopt.coord


           -------------------------------------------------
          | TOTAL ENERGY             -386.242369368570 Eh   |
          | GRADIENT NORM               0.000265591969 Eh/α |
           -------------------------------------------------

------------------------------------------------------------------------
 * finished run on 2025/04/11 at 16:31:59.823     
------------------------------------------------------------------------
 total:
 * wall-time:     0 d,  0 h,  5 min, 25.549 sec
 *  cpu-time:     0 d,  0 h,  0 min,  2.420 sec
 * ratio c/w:     0.007 speedup
 SCF:
 * wall-time:     0 d,  0 h,  0 min, 28.429 sec
 *  cpu-time:     0 d,  0 h,  0 min,  1.220 sec
 * ratio c/w:     0.043 speedup
 ANC optimizer:
 * wall-time:     0 d,  0 h,  4 min, 57.009 sec
 *  cpu-time:     0 d,  0 h,  0 min,  0.824 sec
 * ratio c/w:     0.003 speedup

