
                                 *****************
                                 * O   R   C   A *
                                 *****************

                                            #,                                       
                                            ###                                      
                                            ####                                     
                                            #####                                    
                                            ######                                   
                                           ########,                                 
                                     ,,################,,,,,                         
                               ,,#################################,,                 
                          ,,##########################################,,             
                       ,#########################################, ''#####,          
                    ,#############################################,,   '####,        
                  ,##################################################,,,,####,       
                ,###########''''           ''''###############################       
              ,#####''   ,,,,##########,,,,          '''####'''          '####       
            ,##' ,,,,###########################,,,                        '##       
           ' ,,###''''                  '''############,,,                           
         ,,##''                                '''############,,,,        ,,,,,,###''
      ,#''                                            '''#######################'''  
     '                                                          ''''####''''         
             ,#######,   #######,   ,#######,      ##                                
            ,#'     '#,  ##    ##  ,#'     '#,    #''#        ,####,   ,####,        
            ##       ##  ##   ,#'  ##            #'  '#       #'       #'  '#        
            ##       ##  #######   ##           ,######,      #####,   #    #        
            '#,     ,#'  ##    ##  '#,     ,#' ,#      #,     #,   #   #,  ,#        
             '#######'   ##     ##  '#######'  #'      '#     '####' # '####'        



                #########################################################
                #                        -***-                          #
                #          Department of theory and spectroscopy        #
                #                                                       #
                #                      Frank Neese                      #
                #                                                       #
                #     Directorship, Architecture, Infrastructure        #
                #                    SHARK, DRIVERS                     #
                #        Core code/Algorithms in most modules           #
                #                                                       #
                #        Max Planck Institute fuer Kohlenforschung      #
                #                Kaiser Wilhelm Platz 1                 #
                #                 D-45470 Muelheim/Ruhr                 #
                #                      Germany                          #
                #                                                       #
                #                  All rights reserved                  #
                #                        -***-                          #
                #########################################################


                         Program Version 6.0.0  -   RELEASE  -


 With contributions from (in alphabetic order):
   Daniel Aravena         : Magnetic Suceptibility
   Michael Atanasov       : Ab Initio Ligand Field Theory (pilot matlab implementation)
   Alexander A. Auer      : GIAO ZORA, VPT2 properties, NMR spectrum
   Ute Becker             : All parallelization in ORCA, NUMFREQ, NUMCALC
   Giovanni Bistoni       : ED, misc. LED, open-shell LED, HFLD
   Martin Brehm           : Molecular dynamics
   Dmytro Bykov           : pre 5.0 version of the SCF Hessian
   Marcos Casanova-Páez   : Triplet and SCS-CIS(D). UHF-(DLPNO)-IP/EA/STEOM-CCSD. UHF-CVS-IP/STEOM-CCSD
   Vijay G. Chilkuri      : MRCI spin determinant printing, contributions to CSF-ICE
   Pauline Colinet        : FMM embedding
   Dipayan Datta          : RHF DLPNO-CCSD density
   Achintya Kumar Dutta   : EOM-CC, STEOM-CC
   Nicolas Foglia         : Exact transition moments, OPA infrastructure, MCD improvements
   Dmitry Ganyushin       : Spin-Orbit,Spin-Spin,Magnetic field MRCI
   Miquel Garcia          : C-PCM and meta-GGA Hessian, CCSD/C-PCM, Gaussian charge scheme
   Tiago L. C. Gouveia    : GS-ROHF, GS-ROCIS
   Yang Guo               : DLPNO-NEVPT2, F12-NEVPT2, CIM, IAO-localization
   Andreas Hansen         : Spin unrestricted coupled pair/coupled cluster methods
   Ingolf Harden          : AUTO-CI MPn and infrastructure 
   Benjamin Helmich-Paris : MC-RPA, TRAH-(SCF,CASSCF), AVAS, COSX integrals, SCF dyn. polar.
   Lee Huntington         : MR-EOM, pCC
   Robert Izsak           : Overlap fitted RIJCOSX, COSX-SCS-MP3, EOM
   Riya Kayal             : Wick's Theorem for AUTO-CI, AUTO-CI UHF-CCSDT
   Emily Kempfer          : AUTO-CI, RHF CISDT and CCSDT
   Christian Kollmar      : KDIIS, OOCD, Brueckner-CCSD(T), CCSD density, CASPT2, CASPT2-K, improved NEVPT2
   Axel Koslowski         : Symmetry handling
   Simone Kossmann        : Meta GGA functionals, TD-DFT gradient, OOMP2, (MP2 Hessian; deprecated post 5.0)
   Lucas Lang             : DCDCAS
   Marvin Lechner         : AUTO-CI (C++ implementation), FIC-MRCC
   Spencer Leger          : CASSCF response
   Dagmar Lenk            : GEPOL surface, SMD, ORCA-2-JSON
   Dimitrios Liakos       : Extrapolation schemes; Compound Job, initial MDCI parallelization
   Dimitrios Manganas     : Further ROCIS development; embedding schemes. LFT, Crystal Embedding
   Dimitrios Pantazis     : SARC Basis sets
   Anastasios Papadopoulos: AUTO-CI, single reference methods and gradients
   Taras Petrenko         : pre 6.0 DFT Hessian and TD-DFT gradient, (ASA, deprecated), ECA, 1-Electron XAS/XES, NRVS
   Peter Pinski           : DLPNO-MP2, DLPNO-MP2 Gradient
   Christoph Reimann      : Effective Core Potentials
   Marius Retegan         : Local ZFS, SOC
   Christoph Riplinger    : Optimizer, TS searches, QM/MM, DLPNO-CCSD(T), (RO)-DLPNO pert. Triples
   Michael Roemelt        : Original ROCIS implementation
   Masaaki Saitow         : Open-shell DLPNO-CCSD energy and density
   Barbara Sandhoefer     : DKH picture change effects
   Kantharuban Sivalingam : CASSCF convergence/infrastructure, NEVPT2 and variants, FIC-MRCI
   Bernardo de Souza      : ESD, SOC TD-DFT
   Georgi Stoychev        : AutoAux, RI-MP2 NMR, DLPNO-MP2 response, X2C
   Van Anh Tran           : RI-MP2 g-tensors
   Willem Van den Heuvel  : Paramagnetic NMR
   Zikuan Wang            : NOTCH, Electric field optimization 
   Frank Wennmohs         : Technical directorship and infrastructure
   Hang Xu                : AUTO-CI-Response properties 


 We gratefully acknowledge several colleagues who have allowed us to
 interface, adapt or use parts of their codes:
   Stefan Grimme, W. Hujo, H. Kruse, P. Pracht,  : VdW corrections, initial TS optimization,
                  C. Bannwarth, S. Ehlert,         DFT functionals, gCP, sTDA/sTD-DF
                  L. Wittmann, M. Mueller
   Ed Valeev, F. Pavosevic, A. Kumar             : LibInt (2-el integral package), F12 methods
   Garnet Chan, S. Sharma, J. Yang, R. Olivares  : DMRG
   Ulf Ekstrom                                   : XCFun DFT Library
   Mihaly Kallay                                 : mrcc  (arbitrary order and MRCC methods)
   Frank Weinhold                                : gennbo (NPA and NBO analysis)
   Simon Mueller                                 : openCOSMO-RS
   Christopher J. Cramer and Donald G. Truhlar   : smd solvation model
   Lars Goerigk                                  : TD-DFT with DH, B97 family of functionals
   V. Asgeirsson, H. Jonsson                     : NEB implementation
   FAccTs GmbH                                   : IRC, NEB, NEB-TS, DLPNO-Multilevel, CI-OPT
                                                   MM, QMMM, 2- and 3-layer-ONIOM, Crystal-QMMM,
                                                   LR-CPCM, SF, NACMEs, symmetry and pop. for TD-DFT,
                                                   nearIR, NL-DFT gradient (VV10), updates on ESD,
                                                   ML-optimized integration grids, MBIS, APM,
                                                   GOAT, DOCKER, SOLVATOR, interface openCOSMO-RS
   S Lehtola, MJT Oliveira, MAL Marques          : LibXC Library
   Liviu Ungur et al                             : ANISO software


 Your calculation uses the libint2 library for the computation of 2-el integrals
 For citations please refer to: http://libint.valeyev.net

 Your ORCA version has been built with support for libXC version: 6.2.2
 For citations please refer to: https://libxc.gitlab.io

 This ORCA versions uses:
   CBLAS   interface :  Fast vector & matrix operations
   LAPACKE interface :  Fast linear algebra routines
   SCALAPACK package :  Parallel linear algebra routines
   Shared memory     :  Shared parallel matrices
   BLAS/LAPACK       :  OpenBLAS 0.3.27  USE64BITINT DYNAMIC_ARCH NO_AFFINITY SkylakeX SINGLE_THREADED
        Core in use  :  SkylakeX
   Copyright (c) 2011-2014, The OpenBLAS Project


Your calculation utilizes the geometrical counterpoise correction gCP
Please cite in your paper:
H.Kruse, S. Grimme J.Chem.Phys., 136, (2012), 154101 
   

Your calculation utilizes the atom-pairwise dispersion correction
based on EEQ partial charges (D4)


================================================================================

----- Orbital basis set information -----
Your calculation utilizes the basis: def2-SV(P)
   F. Weigend and R. Ahlrichs, Phys. Chem. Chem. Phys. 7, 3297 (2005).

----- AuxJ basis set information -----
Your calculation utilizes the auxiliary basis: def2/J
   F. Weigend, Phys. Chem. Chem. Phys. 8, 1057 (2006).

================================================================================
                                        WARNINGS
                       Please study these warnings very carefully!
================================================================================


================================================================================
                                       INPUT FILE
================================================================================
NAME = sp.inp
|  1> ! pbe def2-sv(p) def2/J RI DEFGRID1 loosescf d4 GCP(DFT/SV(P)) printgap
|  2> %output
|  3>     printlevel normal
|  4> end
|  5> * xyz 0 1
|  6> C -3.256895262 -1.1773474053 0.3120944294
|  7> C -1.7561419479 -0.9206208056 0.2402543545
|  8> C -1.466721282 0.5339082215 -0.1185475666
|  9> C -0.0040370925 0.8801350787 -0.2116110007
| 10> O 0.4089753146 1.992201932 -0.4841788352
| 11> O 0.7972790932 -0.1433902947 0.031859322
| 12> C 2.2143860145 0.0892543666 -0.0332951615
| 13> C 2.9231292404 -1.2193872919 0.2565961197
| 14> H -3.7270454355 -0.966574221 -0.6452951523
| 15> H -3.45007751 -2.2151284881 0.5689883076
| 16> H -3.7170937947 -0.5446024099 1.0670123902
| 17> H -1.3062565555 -1.5737041707 -0.5083983241
| 18> H -1.2961414344 -1.153985314 1.201178646
| 19> H -1.9070390938 1.2079506561 0.6204700231
| 20> H -1.9164247325 0.7899627634 -1.0811339545
| 21> H 2.4564568481 0.4722714883 -1.0301610505
| 22> H 2.4713348644 0.8624999739 0.6981929657
| 23> H 3.9958981151 -1.0631952571 0.2135854043
| 24> H 2.6520783815 -1.5785549862 1.2447829839
| 25> H 2.6396633251 -1.9671000118 -0.4779589006
| 26> *
| 27> 
| 28>                          ****END OF INPUT****
================================================================================

                       ****************************
                       * Single Point Calculation *
                       ****************************

---------------------------------
CARTESIAN COORDINATES (ANGSTROEM)
---------------------------------
  C     -3.256895   -1.177347    0.312094
  C     -1.756142   -0.920621    0.240254
  C     -1.466721    0.533908   -0.118548
  C     -0.004037    0.880135   -0.211611
  O      0.408975    1.992202   -0.484179
  O      0.797279   -0.143390    0.031859
  C      2.214386    0.089254   -0.033295
  C      2.923129   -1.219387    0.256596
  H     -3.727045   -0.966574   -0.645295
  H     -3.450078   -2.215128    0.568988
  H     -3.717094   -0.544602    1.067012
  H     -1.306257   -1.573704   -0.508398
  H     -1.296141   -1.153985    1.201179
  H     -1.907039    1.207951    0.620470
  H     -1.916425    0.789963   -1.081134
  H      2.456457    0.472271   -1.030161
  H      2.471335    0.862500    0.698193
  H      3.995898   -1.063195    0.213585
  H      2.652078   -1.578555    1.244783
  H      2.639663   -1.967100   -0.477959

----------------------------
CARTESIAN COORDINATES (A.U.)
----------------------------
  NO LB      ZA    FRAG     MASS         X           Y           Z
   0 C     6.0000    0    12.011   -6.154640   -2.224864    0.589773
   1 C     6.0000    0    12.011   -3.318627   -1.739721    0.454015
   2 C     6.0000    0    12.011   -2.771702    1.008940   -0.224022
   3 C     6.0000    0    12.011   -0.007629    1.663214   -0.399887
   4 O     8.0000    0    15.999    0.772851    3.764716   -0.914965
   5 O     8.0000    0    15.999    1.506639   -0.270968    0.060205
   6 C     6.0000    0    12.011    4.184583    0.168666   -0.062919
   7 C     6.0000    0    12.011    5.523914   -2.304308    0.484896
   8 H     1.0000    0     1.008   -7.043095   -1.826561   -1.219431
   9 H     1.0000    0     1.008   -6.519702   -4.185986    1.075232
  10 H     1.0000    0     1.008   -7.024289   -1.029149    2.016361
  11 H     1.0000    0     1.008   -2.468467   -2.973870   -0.960734
  12 H     1.0000    0     1.008   -2.449352   -2.180716    2.269899
  13 H     1.0000    0     1.008   -3.603782    2.282696    1.172518
  14 H     1.0000    0     1.008   -3.621518    1.492813   -2.043047
  15 H     1.0000    0     1.008    4.642031    0.892464   -1.946722
  16 H     1.0000    0     1.008    4.670146    1.629889    1.319393
  17 H     1.0000    0     1.008    7.551153   -2.009148    0.403618
  18 H     1.0000    0     1.008    5.011702   -2.983037    2.352299
  19 H     1.0000    0     1.008    4.988241   -3.717280   -0.903211

--------------------------------
INTERNAL COORDINATES (ANGSTROEM)
--------------------------------
 C      0   0   0     0.000000000000     0.00000000     0.00000000
 C      1   0   0     1.524247372685     0.00000000     0.00000000
 C      2   1   0     1.525830210447   111.00184805     0.00000000
 C      3   2   1     1.505981034949   114.70314538   179.97859048
 O      4   3   2     1.217195612476   123.60348402   180.15417601
 O      4   3   2     1.322493711703   113.52740738     0.16021236
 C      6   4   3     1.437553710839   117.62625327   180.00263165
 C      7   6   4     1.516211365719   108.20698747   180.90226161
 H      1   2   3     1.087226440080   110.58584365    60.08413040
 H      1   2   3     1.086417701170   110.31052848   180.05314484
 H      1   2   3     1.087221249903   110.57656425   300.01346303
 H      2   1   3     1.090594141393   109.73372316   239.02984570
 H      2   1   3     1.090612195144   109.73767298   120.97138368
 H      3   2   1     1.092867776502   110.64073307    58.91883474
 H      3   2   1     1.092872213934   110.63502263   301.03818135
 H      7   6   4     1.095007764651   108.40859366   302.42831433
 H      7   6   4     1.094991488966   108.38042641    59.43327033
 H      8   7   6     1.084932685423   109.29106455   180.09841682
 H      8   7   6     1.085809964642   110.04850184   300.13259982
 H      8   7   6     1.085816888101   110.05797392    60.06428028

---------------------------
INTERNAL COORDINATES (A.U.)
---------------------------
 C      0   0   0     0.000000000000     0.00000000     0.00000000
 C      1   0   0     2.880410094724     0.00000000     0.00000000
 C      2   1   0     2.883401224608   111.00184805     0.00000000
 C      3   2   1     2.845891718933   114.70314538   179.97859048
 O      4   3   2     2.300166358990   123.60348402   180.15417601
 O      4   3   2     2.499150928952   113.52740738     0.16021236
 C      6   4   3     2.716582816289   117.62625327   180.00263165
 C      7   6   4     2.865224242348   108.20698747   180.90226161
 H      1   2   3     2.054560217310   110.58584365    60.08413040
 H      1   2   3     2.053031922256   110.31052848   180.05314484
 H      1   2   3     2.054550409297   110.57656425   300.01346303
 H      2   1   3     2.060924250491   109.73372316   239.02984570
 H      2   1   3     2.060958367136   109.73767298   120.97138368
 H      3   2   1     2.065220798176   110.64073307    58.91883474
 H      3   2   1     2.065229183708   110.63502263   301.03818135
 H      7   6   4     2.069264789708   108.40859366   302.42831433
 H      7   6   4     2.069234033121   108.38042641    59.43327033
 H      8   7   6     2.050225649189   109.29106455   180.09841682
 H      8   7   6     2.051883466657   110.04850184   300.13259982
 H      8   7   6     2.051896550097   110.05797392    60.06428028

---------------------
BASIS SET INFORMATION
---------------------
There are 3 groups of distinct atoms

 Group   1 Type C   : 7s4p1d contracted to 3s2p1d pattern {511/31/1}
 Group   2 Type O   : 7s4p1d contracted to 3s2p1d pattern {511/31/1}
 Group   3 Type H   : 4s contracted to 2s pattern {31}

Atom   0C    basis set group =>   1
Atom   1C    basis set group =>   1
Atom   2C    basis set group =>   1
Atom   3C    basis set group =>   1
Atom   4O    basis set group =>   2
Atom   5O    basis set group =>   2
Atom   6C    basis set group =>   1
Atom   7C    basis set group =>   1
Atom   8H    basis set group =>   3
Atom   9H    basis set group =>   3
Atom  10H    basis set group =>   3
Atom  11H    basis set group =>   3
Atom  12H    basis set group =>   3
Atom  13H    basis set group =>   3
Atom  14H    basis set group =>   3
Atom  15H    basis set group =>   3
Atom  16H    basis set group =>   3
Atom  17H    basis set group =>   3
Atom  18H    basis set group =>   3
Atom  19H    basis set group =>   3
---------------------------------
AUXILIARY/J BASIS SET INFORMATION
---------------------------------
There are 3 groups of distinct atoms

 Group   1 Type C   : 12s5p4d2f1g contracted to 6s4p3d1f1g pattern {711111/2111/211/2/1}
 Group   2 Type O   : 12s5p4d2f1g contracted to 6s4p3d1f1g pattern {711111/2111/211/2/1}
 Group   3 Type H   : 5s2p1d contracted to 3s1p1d pattern {311/2/1}

Atom   0C    basis set group =>   1
Atom   1C    basis set group =>   1
Atom   2C    basis set group =>   1
Atom   3C    basis set group =>   1
Atom   4O    basis set group =>   2
Atom   5O    basis set group =>   2
Atom   6C    basis set group =>   1
Atom   7C    basis set group =>   1
Atom   8H    basis set group =>   3
Atom   9H    basis set group =>   3
Atom  10H    basis set group =>   3
Atom  11H    basis set group =>   3
Atom  12H    basis set group =>   3
Atom  13H    basis set group =>   3
Atom  14H    basis set group =>   3
Atom  15H    basis set group =>   3
Atom  16H    basis set group =>   3
Atom  17H    basis set group =>   3
Atom  18H    basis set group =>   3
Atom  19H    basis set group =>   3
------------------------------------------------------------------------------
                             ORCA STARTUP CALCULATIONS
                           -- RI-GTO INTEGRALS CHOSEN --
------------------------------------------------------------------------------
------------------------------------------------------------------------------
                   ___                                                        
                  /   \      - P O W E R E D   B Y -                         
                 /     \                                                     
                 |  |  |   _    _      __       _____    __    __             
                 |  |  |  | |  | |    /  \     |  _  \  |  |  /  |          
                  \  \/   | |  | |   /    \    | | | |  |  | /  /          
                 / \  \   | |__| |  /  /\  \   | |_| |  |  |/  /          
                |  |  |   |  __  | /  /__\  \  |    /   |      \           
                |  |  |   | |  | | |   __   |  |    \   |  |\   \          
                \     /   | |  | | |  |  |  |  | |\  \  |  | \   \       
                 \___/    |_|  |_| |__|  |__|  |_| \__\ |__|  \__/        
                                                                              
                      - O R C A' S   B I G   F R I E N D -                    
                                      &                                       
                       - I N T E G R A L  F E E D E R -                       
                                                                              
 v1 FN, 2020, v2 2021, v3 2022-2024                                           
------------------------------------------------------------------------------


----------------------
SHARK INTEGRAL PACKAGE
----------------------

Number of atoms                             ...     20
Number of basis functions                   ...    136
Number of shells                            ...     72
Maximum angular momentum                    ...      2
Integral batch strategy                     ... SHARK/LIBINT Hybrid
RI-J (if used) integral strategy            ... SPLIT-RIJ (Revised 2003 algorithm where possible)
Printlevel                                  ...      1
Contraction scheme used                     ... SEGMENTED contraction
Prescreening option                         ... SCHWARTZ
   Thresh                                   ... 1.000e-09
   Tcut                                     ... 1.000e-10
   Tpresel                                  ... 1.000e-10 
Coulomb Range Separation                    ... NOT USED
Exchange Range Separation                   ... NOT USED
Multipole approximations                    ... NOT USED
Finite Nucleus Model                        ... NOT USED
CABS basis                                  ... NOT available
Auxiliary Coulomb fitting basis             ... AVAILABLE
   # of basis functions in Aux-J            ...    524
   # of shells in Aux-J                     ...    180
   Maximum angular momentum in Aux-J        ...      4
Auxiliary J/K fitting basis                 ... NOT available
Auxiliary Correlation fitting basis         ... NOT available
Auxiliary 'external' fitting basis          ... NOT available

Checking pre-screening integrals            ... done (  0.0 sec) Dimension = 72
Check shell pair data                       ... done (  0.0 sec)
Shell pair information
Shell pair cut-off parameter TPreSel        ...   1.0e-10
Total number of shell pairs                 ...      2628
Shell pairs after pre-screening             ...      2387
Total number of primitive shell pairs       ...     10580
Primitive shell pairs kept                  ...      6624
          la=0 lb=0:   1050 shell pairs
          la=1 lb=0:    720 shell pairs
          la=1 lb=1:    133 shell pairs
          la=2 lb=0:    334 shell pairs
          la=2 lb=1:    120 shell pairs
          la=2 lb=2:     30 shell pairs

Calculating one electron integrals          ... done (  0.0 sec)
Calculating RI/J V-Matrix + Cholesky decomp.... done (  0.1 sec)
Calculating Nuclear repulsion               ... done (  0.0 sec) ENN=    388.467613464824 Eh

Diagonalization of the overlap matrix:
Smallest eigenvalue                        ... 1.222e-03
Time for diagonalization                   ...    0.003 sec
Threshold for overlap eigenvalues          ... 1.000e-07
Number of eigenvalues below threshold      ... 0
Time for construction of square roots      ...    0.021 sec
Total time needed                          ...    0.033 sec

-------------------
DFT GRID GENERATION
-------------------

General Integration Accuracy     IntAcc      ... 4.159
Radial Grid Type                 RadialGrid  ... OptM3 with GC (2021)
Angular Grid (max. ang.)         AngularGrid ... 3 (Lebedev-194)
Angular grid pruning method      GridPruning ... 4 (adaptive)
Weight generation scheme         WeightScheme... mBecke (2022)
Basis function cutoff            BFCut       ... 1.0000e-10
Integration weight cutoff        WCut        ... 1.0000e-14
Partially contracted basis set               ... off
Rotationally invariant grid construction     ... off
Angular grids for H and He will be reduced by one unit

Total number of grid points                  ...    43056
Total number of batches                      ...      683
Average number of points per batch           ...       63
Average number of grid points per atom       ...     2153
Initializing property integral containers    ... done (  0.0 sec)

SHARK setup successfully completed in   0.8 seconds

Maximum memory used throughout the entire STARTUP-calculation: 21.2 MB
-------------------------------------------------------------------------------
                                 ORCA GUESS
                   Start orbitals & Density for SCF / CASSCF
-------------------------------------------------------------------------------

------------
SCF SETTINGS
------------
Hamiltonian:
 Density Functional     Method          .... DFT(GTOs)
 Exchange Functional    Exchange        .... PBE
   PBE kappa parameter   XKappa         ....  0.804000
   PBE mue parameter    XMuePBE         ....  0.219520
 Correlation Functional Correlation     .... PBE
   PBE beta parameter  CBetaPBE         ....  0.066725
 LDA part of GGA corr.  LDAOpt          .... PW91-LDA
 Gradients option       PostSCFGGA      .... off
   NL short-range parameter             ....  6.400000
 RI-approximation to the Coulomb term is turned on
   Number of AuxJ basis functions       .... 524


General Settings:
 Integral files         IntName         .... sp
 Hartree-Fock type      HFTyp           .... RHF
 Total Charge           Charge          ....    0
 Multiplicity           Mult            ....    1
 Number of Electrons    NEL             ....   64
 Basis Dimension        Dim             ....  136
 Nuclear Repulsion      ENuc            ....    388.4676134648 Eh

Convergence Acceleration:
 AO-DIIS                CNVDIIS         .... on
   Start iteration      DIISMaxIt       ....    12
   Startup error        DIISStart       ....  0.200000
   # of expansion vecs  DIISMaxEq       ....     5
   Bias factor          DIISBfac        ....   1.050
   Max. coefficient     DIISMaxC        ....  10.000
 MO-DIIS                CNVKDIIS        .... off
 Trust-Rad. Augm. Hess. CNVTRAH         .... auto
   Auto Start mean grad. ratio tolernc. ....  1.125000
   Auto Start start iteration           ....    50
   Auto Start num. interpolation iter.  ....    10
   Max. Number of Micro iterations      ....    24
   Max. Number of Macro iterations      .... Maxiter - #DIIS iter
   Number of Davidson start vectors     ....     2
   Converg. threshold    (grad. norm)   ....   1.000e-04
   Grad. Scal. Fac. for Micro threshold ....   0.100
   Minimum threshold for Micro iter.    ....   1.000e-02
   NR start threshold (gradient norm)   ....   1.000e-04
   Initial trust radius                 ....   0.400
   Minimum AH scaling param. (alpha)    ....   1.000
   Maximum AH scaling param. (alpha)    .... 1000.000
   Quad. conv. algorithm                .... NR
   White noise on init. David. guess    .... on
   Maximum white noise                  ....   0.010
   Pseudo random numbers                .... off
   Inactive MOs                         .... canonical
   Orbital update algorithm             .... Taylor
   Preconditioner                       .... Diag
   Full preconditioner red. dimension   ....   250
 SOSCF                  CNVSOSCF        .... on
   Start iteration      SOSCFMaxIt      ....   150
   Startup grad/error   SOSCFStart      ....  0.003300
   Hessian update       SOSCFHessUp     .... L-BFGS
 Level Shifting         CNVShift        .... on
   Level shift para.    LevelShift      ....    0.2500
   Turn off err/grad.   ShiftErr        ....    0.0010
 Zerner damping         CNVZerner       .... off
 Static damping         CNVDamp         .... on
   Fraction old density DampFac         ....    0.7000
   Max. Damping (<1)    DampMax         ....    0.9800
   Min. Damping (>=0)   DampMin         ....    0.0000
   Turn off err/grad.   DampErr         ....    0.1000

SCF Procedure:
 Maximum # iterations   MaxIter         ....   125
 SCF integral mode      SCFMode         .... Direct
   Integral package                     .... SHARK and LIBINT hybrid scheme
 Reset frequency        DirectResetFreq ....    20
 Integral Threshold     Thresh          ....  1.000e-09 Eh
 Primitive CutOff       TCut            ....  1.000e-10 Eh

Convergence Tolerance:
 Convergence Check Mode ConvCheckMode   .... Total+1el-Energy
 Convergence forced     ConvForced      .... 0
 Energy Change          TolE            ....  1.000e-05 Eh
 1-El. energy change                    ....  1.000e-02 Eh
 Orbital Gradient       TolG            ....  1.000e-04
 Orbital Rotation angle TolX            ....  1.000e-04
 DIIS Error             TolErr          ....  5.000e-04

------------------------------
INITIAL GUESS: MODEL POTENTIAL
------------------------------
Loading Hartree-Fock densities                     ... done
Calculating cut-offs                               ... done
Initializing the effective Hamiltonian             ... done
Setting up the integral package (SHARK)            ... done
Starting the Coulomb interaction                   ... done (   0.2 sec)
Making the grid                                    ... done (   0.2 sec)
Mapping shells                                     ... done
Starting the XC term evaluation                    ... done (   0.2 sec)
  promolecular density results
     # of electrons  =     63.996376611
     EX              =    -50.545136305
     EC              =     -2.106038318
     EX+EC           =    -52.651174622
Transforming the Hamiltonian                       ... done (   0.0 sec)
Diagonalizing the Hamiltonian                      ... done (   0.0 sec)
Back transforming the eigenvectors                 ... done (   0.0 sec)
Now organizing SCF variables                       ... done
                      ------------------
                      INITIAL GUESS DONE (   0.6 sec)
                      ------------------
             **** ENERGY FILE WAS UPDATED (sp.en.tmp) ****
Finished Guess after   0.8 sec
Maximum memory used throughout the entire GUESS-calculation: 16.1 MB

-------------------------------------------------------------------------------------------
                                      ORCA LEAN-SCF
                              memory conserving SCF solver
-------------------------------------------------------------------------------------------

----------------------------------------D-I-I-S--------------------------------------------
Iteration    Energy (Eh)           Delta-E    RMSDP     MaxDP     DIISErr   Damp  Time(sec)
-------------------------------------------------------------------------------------------
               ***  Starting incremental Fock matrix formation  ***
    1    -385.2808924161521986     0.00e+00  5.24e-03  1.09e-01  2.53e-01  0.700   1.0
    2    -385.4077818740167345    -1.27e-01  3.27e-03  6.47e-02  7.77e-02  0.700   0.9
                               ***Turning on AO-DIIS***
    3    -385.4466971395898440    -3.89e-02  1.30e-03  1.42e-02  2.58e-02  0.700   0.9
    4    -385.4720617123851412    -2.54e-02  1.82e-03  2.36e-02  1.76e-02  0.000   0.9
    5    -385.5309965503674334    -5.89e-02  6.00e-04  9.08e-03  8.91e-03  0.000   0.9
    6    -385.5317809371359203    -7.84e-04  2.21e-04  2.80e-03  3.59e-03  0.000   0.9
                              *** Initializing SOSCF ***
---------------------------------------S-O-S-C-F--------------------------------------
Iteration    Energy (Eh)           Delta-E    RMSDP     MaxDP     MaxGrad    Time(sec)
--------------------------------------------------------------------------------------
    7    -385.5318435760260058    -6.26e-05  7.70e-05  1.13e-03  1.46e-03     1.0
               *** Restarting incremental Fock matrix formation ***
    8    -385.5318515098304601    -7.93e-06  5.56e-05  8.55e-04  1.26e-04     1.0
    9    -385.5318509558923665     5.54e-07  2.42e-05  5.44e-04  3.07e-04     0.8
                 **** Energy Check signals convergence ****

               *****************************************************
               *                     SUCCESS                       *
               *           SCF CONVERGED AFTER   9 CYCLES          *
               *****************************************************

             **** ENERGY FILE WAS UPDATED (sp.en.tmp) ****

----------------
TOTAL SCF ENERGY
----------------

Total Energy       :       -385.53185095589237 Eh          -10490.85501 eV

Components:
Nuclear Repulsion  :        388.46761346482396 Eh           10570.74117 eV
Electronic Energy  :       -773.99946442071632 Eh          -21061.59618 eV
One Electron Energy:      -1293.37535875273397 Eh          -35194.53277 eV
Two Electron Energy:        519.37589433201765 Eh           14132.93659 eV

Virial components:
Potential Energy   :       -767.93960275354425 Eh          -20896.69896 eV
Kinetic Energy     :        382.40775179765194 Eh           10405.84395 eV
Virial Ratio       :          2.00816954976345

DFT components:
N(Alpha)           :       32.000234369631 electrons
N(Beta)            :       32.000234369631 electrons
N(Total)           :       64.000468739263 electrons
E(X)               :      -51.603567900005 Eh       
E(C)               :       -2.123351732998 Eh       
E(XC)              :      -53.726919633003 Eh       

---------------
SCF CONVERGENCE
---------------

  Last Energy change         ...   -5.5394e-07  Tolerance :   1.0000e-05
  Last MAX-Density change    ...    5.4436e-04  Tolerance :   1.0000e-03
  Last RMS-Density change    ...    2.4207e-05  Tolerance :   1.0000e-04
  Last DIIS Error            ...    1.4589e-03  Tolerance :   5.0000e-04
  Last Orbital Gradient      ...    3.0653e-04  Tolerance :   1.0000e-04
  Last Orbital Rotation      ...    5.5581e-04  Tolerance :   1.0000e-04


----------------
ORBITAL ENERGIES
----------------

  NO   OCC          E(Eh)            E(eV) 
   0   2.0000     -18.797850      -511.5155 
   1   2.0000     -18.727006      -509.5877 
   2   2.0000     -10.000351      -272.1234 
   3   2.0000      -9.946220      -270.6504 
   4   2.0000      -9.895999      -269.2838 
   5   2.0000      -9.888989      -269.0931 
   6   2.0000      -9.888561      -269.0814 
   7   2.0000      -9.877517      -268.7809 
   8   2.0000      -1.004418       -27.3316 
   9   2.0000      -0.902911       -24.5694 
  10   2.0000      -0.728982       -19.8366 
  11   2.0000      -0.697915       -18.9912 
  12   2.0000      -0.638139       -17.3646 
  13   2.0000      -0.579099       -15.7581 
  14   2.0000      -0.534602       -14.5473 
  15   2.0000      -0.508234       -13.8298 
  16   2.0000      -0.450762       -12.2659 
  17   2.0000      -0.439075       -11.9478 
  18   2.0000      -0.423423       -11.5219 
  19   2.0000      -0.400319       -10.8932 
  20   2.0000      -0.378423       -10.2974 
  21   2.0000      -0.369709       -10.0603 
  22   2.0000      -0.358855        -9.7649 
  23   2.0000      -0.347836        -9.4651 
  24   2.0000      -0.342798        -9.3280 
  25   2.0000      -0.321464        -8.7475 
  26   2.0000      -0.311562        -8.4780 
  27   2.0000      -0.307375        -8.3641 
  28   2.0000      -0.293431        -7.9847 
  29   2.0000      -0.292967        -7.9720 
  30   2.0000      -0.253401        -6.8954 
  31   2.0000      -0.210706        -5.7336 
  32   0.0000      -0.015965        -0.4344 
  33   0.0000       0.031679         0.8620 
  34   0.0000       0.048162         1.3105 
  35   0.0000       0.075909         2.0656 
  36   0.0000       0.076496         2.0816 
  37   0.0000       0.089850         2.4449 
  38   0.0000       0.091461         2.4888 
  39   0.0000       0.096441         2.6243 
  40   0.0000       0.103178         2.8076 
  41   0.0000       0.123607         3.3635 
  42   0.0000       0.126708         3.4479 
*Only the first 10 virtual orbitals were printed.

                    ********************************
                    * MULLIKEN POPULATION ANALYSIS *
                    ********************************

-----------------------
MULLIKEN ATOMIC CHARGES
-----------------------
   0 C :   -0.256697
   1 C :   -0.184029
   2 C :   -0.198367
   3 C :    0.136470
   4 O :   -0.221024
   5 O :   -0.237326
   6 C :   -0.029530
   7 C :   -0.271645
   8 H :    0.097116
   9 H :    0.104128
  10 H :    0.097120
  11 H :    0.091871
  12 H :    0.091862
  13 H :    0.114246
  14 H :    0.114284
  15 H :    0.105927
  16 H :    0.105449
  17 H :    0.111104
  18 H :    0.114542
  19 H :    0.114498
Sum of atomic charges:    0.0000000

--------------------------------
MULLIKEN REDUCED ORBITAL CHARGES
--------------------------------
  0 C s       :     3.077931  s :     3.077931
      pz      :     1.065554  p :     3.149331
      px      :     1.028375
      py      :     1.055402
      dz2     :     0.004782  d :     0.029434
      dxz     :     0.008251
      dyz     :     0.004295
      dx2y2   :     0.007024
      dxy     :     0.005083

  1 C s       :     3.062218  s :     3.062218
      pz      :     1.054051  p :     3.084983
      px      :     1.017530
      py      :     1.013402
      dz2     :     0.005803  d :     0.036828
      dxz     :     0.008270
      dyz     :     0.007468
      dx2y2   :     0.007891
      dxy     :     0.007396

  2 C s       :     3.016188  s :     3.016188
      pz      :     1.066322  p :     3.148688
      px      :     1.052256
      py      :     1.030110
      dz2     :     0.005944  d :     0.033491
      dxz     :     0.005213
      dyz     :     0.008369
      dx2y2   :     0.007270
      dxy     :     0.006696

  3 C s       :     3.051270  s :     3.051270
      pz      :     0.857956  p :     2.681118
      px      :     0.975985
      py      :     0.847176
      dz2     :     0.009618  d :     0.131143
      dxz     :     0.012094
      dyz     :     0.025967
      dx2y2   :     0.037051
      dxy     :     0.046411

  4 O s       :     3.749968  s :     3.749968
      pz      :     1.390388  p :     4.453719
      px      :     1.696202
      py      :     1.367128
      dz2     :     0.002174  d :     0.017338
      dxz     :     0.000830
      dyz     :     0.004926
      dx2y2   :     0.004950
      dxy     :     0.004457

  5 O s       :     3.739006  s :     3.739006
      pz      :     1.698293  p :     4.482099
      px      :     1.233609
      py      :     1.550197
      dz2     :     0.002130  d :     0.016220
      dxz     :     0.002222
      dyz     :     0.002523
      dx2y2   :     0.004229
      dxy     :     0.005117

  6 C s       :     3.085751  s :     3.085751
      pz      :     1.090057  p :     2.884644
      px      :     0.739285
      py      :     1.055303
      dz2     :     0.009841  d :     0.059134
      dxz     :     0.009887
      dyz     :     0.010443
      dx2y2   :     0.017595
      dxy     :     0.011369

  7 C s       :     3.079917  s :     3.079917
      pz      :     1.086567  p :     3.163897
      px      :     1.049944
      py      :     1.027386
      dz2     :     0.006262  d :     0.027831
      dxz     :     0.001870
      dyz     :     0.008740
      dx2y2   :     0.007186
      dxy     :     0.003773

  8 H s       :     0.902884  s :     0.902884

  9 H s       :     0.895872  s :     0.895872

 10 H s       :     0.902880  s :     0.902880

 11 H s       :     0.908129  s :     0.908129

 12 H s       :     0.908138  s :     0.908138

 13 H s       :     0.885754  s :     0.885754

 14 H s       :     0.885716  s :     0.885716

 15 H s       :     0.894073  s :     0.894073

 16 H s       :     0.894551  s :     0.894551

 17 H s       :     0.888896  s :     0.888896

 18 H s       :     0.885458  s :     0.885458

 19 H s       :     0.885502  s :     0.885502


------------------------
MULLIKEN OVERLAP CHARGES
------------------------
B(  0-C ,  1-C ) :   0.8452 B(  0-C ,  2-C ) :  -0.0944 B(  0-C ,  8-H ) :   0.7527 
B(  0-C ,  9-H ) :   0.7327 B(  0-C , 10-H ) :   0.7527 B(  1-C ,  2-C ) :   0.5984 
B(  1-C ,  5-O ) :   0.0516 B(  1-C , 11-H ) :   0.7170 B(  1-C , 12-H ) :   0.7174 
B(  2-C ,  3-C ) :   0.5161 B(  2-C ,  4-O ) :  -0.1894 B(  2-C ,  5-O ) :  -0.3197 
B(  2-C , 13-H ) :   0.6259 B(  2-C , 14-H ) :   0.6248 B(  3-C ,  4-O ) :   1.3669 
B(  3-C ,  5-O ) :   0.7928 B(  3-C ,  6-C ) :  -0.0727 B(  4-O ,  5-O ) :  -0.1659 
B(  5-O ,  6-C ) :   0.5339 B(  5-O ,  7-C ) :  -0.1052 B(  5-O , 15-H ) :  -0.0632 
B(  5-O , 16-H ) :  -0.0629 B(  6-C ,  7-C ) :   0.8238 B(  6-C , 15-H ) :   0.7405 
B(  6-C , 16-H ) :   0.7420 B(  7-C , 15-H ) :  -0.0518 B(  7-C , 16-H ) :  -0.0523 
B(  7-C , 17-H ) :   0.7214 B(  7-C , 18-H ) :   0.7350 B(  7-C , 19-H ) :   0.7358 
B(  8-H , 10-H ) :  -0.0533 B( 11-H , 12-H ) :  -0.0661 B( 15-H , 16-H ) :  -0.0824 
B( 18-H , 19-H ) :  -0.0520 


                     *******************************
                     * LOEWDIN POPULATION ANALYSIS *
                     *******************************

----------------------
LOEWDIN ATOMIC CHARGES
----------------------
   0 C :   -0.339852
   1 C :   -0.237065
   2 C :   -0.248378
   3 C :    0.033359
   4 O :   -0.178097
   5 O :   -0.062094
   6 C :   -0.107770
   7 C :   -0.350857
   8 H :    0.117148
   9 H :    0.120124
  10 H :    0.117121
  11 H :    0.118010
  12 H :    0.118019
  13 H :    0.142001
  14 H :    0.142069
  15 H :    0.116673
  16 H :    0.116538
  17 H :    0.130411
  18 H :    0.126318
  19 H :    0.126324

-------------------------------
LOEWDIN REDUCED ORBITAL CHARGES
-------------------------------
  0 C s       :     2.944396  s :     2.944396
      pz      :     1.124923  p :     3.324334
      px      :     1.079233
      py      :     1.120178
      dz2     :     0.012644  d :     0.071122
      dxz     :     0.017872
      dyz     :     0.010464
      dx2y2   :     0.018679
      dxy     :     0.011464

  1 C s       :     2.905212  s :     2.905212
      pz      :     1.109063  p :     3.242743
      px      :     1.074033
      py      :     1.059647
      dz2     :     0.014834  d :     0.089110
      dxz     :     0.017886
      dyz     :     0.017193
      dx2y2   :     0.022477
      dxy     :     0.016720

  2 C s       :     2.914592  s :     2.914592
      pz      :     1.110248  p :     3.249100
      px      :     1.061878
      py      :     1.076974
      dz2     :     0.015083  d :     0.084686
      dxz     :     0.012871
      dyz     :     0.018176
      dx2y2   :     0.022045
      dxy     :     0.016512

  3 C s       :     2.846725  s :     2.846725
      pz      :     0.845880  p :     2.823429
      px      :     1.003337
      py      :     0.974213
      dz2     :     0.021335  d :     0.296487
      dxz     :     0.022216
      dyz     :     0.053403
      dx2y2   :     0.089039
      dxy     :     0.110493

  4 O s       :     3.553606  s :     3.553606
      pz      :     1.398528  p :     4.593941
      px      :     1.710665
      py      :     1.484748
      dz2     :     0.004116  d :     0.030550
      dxz     :     0.001208
      dyz     :     0.007236
      dx2y2   :     0.009584
      dxy     :     0.008405

  5 O s       :     3.449035  s :     3.449035
      pz      :     1.684333  p :     4.580076
      px      :     1.295619
      py      :     1.600123
      dz2     :     0.004315  d :     0.032983
      dxz     :     0.004265
      dyz     :     0.003455
      dx2y2   :     0.009309
      dxy     :     0.011640

  6 C s       :     2.924185  s :     2.924185
      pz      :     1.134971  p :     3.051870
      px      :     0.812726
      py      :     1.104173
      dz2     :     0.022174  d :     0.131715
      dxz     :     0.020859
      dyz     :     0.023634
      dx2y2   :     0.038257
      dxy     :     0.026791

  7 C s       :     2.948277  s :     2.948277
      pz      :     1.133529  p :     3.333544
      px      :     1.110844
      py      :     1.089171
      dz2     :     0.015676  d :     0.069036
      dxz     :     0.004218
      dyz     :     0.020373
      dx2y2   :     0.018211
      dxy     :     0.010558

  8 H s       :     0.882852  s :     0.882852

  9 H s       :     0.879876  s :     0.879876

 10 H s       :     0.882879  s :     0.882879

 11 H s       :     0.881990  s :     0.881990

 12 H s       :     0.881981  s :     0.881981

 13 H s       :     0.857999  s :     0.857999

 14 H s       :     0.857931  s :     0.857931

 15 H s       :     0.883327  s :     0.883327

 16 H s       :     0.883462  s :     0.883462

 17 H s       :     0.869589  s :     0.869589

 18 H s       :     0.873682  s :     0.873682

 19 H s       :     0.873676  s :     0.873676


---------------------------------
LOEWDIN BOND ORDERS (THRESH 0.050000)
---------------------------------
B(  0-C ,  1-C ) :   1.1296 B(  0-C ,  2-C ) :   0.0588 B(  0-C ,  8-H ) :   0.9406 
B(  0-C ,  9-H ) :   0.9389 B(  0-C , 10-H ) :   0.9406 B(  1-C ,  2-C ) :   1.0877 
B(  1-C ,  3-C ) :   0.0569 B(  1-C , 11-H ) :   0.9077 B(  1-C , 12-H ) :   0.9076 
B(  2-C ,  3-C ) :   1.0658 B(  2-C ,  4-O ) :   0.1001 B(  2-C ,  5-O ) :   0.0641 
B(  2-C , 13-H ) :   0.8833 B(  2-C , 14-H ) :   0.8832 B(  3-C ,  4-O ) :   2.1999 
B(  3-C ,  5-O ) :   1.4039 B(  3-C ,  6-C ) :   0.0773 B(  4-O ,  5-O ) :   0.2095 
B(  5-O ,  6-C ) :   1.0642 B(  5-O ,  7-C ) :   0.0554 B(  6-C ,  7-C ) :   1.1565 
B(  6-C , 15-H ) :   0.9124 B(  6-C , 16-H ) :   0.9129 B(  7-C , 17-H ) :   0.9305 
B(  7-C , 18-H ) :   0.9373 B(  7-C , 19-H ) :   0.9374 

------------------------------------------
LOEWDIN REDUCED ORBITAL POPULATIONS PER MO
-------------------------------------------
THRESHOLD FOR PRINTING IS 0.1%%
                      0         1         2         3         4         5   
                 -18.79785 -18.72701 -10.00035  -9.94622  -9.89600  -9.88899
                   2.00000   2.00000   2.00000   2.00000   2.00000   2.00000
                  --------  --------  --------  --------  --------  --------
 2 C  s               0.0       0.0       0.0       0.0      99.6       0.0
 3 C  s               0.0       0.0      99.4       0.0       0.0       0.0
 3 C  px              0.0       0.0       0.0       0.0       0.1       0.0
 4 O  s               0.0      99.9       0.0       0.0       0.0       0.0
 4 O  py              0.0       0.0       0.2       0.0       0.0       0.0
 5 O  s              99.9       0.0       0.0       0.0       0.0       0.0
 5 O  py              0.0       0.0       0.1       0.0       0.0       0.0
 6 C  s               0.0       0.0       0.0      99.7       0.0       0.0
 7 C  s               0.0       0.0       0.0       0.0       0.0      99.7

                      6         7         8         9        10        11   
                  -9.88856  -9.87752  -1.00442  -0.90291  -0.72898  -0.69792
                   2.00000   2.00000   2.00000   2.00000   2.00000   2.00000
                  --------  --------  --------  --------  --------  --------
 0 C  s               0.0      99.7       0.0       0.0       6.5       6.8
 0 C  px              0.1       0.0       0.0       0.0       1.7       0.9
 0 C  py              0.0       0.0       0.0       0.0       0.2       0.1
 1 C  s              99.6       0.0       0.1       0.0      16.4       8.6
 1 C  px              0.0       0.1       0.1       0.0       0.1       0.8
 1 C  py              0.0       0.0       0.1       0.0       1.5       0.1
 2 C  s               0.0       0.0       0.9       0.3      18.1       3.0
 2 C  px              0.0       0.0       1.7       0.3       0.1       0.9
 2 C  py              0.1       0.0       0.0       0.4       1.5       0.7
 3 C  s               0.0       0.0      17.8       5.9       3.2       0.7
 3 C  pz              0.0       0.0       0.0       1.3       0.2       0.1
 3 C  px              0.0       0.0       4.8       0.0       5.2       1.0
 3 C  py              0.0       0.0       0.7      22.4       3.2       1.6
 3 C  dz2             0.0       0.0       0.5       0.1       0.0       0.0
 3 C  dyz             0.0       0.0       0.2       0.1       0.0       0.0
 3 C  dx2y2           0.0       0.0       0.2       0.4       0.1       0.0
 3 C  dxy             0.0       0.0       0.2       1.3       0.0       0.2
 4 O  s               0.0       0.0       9.7      43.3       1.2       0.2
 4 O  pz              0.0       0.0       0.1       0.2       0.0       0.0
 4 O  px              0.0       0.0       0.1       0.7       0.1       0.0
 4 O  py              0.0       0.0       2.3       3.7       0.1       0.1
 5 O  s               0.0       0.0      43.1      13.5       0.0       1.2
 5 O  pz              0.0       0.0       0.2       0.0       0.0       0.1
 5 O  px              0.0       0.0       0.0       0.5       7.0       6.5
 5 O  py              0.0       0.0       3.1       0.2       0.3       1.1
 6 C  s               0.0       0.0       4.9       2.1       6.9      15.7
 6 C  px              0.0       0.0       5.7       1.2       0.1       1.6
 6 C  py              0.0       0.0       0.0       0.3       0.4       1.9
 6 C  dz2             0.0       0.0       0.1       0.0       0.0       0.0
 6 C  dx2y2           0.0       0.0       0.3       0.1       0.0       0.1
 7 C  s               0.0       0.0       0.3       0.2       4.1      18.7
 7 C  px              0.0       0.0       0.3       0.2       0.2       0.3
 7 C  py              0.0       0.0       0.3       0.1       0.6       1.3
 8 H  s               0.0       0.1       0.0       0.0       1.2       1.3
 9 H  s               0.0       0.1       0.0       0.0       1.1       1.3
10 H  s               0.0       0.1       0.0       0.0       1.2       1.3
11 H  s               0.1       0.0       0.0       0.0       3.0       1.5
12 H  s               0.1       0.0       0.0       0.0       3.0       1.5
13 H  s               0.0       0.0       0.1       0.1       3.2       0.7
14 H  s               0.0       0.0       0.1       0.1       3.2       0.7
15 H  s               0.0       0.0       0.7       0.1       1.2       2.9
16 H  s               0.0       0.0       0.7       0.1       1.2       2.9
17 H  s               0.0       0.0       0.0       0.0       0.7       3.7
18 H  s               0.0       0.0       0.1       0.0       0.8       3.7
19 H  s               0.0       0.0       0.1       0.0       0.8       3.7

                     12        13        14        15        16        17   
                  -0.63814  -0.57910  -0.53460  -0.50823  -0.45076  -0.43908
                   2.00000   2.00000   2.00000   2.00000   2.00000   2.00000
                  --------  --------  --------  --------  --------  --------
 0 C  s              20.3       3.2       9.8       0.0       0.0       0.3
 0 C  pz              0.0       0.0       0.0       0.0       1.1       0.3
 0 C  px              0.0       0.4       9.4       0.1       0.0       0.4
 0 C  py              0.1       0.2       0.0       0.1       0.1       5.7
 0 C  dx2y2           0.0       0.0       0.2       0.0       0.0       0.0
 1 C  s               2.5       0.3      16.5       0.2       0.0       0.0
 1 C  pz              0.2       0.1       0.1       0.0       4.3       0.3
 1 C  px              5.4       0.5       6.2       0.1       0.0       3.0
 1 C  py              3.9       1.3       1.4       0.4       0.2       7.6
 1 C  dz2             0.0       0.0       0.1       0.0       0.0       0.0
 1 C  dx2y2           0.2       0.1       0.0       0.0       0.0       0.1
 2 C  s              12.0       4.8       2.2       0.7       0.0       1.1
 2 C  pz              0.1       0.0       0.6       0.0       8.6       0.1
 2 C  px              1.6       1.4       0.1       1.6       0.0      22.9
 2 C  py              1.5       0.1       9.8       0.7       0.5       0.6
 2 C  dz2             0.0       0.0       0.0       0.0       0.0       0.1
 2 C  dx2y2           0.1       0.1       0.2       0.0       0.0       0.2
 3 C  s               3.0       1.6       1.2       1.8       0.0       2.1
 3 C  pz              0.1       0.1       0.0       0.1      12.9       0.0
 3 C  px              7.7       1.6       2.7       0.9       0.0      15.0
 3 C  py              1.0       2.3       0.0       2.2       0.8       0.3
 3 C  dx2y2           0.1       0.2       0.1       0.0       0.0       0.0
 4 O  s               1.0       0.0       1.1       1.0       0.0       0.2
 4 O  pz              0.0       0.0       0.0       0.1       3.5       0.0
 4 O  px              0.4       0.0       0.5       0.5       0.0       6.3
 4 O  py              0.1       0.2       0.2       0.9       0.2       0.0
 4 O  dxy             0.0       0.0       0.0       0.0       0.0       0.1
 5 O  s               0.6       0.0       0.1       5.0       0.0       0.3
 5 O  pz              0.0       0.1       0.0       0.6      19.2       0.5
 5 O  px              2.0      17.7       0.0       7.4       0.0       0.1
 5 O  py              0.0       1.2       0.3      11.5       1.0       9.9
 5 O  dx2y2           0.0       0.1       0.0       0.0       0.0       0.1
 5 O  dxy             0.0       0.2       0.0       0.0       0.0       0.0
 6 C  s               0.2       6.4       0.5       7.9       0.0       0.7
 6 C  pz              0.0       0.1       0.0       0.7      20.5       0.1
 6 C  px              2.1       3.3       0.0      11.4       0.0       0.2
 6 C  py              0.9       3.3       0.2      12.2       1.0       2.5
 6 C  dz2             0.0       0.0       0.0       0.3       0.0       0.0
 6 C  dx2y2           0.1       0.1       0.0       0.2       0.0       0.0
 6 C  dxy             0.0       0.2       0.0       0.1       0.0       0.1
 7 C  s               6.5      15.8       0.2       0.7       0.0       0.4
 7 C  pz              0.0       0.1       0.0       0.3       6.3       0.1
 7 C  px              0.1       1.7       0.0       1.1       0.0       2.8
 7 C  py              0.0       2.7       0.3       5.2       0.3       2.1
 8 H  s               4.6       0.9       5.2       0.0       0.3       0.0
 9 H  s               5.1       1.2       4.0       0.0       0.0       2.9
10 H  s               4.6       0.9       5.2       0.0       0.3       0.0
11 H  s               0.5       0.0       8.1       0.2       1.0       1.4
12 H  s               0.5       0.0       8.1       0.2       1.1       1.2
13 H  s               2.8       2.0       2.0       0.9       1.8       2.8
14 H  s               2.8       2.0       2.0       0.9       2.0       2.5
15 H  s               0.0       2.0       0.3       9.3       4.8       0.0
16 H  s               0.0       2.1       0.3       9.2       4.9       0.0
17 H  s               1.8       6.4       0.1       0.0       0.0       1.5
18 H  s               1.5       5.2       0.1       1.5       1.4       0.4
19 H  s               1.5       5.2       0.1       1.4       1.5       0.3

                     18        19        20        21        22        23   
                  -0.42342  -0.40032  -0.37842  -0.36971  -0.35885  -0.34784
                   2.00000   2.00000   2.00000   2.00000   2.00000   2.00000
                  --------  --------  --------  --------  --------  --------
 0 C  pz              8.6       0.1      15.4       1.2       0.2       0.0
 0 C  px              0.0       1.9       0.0       0.9       0.8       8.3
 0 C  py              0.5       2.3       1.0      19.0       3.5       2.2
 0 C  dz2             0.0       0.0       0.0       0.1       0.0       0.1
 1 C  s               0.0       0.3       0.0       0.1       0.1       0.0
 1 C  pz             17.7       0.2       7.3       0.5       0.0       0.1
 1 C  px              0.0       0.4       0.0       0.0       1.2       6.3
 1 C  py              1.0       4.0       0.4       7.2       0.0       1.8
 2 C  s               0.0       0.0       0.0       0.4       0.3       0.1
 2 C  pz             15.9       0.2       2.7       0.5       0.0       0.1
 2 C  px              0.0       0.2       0.0       1.2       0.4       7.5
 2 C  py              1.0       2.6       0.2       8.2       0.0       4.1
 2 C  dz2             0.0       0.0       0.0       0.1       0.0       0.1
 2 C  dyz             0.0       0.0       0.1       0.0       0.0       0.0
 2 C  dxy             0.0       0.0       0.0       0.1       0.0       0.0
 3 C  s               0.0       2.5       0.0       1.3       0.2       0.1
 3 C  pz              1.0       0.2      15.1       0.0       0.1       0.0
 3 C  px              0.0       0.3       0.0       0.0       0.1       3.6
 3 C  py              0.1       3.0       0.9       0.8       2.4       0.0
 3 C  dxz             0.1       0.0       0.0       0.0       0.0       0.0
 3 C  dx2y2           0.0       0.5       0.0       0.0       0.1       0.1
 3 C  dxy             0.0       0.0       0.0       0.2       0.0       0.1
 4 O  s               0.0      13.9       0.0       2.1       2.0       0.1
 4 O  pz              0.2       1.5       8.9       0.5       0.4       0.1
 4 O  px              0.0       2.4       0.0       0.8       3.9       0.1
 4 O  py              0.0      25.3       0.6       7.7       6.2       1.0
 4 O  dx2y2           0.0       0.1       0.0       0.0       0.0       0.0
 5 O  s               0.0       2.1       0.0       0.8       1.4       0.0
 5 O  pz              1.6       0.6       6.2       0.0       0.1       0.0
 5 O  px              0.0       8.5       0.0       0.0       0.1       6.2
 5 O  py              0.1      10.6       0.3       0.0       2.3       0.1
 5 O  dxy             0.0       0.0       0.0       0.0       0.0       0.1
 6 C  s               0.0       0.2       0.0       0.3       0.1       0.1
 6 C  pz             12.4       0.0       2.2       0.1       0.2       0.4
 6 C  px              0.0       4.6       0.0       0.2       1.0       6.0
 6 C  py              0.7       0.6       0.1       2.7       3.4      10.2
 6 C  dxz             0.0       0.0       0.1       0.0       0.0       0.0
 6 C  dx2y2           0.0       0.1       0.0       0.1       0.3       0.2
 6 C  dxy             0.0       0.0       0.0       0.0       0.0       0.1
 7 C  s               0.0       0.1       0.0       0.0       0.0       0.1
 7 C  pz              7.3       0.2      12.6       0.0       1.0       0.2
 7 C  px              0.0       0.0       0.0      14.0      19.2      14.9
 7 C  py              0.4       4.6       0.7       0.0      16.3       7.8
 7 C  dz2             0.0       0.0       0.0       0.0       0.4       0.0
 7 C  dx2y2           0.0       0.0       0.0       0.1       0.3       0.2
 8 H  s               2.3       0.7       4.7       2.4       0.1       1.7
 9 H  s               0.0       0.5       0.0       8.7       2.3       0.5
10 H  s               2.2       0.8       4.7       2.3       0.1       2.2
11 H  s               4.0       0.4       2.1       0.4       0.0       0.1
12 H  s               4.1       0.4       2.0       0.5       0.0       0.1
13 H  s               4.2       0.1       0.8       2.7       0.0       2.3
14 H  s               4.3       0.1       0.8       2.8       0.0       1.7
15 H  s               3.1       0.2       0.6       0.1       1.1       0.3
16 H  s               3.2       0.2       0.6       0.1       1.0       0.4
17 H  s               0.0       0.0       0.0       7.6      13.9       7.1
18 H  s               1.8       0.9       4.0       0.3       6.6       0.1
19 H  s               1.8       0.9       4.1       0.3       6.4       0.2

                     24        25        26        27        28        29   
                  -0.34280  -0.32146  -0.31156  -0.30737  -0.29343  -0.29297
                   2.00000   2.00000   2.00000   2.00000   2.00000   2.00000
                  --------  --------  --------  --------  --------  --------
 0 C  s               0.0       0.3       0.0       0.2       0.0       0.0
 0 C  pz             12.2       0.7       8.7       0.2       7.3       0.0
 0 C  px              0.0      19.3       0.0       8.2       0.0       0.6
 0 C  py              0.7       9.2       0.5       5.2       0.0       5.1
 0 C  dz2             0.0       0.0       0.0       0.2       0.0       0.1
 0 C  dxz             0.1       0.0       0.3       0.0       0.5       0.0
 0 C  dx2y2           0.0       0.4       0.0       0.0       0.0       0.1
 0 C  dxy             0.0       0.0       0.0       0.3       0.0       0.2
 1 C  s               0.0       0.1       0.0       0.2       0.0       0.0
 1 C  pz              0.1       0.2       4.9       0.4      17.9       0.0
 1 C  px              0.0      18.9       0.0       9.0       0.0       0.7
 1 C  py              0.0       3.3       0.3       9.2       0.2       7.8
 1 C  dz2             0.0       0.0       0.0       0.2       0.1       0.1
 1 C  dxz             0.1       0.0       0.2       0.0       0.5       0.0
 1 C  dyz             0.1       0.0       0.0       0.1       0.4       0.1
 1 C  dx2y2           0.0       0.5       0.0       0.0       0.0       0.0
 1 C  dxy             0.0       0.0       0.0       0.5       0.0       0.1
 2 C  s               0.0       1.0       0.0       0.7       0.0       0.0
 2 C  pz             14.6       0.3       2.0       0.6       8.4       0.0
 2 C  px              0.0       1.4       0.0       4.7       0.1       1.9
 2 C  py              0.7       4.9       0.1       9.7       0.1       5.1
 2 C  dz2             0.0       0.0       0.0       0.1       0.1       0.0
 2 C  dxz             0.1       0.0       0.1       0.0       0.2       0.0
 2 C  dyz             0.1       0.0       0.0       0.0       0.4       0.1
 2 C  dx2y2           0.0       0.2       0.0       0.0       0.0       0.0
 2 C  dxy             0.0       0.2       0.0       0.3       0.0       0.0
 3 C  s               0.0       0.3       0.0       0.5       0.0       0.2
 3 C  pz              0.4       0.0       8.5       0.1       1.0       0.2
 3 C  px              0.0       4.5       0.0       1.4       0.0       0.2
 3 C  py              0.0       0.4       0.5       1.2       0.1       4.1
 3 C  dxz             0.3       0.0       0.1       0.0       0.2       0.0
 3 C  dyz             0.0       0.0       0.2       0.0       0.0       0.1
 3 C  dx2y2           0.0       0.0       0.0       0.2       0.0       0.8
 3 C  dxy             0.0       0.3       0.0       0.1       0.0       0.2
 4 O  s               0.0       0.2       0.0       0.5       0.0       1.0
 4 O  pz              0.5       0.3      15.6       0.2       0.9       0.9
 4 O  px              0.0       3.4       0.0       0.2       0.0       1.3
 4 O  py              0.0       3.9       1.1       2.3       0.7       7.9
 5 O  s               0.0       0.5       0.0       1.0       0.1       2.6
 5 O  pz              9.6       0.0       0.3       0.3       3.3       2.3
 5 O  px              0.0       0.5       0.0       3.7       0.1       4.0
 5 O  py              0.5       0.9       0.0       4.9       1.8      20.3
 6 C  s               0.0       0.0       0.0       0.1       0.0       0.3
 6 C  pz              2.0       0.2      10.3       0.2       2.8       1.0
 6 C  px              0.0       0.0       0.0       1.3       0.0       1.0
 6 C  py              0.0       4.7       0.6       2.1       0.8       6.1
 6 C  dz2             0.0       0.1       0.1       0.1       0.0       0.2
 6 C  dxz             0.1       0.0       0.0       0.0       0.1       0.0
 6 C  dyz             0.2       0.0       0.4       0.0       0.2       0.0
 6 C  dxy             0.0       0.1       0.0       0.1       0.0       0.4
 7 C  s               0.0       0.1       0.0       0.1       0.0       0.4
 7 C  pz             18.2       0.2       8.5       0.1       0.8       0.5
 7 C  px              0.0       0.1       0.0       0.1       0.0       0.3
 7 C  py              0.8       4.6       0.5       1.2       0.4       4.2
 7 C  dyz             0.3       0.0       0.4       0.0       0.1       0.0
 8 H  s               4.7       0.1       4.4       2.8       5.9       0.5
 9 H  s               0.0       8.9       0.0       3.0       0.1       3.8
10 H  s               4.2       0.1       4.2       3.1       4.0       2.3
11 H  s               0.1       0.4       2.2       5.3       9.4       3.5
12 H  s               0.0       0.3       2.4       4.9      12.6       0.4
13 H  s               5.7       0.1       0.8       3.0       5.7       0.7
14 H  s               6.2       0.1       0.7       3.0       6.4       0.0
15 H  s               1.1       1.1       5.2       1.0       1.3       3.3
16 H  s               1.0       1.1       5.5       0.8       2.9       1.4
17 H  s               0.0       0.0       0.0       0.2       0.0       0.0
18 H  s               7.4       0.6       4.8       0.4       0.6       0.9
19 H  s               7.5       0.7       5.0       0.3       1.1       0.3

                     30        31        32        33        34        35   
                  -0.25340  -0.21071  -0.01597   0.03168   0.04816   0.07591
                   2.00000   2.00000   0.00000   0.00000   0.00000   0.00000
                  --------  --------  --------  --------  --------  --------
 0 C  s               0.0       0.2       0.0       5.9       4.9       4.3
 0 C  pz              0.1       0.0       0.2       0.0       0.0       0.0
 0 C  px              0.0       1.0       0.0       1.7       1.7       0.0
 0 C  py              0.0       0.3       0.0       0.0       0.0       2.9
 0 C  dx2y2           0.0       0.0       0.0       0.2       0.0       0.0
 1 C  s               0.0       0.2       0.0       6.4       1.1       2.1
 1 C  pz              1.0       0.1       0.0       0.0       0.0       0.1
 1 C  px              0.0       0.8       0.0       1.2       0.1       1.5
 1 C  py              0.1       1.2       0.0       0.8       0.0       0.7
 1 C  dz2             0.0       0.0       0.0       0.1       0.0       0.0
 1 C  dx2y2           0.0       0.1       0.0       0.0       0.0       0.4
 1 C  dxy             0.0       0.0       0.0       0.0       0.0       0.3
 2 C  s               0.0       0.5       0.0       4.1       1.9       5.9
 2 C  pz              0.7       0.1       0.4       0.1       0.1       0.0
 2 C  px              0.0       4.9       0.0       0.3       0.7       1.4
 2 C  py              0.0       1.1       0.0       2.0       1.0       1.4
 2 C  dz2             0.0       0.0       0.0       0.1       0.1       0.0
 2 C  dxz             0.0       0.0       1.8       0.0       0.0       0.0
 2 C  dx2y2           0.0       0.1       0.0       0.3       0.1       0.1
 2 C  dxy             0.0       0.0       0.1       0.0       0.0       0.2
 3 C  s               0.0       0.5       0.0       1.4       0.0       1.0
 3 C  pz              0.8       0.0      44.6       0.0       0.0       0.0
 3 C  px              0.0       0.9       0.0       0.5       0.2       0.9
 3 C  py              0.0       0.5       2.6       0.2       0.0       0.2
 3 C  dz2             0.4       0.0       0.1       0.6       0.0       0.3
 3 C  dxz             0.0       0.2       0.6       0.0       0.0       0.0
 3 C  dyz             1.9       0.1       0.4       0.1       0.0       0.0
 3 C  dx2y2           0.1       1.4       0.0       0.0       0.1       0.2
 3 C  dxy             0.0       2.8       0.0       0.1       0.1       0.1
 4 O  s               0.0       0.0       0.0       0.2       0.0       0.4
 4 O  pz             35.6       0.4      24.2       0.0       0.0       0.0
 4 O  px              0.0      64.6       0.0       0.1       0.0       0.3
 4 O  py              2.1       7.3       1.4       0.1       0.0       0.0
 4 O  dyz             0.0       0.0       0.4       0.0       0.0       0.0
 5 O  s               0.0       0.2       0.0       1.7       0.0       1.2
 5 O  pz             38.9       0.4      10.0       0.0       0.0       0.0
 5 O  px              0.0       0.2       0.0       0.1       0.2       0.7
 5 O  py              2.3       7.2       0.6       0.0       0.5       0.4
 5 O  dxz             0.0       0.0       0.3       0.0       0.0       0.0
 5 O  dyz             0.0       0.0       0.2       0.0       0.0       0.0
 6 C  s               0.0       0.2       0.0       1.8       5.8       0.9
 6 C  pz              3.1       0.0       0.2       0.1       0.1       0.0
 6 C  px              0.0       0.5       0.0       1.5       0.1       5.1
 6 C  py              0.2       0.2       0.0       1.4       1.8       1.4
 6 C  dz2             0.1       0.0       0.0       0.2       0.1       0.2
 6 C  dxz             0.6       0.0       0.3       0.0       0.0       0.0
 6 C  dyz             0.3       0.0       0.1       0.0       0.0       0.0
 6 C  dx2y2           0.0       0.0       0.0       0.0       0.1       0.6
 7 C  s               0.0       0.0       0.0       5.1      11.7       1.3
 7 C  pz              0.1       0.0       0.0       0.0       0.1       0.0
 7 C  px              0.0       0.1       0.0       0.2       1.0       0.8
 7 C  py              0.0       0.0       0.0       0.6       1.6       0.8
 7 C  dx2y2           0.0       0.0       0.0       0.1       0.0       0.4
 8 H  s               0.2       0.0       0.2       4.9       5.4       0.7
 9 H  s               0.0       0.5       0.0       3.7       2.3      13.5
10 H  s               0.2       0.0       0.2       4.9       5.4       0.1
11 H  s               0.5       0.0       0.0       7.4       0.4       6.8
12 H  s               0.5       0.0       0.0       7.4       0.4       3.0
13 H  s               0.3       0.0       4.5       6.6       4.2      12.1
14 H  s               0.3       0.0       4.6       6.5       4.2       7.8
15 H  s               4.2       0.2       0.7       3.6       7.1       3.3
16 H  s               4.4       0.2       0.8       3.7       7.3       5.5
17 H  s               0.0       0.2       0.0       4.3      10.9       0.8
18 H  s               0.4       0.0       0.0       3.8       8.2       2.6
19 H  s               0.4       0.0       0.0       3.8       8.1       4.9

                     36        37        38        39        40        41   
                   0.07650   0.08985   0.09146   0.09644   0.10318   0.12361
                   0.00000   0.00000   0.00000   0.00000   0.00000   0.00000
                  --------  --------  --------  --------  --------  --------
 0 C  s               0.1       3.5       8.1       0.0       0.3       1.2
 0 C  pz              4.6       0.1       0.1       3.7       0.0       0.0
 0 C  px              0.0       0.2       1.2       0.0       0.3       0.6
 0 C  py              0.1       2.6       1.9       0.2       0.1       0.6
 0 C  dz2             0.0       0.1       0.0       0.0       0.0       0.0
 0 C  dxz             0.4       0.0       0.0       0.1       0.0       0.0
 0 C  dx2y2           0.0       0.0       0.4       0.0       0.0       0.0
 1 C  s               0.0       0.0       6.8       0.0       0.2       1.6
 1 C  pz              7.8       0.0       0.1       1.3       0.1       0.2
 1 C  px              0.0       0.2       0.6       0.0       0.3       0.8
 1 C  py              0.4       0.3       1.3       0.1       1.0       2.7
 1 C  dz2             0.1       0.0       0.0       0.0       0.1       0.2
 1 C  dxz             0.4       0.0       0.0       0.2       0.0       0.0
 1 C  dyz             0.4       0.0       0.0       0.1       0.0       0.1
 1 C  dx2y2           0.0       0.2       0.3       0.0       0.0       0.1
 1 C  dxy             0.0       0.4       0.1       0.0       0.0       0.0
 2 C  s               0.1       1.9       0.2       0.0       0.1       0.6
 2 C  pz              5.7       0.0       0.0       2.9       0.0       0.0
 2 C  px              0.0       3.6       1.2       0.0       0.6       2.4
 2 C  py              0.2       0.7       0.0       0.2       0.1       0.1
 2 C  dz2             0.1       0.2       0.0       0.0       0.0       0.1
 2 C  dyz             0.4       0.0       0.0       0.1       0.0       0.0
 2 C  dx2y2           0.0       0.2       0.2       0.0       0.1       0.2
 2 C  dxy             0.0       0.1       0.0       0.0       0.1       0.1
 3 C  s               0.0       0.8       1.5       0.0       0.9       0.1
 3 C  pz              1.1       0.0       0.0       1.3       0.1       0.0
 3 C  px              0.0       0.4       0.3       0.0       0.1       0.3
 3 C  py              0.0       0.2       0.6       0.1       1.1       0.7
 3 C  dz2             0.0       0.0       0.2       0.0       0.1       0.0
 3 C  dx2y2           0.0       0.0       0.2       0.0       0.3       0.5
 3 C  dxy             0.0       0.1       0.1       0.0       0.2       0.1
 4 O  s               0.0       0.2       0.0       0.0       0.4       0.0
 4 O  pz              0.6       0.0       0.0       0.2       0.0       0.0
 4 O  px              0.0       0.3       0.3       0.0       0.0       0.3
 5 O  s               0.0       0.4       5.2       0.0       1.3       3.7
 5 O  pz              0.3       0.0       0.0       0.5       0.0       0.0
 5 O  px              0.0       0.8       2.6       0.0       2.6       5.0
 5 O  py              0.0       0.1       0.2       0.0       0.1       0.7
 5 O  dz2             0.0       0.0       0.1       0.0       0.2       0.1
 5 O  dx2y2           0.0       0.0       0.2       0.0       0.2       0.5
 6 C  s               0.0       3.4       3.4       0.0       8.2       1.9
 6 C  pz              3.1       0.1       0.0       8.8       0.0       0.1
 6 C  px              0.1       5.1      12.2       0.0       2.0      18.1
 6 C  py              0.1       1.6       0.3       0.4       0.5       1.8
 6 C  dz2             0.1       0.1       0.4       0.1       0.0       1.7
 6 C  dyz             0.3       0.0       0.0       0.8       0.0       0.1
 6 C  dx2y2           0.0       0.9       1.2       0.0       0.8       0.7
 6 C  dxy             0.0       0.0       0.3       0.0       0.1       0.5
 7 C  s               0.0       4.8       0.5       0.0       4.0       0.6
 7 C  pz              3.8       0.1       0.0       9.3       0.1       0.1
 7 C  px              0.0       2.0       0.3       0.0      10.6       7.7
 7 C  py              0.1       1.8       0.0       0.4       1.4       2.4
 7 C  dz2             0.1       0.0       0.0       0.2       0.7       0.2
 7 C  dyz             0.3       0.0       0.0       0.9       0.0       0.1
 7 C  dx2y2           0.0       0.7       0.3       0.0       0.4       0.0
 7 C  dxy             0.0       0.0       0.1       0.0       0.0       0.5
 8 H  s               5.6       0.2      11.4       5.0       0.9       2.7
 9 H  s               0.3      12.9       0.7       0.0       0.0       0.0
10 H  s               6.2       0.1      12.0       4.5       0.8       2.7
11 H  s               9.8       0.1       9.3       1.8       1.2       4.6
12 H  s              13.8       0.1       8.9       2.0       1.3       4.6
13 H  s               4.7       5.1       0.1       3.1       0.2       0.9
14 H  s               9.3       4.7       0.0       3.3       0.1       0.9
15 H  s               4.8       8.2       1.3      11.3       7.0       0.1
16 H  s               3.0       8.3       1.0      11.5       6.7       0.2
17 H  s               0.0       1.2       1.3       0.0      40.9      10.3
18 H  s               6.7      10.2       0.2      12.7       0.4       6.2
19 H  s               4.8      10.0       0.3      12.3       0.5       6.4

                     42        43        44        45        46        47   
                   0.12671   0.12859   0.14087   0.15223   0.17303   0.18557
                   0.00000   0.00000   0.00000   0.00000   0.00000   0.00000
                  --------  --------  --------  --------  --------  --------
 0 C  s               0.0       0.0       0.0       0.0       0.2       1.9
 0 C  pz              0.9       2.5      15.8       0.1       0.1       0.1
 0 C  px              0.0       0.0       0.0       0.0       0.6      19.5
 0 C  py             16.3       0.0       1.0       0.0       1.0       1.6
 0 C  dz2             0.6       0.1       0.2       0.0       0.1       0.9
 0 C  dxz             0.0       0.1       0.2       0.6       0.0       0.1
 0 C  dyz             0.3       0.2       0.8       0.0       0.0       0.0
 0 C  dx2y2           0.4       0.0       0.1       0.0       0.1       3.3
 0 C  dxy             0.1       0.0       0.0       0.0       0.4       1.4
 1 C  s               3.6       0.0       0.0       0.0       3.1       8.1
 1 C  pz              0.0       5.2       2.1       8.5       0.7       0.1
 1 C  px              2.3       0.0       0.0       0.0       0.4      12.7
 1 C  py              0.0       0.3       0.1       0.5      11.9       2.8
 1 C  dz2             0.1       0.0       0.2       0.0       0.7       2.5
 1 C  dxz             0.0       0.0       0.4       0.5       0.0       0.0
 1 C  dyz             0.0       0.0       0.8       0.0       0.4       0.3
 1 C  dx2y2           0.6       0.0       0.1       0.0       1.2       0.5
 1 C  dxy             0.4       0.0       0.0       0.0       0.0       0.6
 2 C  s               4.7       0.0       0.0       0.0       0.9       2.2
 2 C  pz              0.0       2.0       5.9      10.0       0.6       0.1
 2 C  px              1.3       0.0       0.0       0.0       3.0       3.1
 2 C  py              0.4       0.1       0.3       0.6      10.2       1.6
 2 C  dz2             0.1       0.0       0.1       0.0       0.2       0.2
 2 C  dxz             0.0       0.1       0.1       0.1       0.0       0.1
 2 C  dyz             0.1       0.1       0.7       0.0       0.5       0.1
 2 C  dx2y2           0.1       0.0       0.1       0.0       3.4       0.1
 2 C  dxy             0.0       0.0       0.0       0.0       0.2       1.5
 3 C  s               0.2       0.0       0.0       0.0       3.2       4.1
 3 C  pz              0.0       0.0       0.7       2.5       0.2       0.1
 3 C  px              0.1       0.0       0.0       0.0       0.1       0.3
 3 C  py              0.2       0.0       0.0       0.1       3.9       1.8
 3 C  dz2             0.1       0.0       0.0       0.0       0.7       1.5
 3 C  dxz             0.0       0.3       0.1       0.2       0.1       0.0
 3 C  dyz             0.0       0.1       0.0       0.0       0.1       0.4
 3 C  dx2y2           0.0       0.0       0.0       0.0       0.3       0.0
 3 C  dxy             0.0       0.0       0.0       0.0       1.0       0.4
 4 O  s               0.1       0.0       0.0       0.0       0.5       1.1
 4 O  pz              0.0       0.4       0.4       1.2       0.0       0.0
 4 O  px              0.5       0.0       0.0       0.0       0.2       1.6
[...]
 2 C  dz2             0.0       0.9       0.0       0.0       0.5       0.0
 2 C  dxz             0.0       0.1       0.2       0.9       0.3       0.0
 2 C  dyz             1.1       0.1       0.0       0.1       0.2       0.1
 2 C  dx2y2          16.1       0.1       0.0       0.0       0.4       1.4
 2 C  dxy             0.4       1.0       0.0       0.1       5.5       0.4
 3 C  s               1.1       0.0       0.0       0.0       0.3       1.2
 3 C  pz              0.0       0.0       0.1       1.1       0.0       0.1
 3 C  px              1.1       0.3       0.0       0.0       0.1       0.9
 3 C  py              0.1       0.1       0.0       0.1       0.3       2.2
 3 C  dz2             1.5       1.6       0.0       0.1       0.9       1.7
 3 C  dxz             0.0       0.0       0.5      11.6       0.4       0.2
 3 C  dyz             0.2       0.1       0.2       0.7       0.0       0.2
 3 C  dx2y2           0.2       0.8       0.0       0.1       4.8       0.6
 3 C  dxy             0.4       0.2       0.0       0.7       6.8       2.8
 4 O  s               0.1       0.1       0.0       0.0       1.1       0.4
 4 O  pz              0.0       0.0       0.1       0.3       0.0       0.0
 4 O  px              0.1       0.0       0.0       0.0       0.4       0.6
 4 O  py              0.1       0.1       0.0       0.0       0.3       0.2
 4 O  dz2             0.5      46.0       0.4       3.4       4.9       0.1
 4 O  dxz             0.2       0.4       4.3       3.9       0.3       1.2
 4 O  dyz             0.1       4.7       2.5      17.3       0.3       0.2
 4 O  dx2y2           5.0      10.5       0.2       1.2       3.0       4.7
 4 O  dxy             2.5       8.5       0.3       0.2       4.7      19.1
 5 O  s               0.0       0.3       0.0       0.0       0.8       7.6
 5 O  pz              0.0       0.0       0.8       0.7       0.0       0.1
 5 O  px              0.0       0.1       0.0       0.0       2.2       0.1
 5 O  py              0.2       0.7       0.1       0.0       0.7       0.9
 5 O  dz2             0.2       4.2       3.2       6.8      22.4      29.8
 5 O  dxz             0.0       0.1      56.6      11.6       1.0       0.4
 5 O  dyz             0.1       1.5      14.2      34.9       6.1       3.6
 5 O  dx2y2           0.3       1.2       0.9       2.4       1.6       4.3
 5 O  dxy             0.0       1.1       3.4       0.6      15.4       9.0
 6 C  s               0.1       0.3       0.0       0.0       0.8       0.3
 6 C  pz              0.0       0.0       0.7       0.0       0.0       0.0
 6 C  px              0.0       0.4       0.0       0.0       0.7       0.8
 6 C  py              0.0       0.7       0.0       0.0       0.1       0.0
 6 C  dz2             0.1       1.4       0.0       0.1       1.3       0.6
 6 C  dxz             0.1       0.3      10.0       0.2       0.1       0.1
 6 C  dyz             0.0       0.3       0.0       0.6       0.0       0.0
 6 C  dx2y2           0.0       0.2       0.0       0.0       3.6       1.3
 6 C  dxy             1.3       4.9       0.7       0.0       2.5       1.5
 7 C  s               0.1       0.6       0.0       0.0       0.0       0.1
 7 C  px              0.0       0.1       0.0       0.0       0.0       0.1
 7 C  py              0.1       0.5       0.0       0.0       0.0       0.0
 7 C  dz2             0.1       0.7       0.0       0.0       0.0       0.0
 7 C  dxz             0.0       0.1       0.1       0.0       0.0       0.0
 7 C  dyz             0.1       0.4       0.3       0.0       0.1       0.0
 7 C  dx2y2           0.4       1.2       0.0       0.0       1.0       0.1
 7 C  dxy             0.3       1.0       0.0       0.0       0.1       0.1
 9 H  s               0.1       0.0       0.0       0.0       0.0       0.0
15 H  s               0.0       0.2       0.0       0.1       0.1       0.0
16 H  s               0.0       0.2       0.0       0.1       0.1       0.0

                    132       133       134       135   
                   3.10930   3.32650   3.50230   3.56651
                   0.00000   0.00000   0.00000   0.00000
                  --------  --------  --------  --------
 1 C  dx2y2           0.0       0.0       0.2       0.0
 1 C  dxy             0.0       0.0       0.0       0.1
 2 C  s               0.0       0.2       0.1       0.0
 2 C  px              0.0       0.1       0.4       0.1
 2 C  py              0.0       0.0       0.0       0.1
 2 C  dxz             0.4       0.0       0.0       0.0
 2 C  dyz             0.2       0.0       0.0       0.0
 2 C  dx2y2           0.0       0.1       1.7       0.2
 2 C  dxy             0.0       0.5       0.4       0.5
 3 C  s               0.0       4.0       0.0       5.9
 3 C  pz              0.4       0.0       0.2       0.2
 3 C  px              0.0       1.6       0.2       0.8
 3 C  py              0.0       0.1       4.0       2.8
 3 C  dz2             3.2       0.6       0.0       0.9
 3 C  dxz             0.2       0.0       0.9       0.0
 3 C  dyz            16.1       0.1       0.2       1.7
 3 C  dx2y2           1.1       5.8       2.3      12.1
 3 C  dxy             0.0       0.0      15.6       0.0
 4 O  s               0.0       1.7       1.3       3.7
 4 O  pz              0.9       0.0       0.1       0.1
 4 O  px              0.0       0.0       0.2       1.0
 4 O  py              0.1       0.8       1.1       2.1
 4 O  dz2             8.1       3.1       1.3       7.7
 4 O  dxz             9.3       0.0       0.1       1.8
 4 O  dyz            39.8       3.1       3.0       3.9
 4 O  dx2y2           2.6      14.1      22.9       7.1
 4 O  dxy             0.6       0.1       1.6      30.4
 5 O  s               0.0       0.1       0.8       0.3
 5 O  px              0.0       1.9       2.7       0.3
 5 O  py              0.0       0.7       0.9       0.2
 5 O  dz2             0.5       0.7       1.6       1.3
 5 O  dxz            11.5       0.4       1.7       0.3
 5 O  dyz             3.0       1.8       0.8       0.0
 5 O  dx2y2           0.2      43.7       2.2       7.7
 5 O  dxy             0.7       5.2      28.7       5.3
 6 C  s               0.0       0.7       0.2       0.0
 6 C  px              0.0       1.7       0.3       0.1
 6 C  py              0.0       0.0       0.1       0.0
 6 C  dz2             0.0       0.9       0.0       0.1
 6 C  dxz             0.5       0.1       0.0       0.0
 6 C  dyz             0.2       0.0       0.0       0.0
 6 C  dx2y2           0.0       4.0       1.1       0.0
 6 C  dxy             0.0       1.3       0.2       0.8
 7 C  dx2y2           0.0       0.0       0.1       0.1
 7 C  dxy             0.0       0.2       0.1       0.0


                      *****************************
                      * MAYER POPULATION ANALYSIS *
                      *****************************

  NA   - Mulliken gross atomic population
  ZA   - Total nuclear charge
  QA   - Mulliken gross atomic charge
  VA   - Mayer's total valence
  BVA  - Mayer's bonded valence
  FA   - Mayer's free valence

  ATOM       NA         ZA         QA         VA         BVA        FA
  0 C      6.2567     6.0000    -0.2567     4.0092     4.0092     0.0000
  1 C      6.1840     6.0000    -0.1840     4.1685     4.1685     0.0000
  2 C      6.1984     6.0000    -0.1984     3.9669     3.9669     0.0000
  3 C      5.8635     6.0000     0.1365     4.3869     4.3869     0.0000
  4 O      8.2210     8.0000    -0.2210     2.2683     2.2683     0.0000
  5 O      8.2373     8.0000    -0.2373     2.2757     2.2757    -0.0000
  6 C      6.0295     6.0000    -0.0295     4.0242     4.0242     0.0000
  7 C      6.2716     6.0000    -0.2716     3.9983     3.9983     0.0000
  8 H      0.9029     1.0000     0.0971     0.9568     0.9568     0.0000
  9 H      0.8959     1.0000     0.1041     0.9502     0.9502    -0.0000
 10 H      0.9029     1.0000     0.0971     0.9567     0.9567     0.0000
 11 H      0.9081     1.0000     0.0919     0.9532     0.9532    -0.0000
 12 H      0.9081     1.0000     0.0919     0.9532     0.9532     0.0000
 13 H      0.8858     1.0000     0.1142     0.9631     0.9631    -0.0000
 14 H      0.8857     1.0000     0.1143     0.9630     0.9630     0.0000
 15 H      0.8941     1.0000     0.1059     0.9617     0.9617    -0.0000
 16 H      0.8946     1.0000     0.1054     0.9605     0.9605    -0.0000
 17 H      0.8889     1.0000     0.1111     0.9554     0.9554     0.0000
 18 H      0.8855     1.0000     0.1145     0.9583     0.9583     0.0000
 19 H      0.8855     1.0000     0.1145     0.9584     0.9584     0.0000

  Mayer bond orders larger than 0.100000
B(  0-C ,  1-C ) :   1.1505 B(  0-C ,  8-H ) :   0.9537 B(  0-C ,  9-H ) :   0.9536 
B(  0-C , 10-H ) :   0.9537 B(  1-C ,  2-C ) :   1.1320 B(  1-C , 11-H ) :   0.9263 
B(  1-C , 12-H ) :   0.9263 B(  2-C ,  3-C ) :   1.0383 B(  2-C , 13-H ) :   0.8985 
B(  2-C , 14-H ) :   0.8981 B(  3-C ,  4-O ) :   2.0409 B(  3-C ,  5-O ) :   1.2266 
B(  5-O ,  6-C ) :   0.9072 B(  6-C ,  7-C ) :   1.1490 B(  6-C , 15-H ) :   0.9314 
B(  6-C , 16-H ) :   0.9321 B(  7-C , 17-H ) :   0.9444 B(  7-C , 18-H ) :   0.9499 
B(  7-C , 19-H ) :   0.9500 

-------
TIMINGS
-------

Total SCF time: 0 days 0 hours 0 min 8 sec 

Total time                  ....       8.685 sec
Sum of individual times     ....       7.845 sec  ( 90.3%)

SCF preparation             ....       0.173 sec  (  2.0%)
Fock matrix formation       ....       6.727 sec  ( 77.5%)
  Startup                   ....       0.061 sec  (  0.9% of F)
  Split-RI-J                ....       2.332 sec  ( 34.7% of F)
  XC integration            ....       3.804 sec  ( 56.6% of F)
    Basis function eval.    ....       1.242 sec  ( 32.6% of XC)
    Density eval.           ....       0.433 sec  ( 11.4% of XC)
    XC-Functional eval.     ....       0.334 sec  (  8.8% of XC)
    XC-Potential eval.      ....       0.689 sec  ( 18.1% of XC)
Diagonalization             ....       0.000 sec  (  0.0%)
Density matrix formation    ....       0.210 sec  (  2.4%)
Total Energy calculation    ....       0.037 sec  (  0.4%)
Population analysis         ....       0.078 sec  (  0.9%)
Orbital Transformation      ....       0.051 sec  (  0.6%)
Orbital Orthonormalization  ....       0.000 sec  (  0.0%)
DIIS solution               ....       0.480 sec  (  5.5%)
  MO trafo                  ....       0.000 sec  (  0.0 % of DIIS)
  Orb grad                  ....       0.000 sec  (  0.0 % of DIIS)
  Energy W gradient         ....       0.000 sec  (  0.0 % of DIIS)
  DIIS error                ....       0.006 sec  (  1.3 % of DIIS)
  DIIS work                 ....       0.426 sec  ( 88.8 % of DIIS)
  Form Q                    ....       0.000 sec  (  0.0 % of DIIS)
  Form QpQm                 ....       0.000 sec  (  0.0 % of DIIS)
  Exp/Cayley                ....       0.000 sec  (  0.0 % of DIIS)
  Orb update                ....       0.000 sec  (  0.0 % of DIIS)
  Wake-sleep                ....       0.021 sec  (  4.5 % of DIIS)
SOSCF solution              ....       0.088 sec  (  1.0%)
  MO trafo                  ....       0.047 sec  ( 53.8 % of SOSCF)
  Orb grad                  ....       0.002 sec  (  1.8 % of SOSCF)
  Rot update                ....       0.013 sec  ( 14.4 % of SOSCF)
  Step                      ....       0.026 sec  ( 30.0 % of SOSCF)
Finished LeanSCF after   8.8 sec

Maximum memory used throughout the entire LEANSCF-calculation: 12.6 MB


-------------------------------------------------------------------------------
                          DFT DISPERSION CORRECTION                            
                                                                               
                                DFTD4 V3.4.0                                   
-------------------------------------------------------------------------------
The PBE functional is recognized
Active option DFTDOPT                   ...         5   

-------------------------   ----------------
Dispersion correction           -0.014445476
-------------------------   ----------------

------------------   -----------------
gCP correction             0.089710734
------------------   -----------------

-------------------------   --------------------
FINAL SINGLE POINT ENERGY      -385.456585697848
-------------------------   --------------------


------------------------------------------------------------------------------
                              ORCA PROPERTY CALCULATIONS
------------------------------------------------------------------------------

GBWName                                 ... sp.gbw
Number of atoms                         ...     20
Number of basis functions               ...    136
Max core memory                         ...   1024 MB

Electric properties:
Dipole moment                           ... YES
Quadrupole moment                       ...  NO
Static polarizability (Dipole/Dipole)   ...  NO
Static polarizability (Dipole/Quad.)    ...  NO
Static polarizability (Quad./Quad.)     ...  NO
Static polarizability (Velocity)        ...  NO

Atomic electric properties:
Dipole moment                           ...  NO
Quadrupole moment                       ...  NO
Static polarizability                   ...  NO

Choice of electric origin               ... Center of mass
Position of electric origin             ...    -0.000013    -0.000025     0.000006

General magnetic properties:
Magnetizability                         ...  NO

EPR properties:
g-Tensor (aka g-matrix)                 ...  NO
Zero-Field splitting spin-orbit         ...  NO
Zero-field splitting spin-spin          ...  NO
Hyperfine couplings                     ...  NO (   0 nuclei)
Quadrupole couplings                    ...  NO (   0 nuclei)
Contact density                         ...  NO (   0 nuclei)

NMR properties:
Chemical shifts                         ...  NO (   0 nuclei)
Spin-rotation constants                 ...  NO (   0 nuclei)
Spin-spin couplings                     ...  NO (   0 nuclei,    0 pairs)

Choice of magnetic origin               ... GIAO
Position of magnetic origin             ...     0.000000     0.000000     0.000000

Properties with geometric perturbations:
SCF Hessian                             ...  NO
IR spectrum                             ...  NO
VCD spectrum                            ...  NO
X-ray spectroscopy properties:
SCF XES/XAS/RIXS spectra                ...  NO


-------------
DIPOLE MOMENT
-------------

Method             : SCF
Type of density    : Electron Density
Multiplicity       :   1
Irrep              :   0
Energy             :  -385.5318509558923665 Eh
Relativity type    : 
Basis              : AO
                                X                 Y                 Z
Electronic contribution:      3.014867970       6.431649769      -1.558091516
Nuclear contribution   :     -2.894789906      -7.224764180       1.748849880
                        -----------------------------------------
Total Dipole Moment    :      0.120078064      -0.793114411       0.190758364
                        -----------------------------------------
Magnitude (a.u.)       :      0.824522871
Magnitude (Debye)      :      2.095770583



--------------------
Rotational spectrum 
--------------------
 
Rotational constants in cm-1:             0.109097             0.035957             0.027741 
Rotational constants in MHz :          3270.642121          1077.949391           831.646428 

Dipole components along the rotational axes: 
x,y,z [a.u.] :     0.037826    -0.823653     0.001703 
x,y,z [Debye]:     0.096146    -2.093560     0.004330 

 

Dipole moment calculation done in   0.0 sec 

Maximum memory used throughout the entire PROP-calculation: 7.9 MB

--------------------------------
SUGGESTED CITATIONS FOR THIS RUN
--------------------------------

Below you find a list of papers that are relevant to this ORCA run
We neither can nor want to force you to cite these papers, but we appreciate if you do
You receive ORCA, which is the product of decades of hard work by many enthusiastic individuals, for free
The only thing we kindly ask in return is that you cite our papers,
We deeply appreciate it, if you show your appreciation for ORCA by not just citing the generic ORCA reference.

Please note that relegating all ORCA citations to the supporting information does *not* help us.
SI sections are not indexed - citations you put there will not count into any citation statistics
But we need these citations in order to attract the funding resources that allow us to do what we are doing

Therefore, if you are a happy ORCA user, please consider citing a few of the papers listed below in the main body of your paper

In addition to the list printed below, the program has created the file sp.bibtex that contains the list in bibtex format
You can import this file easily into all common literature databanks and citation aid programs


List of essential papers. We consider these as the minimum necessary citations

  1. Neese,F.
     Software update: the ORCA program system, version 5.0
     WIRES Comput. Molec. Sci., 2022 12(1)e1606
     doi.org/10.1002/wcms.1606

List of papers to cite with high priority. The work reported in these papers was absolutely
necessary for this run to complete.
Our perspective: the developers of density functionals and basis sets usually get cited in chemistry papers
Good! But without the algorithms to do something with them, the functionals or basis sets would not do anything.
Hence, in our opinion, the algorithm design and method developments papers are equally worthy of getting cited

  1. Neese,F.
     An improvement of the resolution of the identity approximation for the formation of the Coulomb matrix
     J. Comp. Chem., 2003 24(14)1740-1747
     doi.org/10.1002/jcc.10318
  2. Neese,F.
     The SHARK Integral Generation and Digestion System
     J. Comp. Chem., 2022  1-16
     doi.org/10.1002/jcc.26942
  3. Caldeweyher,E.; Bannwarth,C.; Grimme,S.
     Extension of the D3 dispersion coefficient model
     J. Chem. Phys., 2017 147 034112-XXXX
     doi.org/10.1063/1.4993215
  4. Caldeweyher,E.; Ehlert,S.; Hansen,A.; Neugebauer,H.; Spicher,S.; Bannwarth,C.; Grimme,S.
     A generally applicable atomic-charge dependent London dispersion correction
     J. Chem. Phys., 2019 150 154122-XXXX
     doi.org/10.1063/1.5090222
  5. Caldeweyher,E.; Mewes,J.; Ehlert,S.; Grimme,S.
     Extension and evaluation of the D4 London-dispersion model for periodic systems
     Phys. Chem. Chem. Phys., 2020 22(16)8499-8512
     doi.org/10.1039/D0CP00502A

List of suggested additional citations. These are papers that are important in the 'surrounding' of 
of this run, or papers that preceded the highly important papers. If you like your results we are grateful for a citation.

  1. Neese,F.
     The ORCA program system
     WIRES Comput. Molec. Sci., 2012 2(1)73-78
     doi.org/10.1002/wcms.81
  2. Neese,F.
     Software update: the ORCA program system, version 4.0
     WIRES Comput. Molec. Sci., 2018 8(1)1-6
     doi.org/10.1002/wcms.1327
  3. Neese,F.; Wennmohs,F.; Becker,U.; Riplinger,C.
     The ORCA quantum chemistry program package
     J. Chem. Phys., 2020 152 Art. No. L224108
     doi.org/10.1063/5.0004608

List of optional additional citations

  1. Neese,F.
     Approximate second-order SCF convergence for spin unrestricted wavefunctions
     Chem. Phys. Lett., 2000 325(1-3)93-98
     doi.org/10.1016/s0009-2614(00)00662-x

Timings for individual modules:

Sum of individual times          ...       10.583 sec (=   0.176 min)
Startup calculation              ...        0.805 sec (=   0.013 min)   7.6 %
SCF iterations                   ...        9.640 sec (=   0.161 min)  91.1 %
Property calculations            ...        0.137 sec (=   0.002 min)   1.3 %
                             ****ORCA TERMINATED NORMALLY****
TOTAL RUN TIME: 0 days 0 hours 0 minutes 11 seconds 444 msec
