      -----------------------------------------------------------      
     |                   =====================                   |     
     |                           x T B                           |     
     |                   =====================                   |     
     |                         S. Grimme                         |     
     |          Mulliken Center for Theoretical Chemistry        |     
     |                    University of Bonn                     |     
      -----------------------------------------------------------      

   * xtb version 6.7.1 (edcfbbe) compiled by 'albert@albert-system' on 2024-07-22

   xtb is free software: you can redistribute it and/or modify it under
   the terms of the GNU Lesser General Public License as published by
   the Free Software Foundation, either version 3 of the License, or
   (at your option) any later version.
   
   xtb is distributed in the hope that it will be useful,
   but WITHOUT ANY WARRANTY; without even the implied warranty of
   MERCHANTABILITY or FITNESS FOR A PARTICULAR PURPOSE.  See the
   GNU Lesser General Public License for more details.
   
   Cite this work as:
   * C. Bannwarth, E. Caldeweyher, S. Ehlert, A. Hansen, P. Pracht,
     J. Seibert, S. Spicher, S. Grimme, WIREs Comput. Mol. Sci., 2020, 11,
     e01493. DOI: 10.1002/wcms.1493
   
   for GFN2-xTB:
   * C. Bannwarth, S. Ehlert and S. Grimme., J. Chem. Theory Comput., 2019,
     15, 1652-1671. DOI: 10.1021/acs.jctc.8b01176
   for GFN1-xTB:
   * S. Grimme, C. Bannwarth, P. Shushkov, J. Chem. Theory Comput., 2017,
     13, 1989-2009. DOI: 10.1021/acs.jctc.7b00118
   for GFN0-xTB:
   * P. Pracht, E. Caldeweyher, S. Ehlert, S. Grimme, ChemRxiv, 2019, preprint.
     DOI: 10.26434/chemrxiv.8326202.v1
   for GFN-FF:
   * S. Spicher and S. Grimme, Angew. Chem. Int. Ed., 2020, 59, 15665-15673.
     DOI: 10.1002/anie.202004239
   
   for ALPB and GBSA implicit solvation:
   * S. Ehlert, M. Stahn, S. Spicher, S. Grimme, J. Chem. Theory Comput.,
     2021, 17, 4250-4261. DOI: 10.1021/acs.jctc.1c00471
   
   for ddCOSMO and CPCM-X implicit solvation:
   * M. Stahn, S. Ehlert, S. Grimme, J. Phys. Chem. A,
     2023, XX, XXXX-XXXX. DOI: 10.1021/acs.jpca.3c04382
   
   for DFT-D4:
   * E. Caldeweyher, C. Bannwarth and S. Grimme, J. Chem. Phys., 2017,
     147, 034112. DOI: 10.1063/1.4993215
   * E. Caldeweyher, S. Ehlert, A. Hansen, H. Neugebauer, S. Spicher,
     C. Bannwarth and S. Grimme, J. Chem. Phys., 2019, 150, 154122.
     DOI: 10.1063/1.5090222
   * E. Caldeweyher, J.-M. Mewes, S. Ehlert and S. Grimme, Phys. Chem. Chem. Phys.
     2020, 22, 8499-8512. DOI: 10.1039/D0CP00502A
   
   for sTDA-xTB:
   * S. Grimme and C. Bannwarth, J. Chem. Phys., 2016, 145, 054103.
     DOI: 10.1063/1.4959605
   
   in the mass-spec context:
   * V. Asgeirsson, C. Bauer and S. Grimme, Chem. Sci., 2017, 8, 4879.
     DOI: 10.1039/c7sc00601b
   * J. Koopman and S. Grimme, ACS Omega 2019, 4, 12, 15120-15133.
     DOI: 10.1021/acsomega.9b02011
   
   for metadynamics refer to:
   * S. Grimme, J. Chem. Theory Comput., 2019, 155, 2847-2862
     DOI: 10.1021/acs.jctc.9b00143
   
   for SPH calculations refer to:
   * S. Spicher and S. Grimme, J. Chem. Theory Comput., 2021, 17, 1701-1714
     DOI: 10.1021/acs.jctc.0c01306
   
   for ONIOM refer to:
   * C. Plett, A. Katbashev, S. Ehlert, S. Grimme, M. Bursch,
     Phys. Chem. Chem. Phys., 2023, 25, 17860-17868. DOI: 10.1039/D3CP02178E
   
   for DIPRO refer to:
   * J. Kohn, N. Gildemeister, S. Grimme, D. Fazzi, A. Hansen,
     J. Chem. Phys., 2023, just accepted.
   
   for PTB refer to:
   * S. Grimme, M. Mueller, A. Hansen, J. Chem. Phys., 2023, 158, 124111.
     DOI: 10.1063/5.0137838
   
   with help from (in alphabetical order)
   P. Atkinson, C. Bannwarth, F. Bohle, G. Brandenburg, E. Caldeweyher
   M. Checinski, S. Dohm, S. Ehlert, S. Ehrlich, I. Gerasimov, C. Hölzer
   A. Katbashev, J. Kohn, J. Koopman, C. Lavigne, S. Lehtola, F. März, M. Müller,
   F. Musil, H. Neugebauer, J. Pisarek, C. Plett, P. Pracht, F. Pultar,
   J. Seibert, P. Shushkov, S. Spicher, M. Stahn, M. Steiner, T. Strunk,
   J. Stückrath, T. Rose, and J. Unsleber
   
 * started run on 2025/04/11 at 15:53:54.622     
   ID    Z sym.   atoms
    1    6 C      1-4, 7, 8
    2    8 O      5, 6
    3    1 H      9-20

           -------------------------------------------------
          |                Calculation Setup                |
           -------------------------------------------------

          program call               : /srv/scratch/z5358697/.xtb/bin/xtb gas.coord --gfn2 --sp --chrg 0 --norestart --parallel 1
          hostname                   : k061
          coordinate file            : gas.coord
          omp threads                :                     1


           -------------------------------------------------
          |                 G F N 2 - x T B                 |
           -------------------------------------------------

        Reference                      10.1021/acs.jctc.8b01176
      * Hamiltonian:
        H0-scaling (s, p, d)           1.850000    2.230000    2.230000
        zeta-weighting                 0.500000
      * Dispersion:
        s8                             2.700000
        a1                             0.520000
        a2                             5.000000
        s9                             5.000000
      * Repulsion:
        kExp                           1.500000    1.000000
        rExp                           1.000000
      * Coulomb:
        alpha                          2.000000
        third order                    shell-resolved
        anisotropic                    true
        a3                             3.000000
        a5                             4.000000
        cn-shift                       1.200000
        cn-exp                         4.000000
        max-rad                        5.000000


          ...................................................
          :                      SETUP                      :
          :.................................................:
          :  # basis functions                  44          :
          :  # atomic orbitals                  44          :
          :  # shells                           28          :
          :  # electrons                        48          :
          :  max. iterations                   250          :
          :  Hamiltonian                  GFN2-xTB          :
          :  restarted?                      false          :
          :  GBSA solvation                  false          :
          :  PC potential                    false          :
          :  electronic temp.          300.0000000     K    :
          :  accuracy                    1.0000000          :
          :  -> integral cutoff          0.2500000E+02      :
          :  -> integral neglect         0.1000000E-07      :
          :  -> SCF convergence          0.1000000E-05 Eh   :
          :  -> wf. convergence          0.1000000E-03 e    :
          :  Broyden damping             0.4000000          :
          :  net charge                          0          :
          :  unpaired electrons                  0          :
          ...................................................

 iter      E             dE          RMSdq      gap      omega  full diag
   1    -27.3552209 -0.273552E+02  0.384E+00    5.98       0.0  T
   2    -27.4259726 -0.707517E-01  0.199E+00    4.74       1.0  T
   3    -27.4292709 -0.329826E-02  0.112E+00    5.22       1.0  T
   4    -27.4314703 -0.219943E-02  0.177E-01    4.93       1.0  T
   5    -27.4317516 -0.281305E-03  0.726E-02    5.00       1.0  T
   6    -27.4317567 -0.514132E-05  0.238E-02    5.00       1.0  T
   7    -27.4317581 -0.138268E-05  0.731E-03    5.00       3.1  T
   8    -27.4317582 -0.125657E-06  0.184E-03    5.00      12.1  T
   9    -27.4317582 -0.659207E-08  0.875E-04    5.00      25.5  T
  10    -27.4317583 -0.225629E-08  0.268E-04    5.00      83.5  T

   *** convergence criteria satisfied after 10 iterations ***

         #    Occupation            Energy/Eh            Energy/eV
      -------------------------------------------------------------
         1        2.0000           -0.7407163             -20.1559
       ...           ...                  ...                  ...
        18        2.0000           -0.4745725             -12.9138
        19        2.0000           -0.4619971             -12.5716
        20        2.0000           -0.4493204             -12.2266
        21        2.0000           -0.4472521             -12.1703
        22        2.0000           -0.4401956             -11.9783
        23        2.0000           -0.4369045             -11.8888
        24        2.0000           -0.4083126             -11.1108 (HOMO)
        25                         -0.2246829              -6.1139 (LUMO)
        26                         -0.0043803              -0.1192
        27                          0.0944002               2.5688
        28                          0.1025871               2.7915
        29                          0.1243501               3.3837
       ...                                ...                  ...
        44                          0.6287834              17.1101
      -------------------------------------------------------------
                  HL-Gap            0.1836297 Eh            4.9968 eV
             Fermi-level           -0.3164977 Eh           -8.6123 eV

 SCC (total)                   0 d,  0 h,  0 min,  0.031 sec
 SCC setup                      ...        0 min,  0.000 sec (  0.736%)
 Dispersion                     ...        0 min,  0.000 sec (  0.454%)
 classical contributions        ...        0 min,  0.000 sec (  0.091%)
 integral evaluation            ...        0 min,  0.002 sec (  6.561%)
 iterations                     ...        0 min,  0.021 sec ( 69.439%)
 molecular gradient             ...        0 min,  0.007 sec ( 22.131%)
 printout                       ...        0 min,  0.000 sec (  0.525%)

         :::::::::::::::::::::::::::::::::::::::::::::::::::::
         ::                     SUMMARY                     ::
         :::::::::::::::::::::::::::::::::::::::::::::::::::::
         :: total energy             -27.115342678100 Eh    ::
         :: gradient norm              0.027521524211 Eh/a0 ::
         :: HOMO-LUMO gap              4.996817481266 eV    ::
         ::.................................................::
         :: SCC energy               -27.431697720736 Eh    ::
         :: -> isotropic ES            0.048408863975 Eh    ::
         :: -> anisotropic ES          0.002492206569 Eh    ::
         :: -> anisotropic XC          0.007676500723 Eh    ::
         :: -> dispersion             -0.011736297233 Eh    ::
         :: repulsion energy           0.316355042636 Eh    ::
         :: add. restraining           0.000000000000 Eh    ::
         :: total charge              -0.000000000000 e     ::
         :::::::::::::::::::::::::::::::::::::::::::::::::::::

           -------------------------------------------------
          |                Property Printout                |
           -------------------------------------------------

    * Orbital Energies and Occupations

         #    Occupation            Energy/Eh            Energy/eV
      -------------------------------------------------------------
         1        2.0000           -0.7407163             -20.1559
       ...           ...                  ...                  ...
        12        2.0000           -0.5243526             -14.2684
        13        2.0000           -0.5100910             -13.8803
        14        2.0000           -0.5032093             -13.6930
        15        2.0000           -0.4920355             -13.3890
        16        2.0000           -0.4875980             -13.2682
        17        2.0000           -0.4795148             -13.0483
        18        2.0000           -0.4745725             -12.9138
        19        2.0000           -0.4619971             -12.5716
        20        2.0000           -0.4493204             -12.2266
        21        2.0000           -0.4472521             -12.1703
        22        2.0000           -0.4401956             -11.9783
        23        2.0000           -0.4369045             -11.8888
        24        2.0000           -0.4083126             -11.1108 (HOMO)
        25                         -0.2246829              -6.1139 (LUMO)
        26                         -0.0043803              -0.1192
        27                          0.0944002               2.5688
        28                          0.1025871               2.7915
        29                          0.1243501               3.3837
        30                          0.1302013               3.5430
        31                          0.1453777               3.9559
        32                          0.1495763               4.0702
        33                          0.1529909               4.1631
        34                          0.1612470               4.3878
        35                          0.1707248               4.6457
       ...                                ...                  ...
        44                          0.6287834              17.1101
      -------------------------------------------------------------
                  HL-Gap            0.1836297 Eh            4.9968 eV
             Fermi-level           -0.3164977 Eh           -8.6123 eV

     #   Z          covCN         q      C6AA      α(0)
     1   6 C        3.752    -0.103    22.531     6.769
     2   6 C        3.802    -0.050    21.468     6.597
     3   6 C        3.804    -0.090    22.216     6.710
     4   6 C        2.712     0.359    20.908     7.485
     5   8 O        0.856    -0.428    22.239     6.323
     6   8 O        1.704    -0.264    18.370     5.787
     7   6 C        3.692     0.079    19.437     6.309
     8   6 C        3.751    -0.115    22.765     6.804
     9   1 H        0.925     0.036     2.500     2.473
    10   1 H        0.925     0.038     2.469     2.457
    11   1 H        0.925     0.040     2.455     2.450
    12   1 H        0.924     0.041     2.440     2.443
    13   1 H        0.924     0.053     2.288     2.366
    14   1 H        0.925     0.059     2.205     2.322
    15   1 H        0.924     0.065     2.136     2.285
    16   1 H        0.924     0.061     2.182     2.310
    17   1 H        0.924     0.049     2.335     2.389
    18   1 H        0.925     0.057     2.237     2.339
    19   1 H        0.925     0.053     2.284     2.363
    20   1 H        0.925     0.059     2.208     2.324

 Mol. C6AA /au·bohr⁶  :       3019.208638
 Mol. C8AA /au·bohr⁸  :      64021.768925
 Mol. α(0) /au        :         81.304408


Wiberg/Mayer (AO) data.
largest (>0.10) Wiberg bond orders for each atom

 ---------------------------------------------------------------------------
     #   Z sym  total        # sym  WBO       # sym  WBO       # sym  WBO
 ---------------------------------------------------------------------------
     1   6 C    3.997 --     2 C    1.021    10 H    0.987     9 H    0.987
                            11 H    0.987
     2   6 C    3.993 --     1 C    1.021     3 C    0.988    12 H    0.977
                            13 H    0.977
     3   6 C    3.994 --     2 C    0.988    14 H    0.975     4 C    0.972
                            15 H    0.956
     4   6 C    3.914 --     5 O    1.733     6 O    1.152     3 C    0.972
     5   8 O    2.018 --     4 C    1.733     6 O    0.176
     6   8 O    2.317 --     4 C    1.152     7 C    0.930     5 O    0.176
     7   6 C    3.926 --     8 C    1.019    17 H    0.969    16 H    0.968
                             6 O    0.930
     8   6 C    3.991 --     7 C    1.019    18 H    0.986    20 H    0.985
                            19 H    0.983
     9   1 H    0.999 --     1 C    0.987
    10   1 H    0.999 --     1 C    0.987
    11   1 H    0.998 --     1 C    0.987
    12   1 H    0.998 --     2 C    0.977
    13   1 H    0.997 --     2 C    0.977
    14   1 H    0.996 --     3 C    0.975
    15   1 H    0.996 --     3 C    0.956
    16   1 H    0.996 --     7 C    0.968
    17   1 H    0.997 --     7 C    0.969
    18   1 H    0.997 --     8 C    0.986
    19   1 H    0.996 --     8 C    0.983
    20   1 H    0.996 --     8 C    0.985
 ---------------------------------------------------------------------------

Topologies differ in total number of bonds
Writing topology from bond orders to xtbtopo.mol

molecular dipole:
                 x           y           z       tot (Debye)
 q only:        0.216      -0.644       0.662
   full:        0.239      -0.605       0.745       2.514
molecular quadrupole (traceless):
                xx          xy          yy          xz          yz          zz
 q only:        7.598      -1.767      -3.037      -1.199       3.297      -4.561
  q+dip:        6.759      -0.732      -2.895      -1.370       4.310      -3.864
   full:        6.997      -0.791      -2.427      -1.352       4.744      -4.570


           -------------------------------------------------
          | TOTAL ENERGY              -27.115342678100 Eh   |
          | GRADIENT NORM               0.027521524211 Eh/α |
          | HOMO-LUMO GAP               4.996817481266 eV   |
           -------------------------------------------------

------------------------------------------------------------------------
 * finished run on 2025/04/11 at 15:53:54.686     
------------------------------------------------------------------------
 total:
 * wall-time:     0 d,  0 h,  0 min,  0.063 sec
 *  cpu-time:     0 d,  0 h,  0 min,  0.028 sec
 * ratio c/w:     0.436 speedup
 SCF:
 * wall-time:     0 d,  0 h,  0 min,  0.031 sec
 *  cpu-time:     0 d,  0 h,  0 min,  0.019 sec
 * ratio c/w:     0.604 speedup

