
                                 *****************
                                 * O   R   C   A *
                                 *****************

                                            #,                                       
                                            ###                                      
                                            ####                                     
                                            #####                                    
                                            ######                                   
                                           ########,                                 
                                     ,,################,,,,,                         
                               ,,#################################,,                 
                          ,,##########################################,,             
                       ,#########################################, ''#####,          
                    ,#############################################,,   '####,        
                  ,##################################################,,,,####,       
                ,###########''''           ''''###############################       
              ,#####''   ,,,,##########,,,,          '''####'''          '####       
            ,##' ,,,,###########################,,,                        '##       
           ' ,,###''''                  '''############,,,                           
         ,,##''                                '''############,,,,        ,,,,,,###''
      ,#''                                            '''#######################'''  
     '                                                          ''''####''''         
             ,#######,   #######,   ,#######,      ##                                
            ,#'     '#,  ##    ##  ,#'     '#,    #''#        ,####,   ,####,        
            ##       ##  ##   ,#'  ##            #'  '#       #'       #'  '#        
            ##       ##  #######   ##           ,######,      #####,   #    #        
            '#,     ,#'  ##    ##  '#,     ,#' ,#      #,     #,   #   #,  ,#        
             '#######'   ##     ##  '#######'  #'      '#     '####' # '####'        



                #########################################################
                #                        -***-                          #
                #          Department of theory and spectroscopy        #
                #                                                       #
                #                      Frank Neese                      #
                #                                                       #
                #     Directorship, Architecture, Infrastructure        #
                #                    SHARK, DRIVERS                     #
                #        Core code/Algorithms in most modules           #
                #                                                       #
                #        Max Planck Institute fuer Kohlenforschung      #
                #                Kaiser Wilhelm Platz 1                 #
                #                 D-45470 Muelheim/Ruhr                 #
                #                      Germany                          #
                #                                                       #
                #                  All rights reserved                  #
                #                        -***-                          #
                #########################################################


                         Program Version 6.0.0  -   RELEASE  -


 With contributions from (in alphabetic order):
   Daniel Aravena         : Magnetic Suceptibility
   Michael Atanasov       : Ab Initio Ligand Field Theory (pilot matlab implementation)
   Alexander A. Auer      : GIAO ZORA, VPT2 properties, NMR spectrum
   Ute Becker             : All parallelization in ORCA, NUMFREQ, NUMCALC
   Giovanni Bistoni       : ED, misc. LED, open-shell LED, HFLD
   Martin Brehm           : Molecular dynamics
   Dmytro Bykov           : pre 5.0 version of the SCF Hessian
   Marcos Casanova-Páez   : Triplet and SCS-CIS(D). UHF-(DLPNO)-IP/EA/STEOM-CCSD. UHF-CVS-IP/STEOM-CCSD
   Vijay G. Chilkuri      : MRCI spin determinant printing, contributions to CSF-ICE
   Pauline Colinet        : FMM embedding
   Dipayan Datta          : RHF DLPNO-CCSD density
   Achintya Kumar Dutta   : EOM-CC, STEOM-CC
   Nicolas Foglia         : Exact transition moments, OPA infrastructure, MCD improvements
   Dmitry Ganyushin       : Spin-Orbit,Spin-Spin,Magnetic field MRCI
   Miquel Garcia          : C-PCM and meta-GGA Hessian, CCSD/C-PCM, Gaussian charge scheme
   Tiago L. C. Gouveia    : GS-ROHF, GS-ROCIS
   Yang Guo               : DLPNO-NEVPT2, F12-NEVPT2, CIM, IAO-localization
   Andreas Hansen         : Spin unrestricted coupled pair/coupled cluster methods
   Ingolf Harden          : AUTO-CI MPn and infrastructure 
   Benjamin Helmich-Paris : MC-RPA, TRAH-(SCF,CASSCF), AVAS, COSX integrals, SCF dyn. polar.
   Lee Huntington         : MR-EOM, pCC
   Robert Izsak           : Overlap fitted RIJCOSX, COSX-SCS-MP3, EOM
   Riya Kayal             : Wick's Theorem for AUTO-CI, AUTO-CI UHF-CCSDT
   Emily Kempfer          : AUTO-CI, RHF CISDT and CCSDT
   Christian Kollmar      : KDIIS, OOCD, Brueckner-CCSD(T), CCSD density, CASPT2, CASPT2-K, improved NEVPT2
   Axel Koslowski         : Symmetry handling
   Simone Kossmann        : Meta GGA functionals, TD-DFT gradient, OOMP2, (MP2 Hessian; deprecated post 5.0)
   Lucas Lang             : DCDCAS
   Marvin Lechner         : AUTO-CI (C++ implementation), FIC-MRCC
   Spencer Leger          : CASSCF response
   Dagmar Lenk            : GEPOL surface, SMD, ORCA-2-JSON
   Dimitrios Liakos       : Extrapolation schemes; Compound Job, initial MDCI parallelization
   Dimitrios Manganas     : Further ROCIS development; embedding schemes. LFT, Crystal Embedding
   Dimitrios Pantazis     : SARC Basis sets
   Anastasios Papadopoulos: AUTO-CI, single reference methods and gradients
   Taras Petrenko         : pre 6.0 DFT Hessian and TD-DFT gradient, (ASA, deprecated), ECA, 1-Electron XAS/XES, NRVS
   Peter Pinski           : DLPNO-MP2, DLPNO-MP2 Gradient
   Christoph Reimann      : Effective Core Potentials
   Marius Retegan         : Local ZFS, SOC
   Christoph Riplinger    : Optimizer, TS searches, QM/MM, DLPNO-CCSD(T), (RO)-DLPNO pert. Triples
   Michael Roemelt        : Original ROCIS implementation
   Masaaki Saitow         : Open-shell DLPNO-CCSD energy and density
   Barbara Sandhoefer     : DKH picture change effects
   Kantharuban Sivalingam : CASSCF convergence/infrastructure, NEVPT2 and variants, FIC-MRCI
   Bernardo de Souza      : ESD, SOC TD-DFT
   Georgi Stoychev        : AutoAux, RI-MP2 NMR, DLPNO-MP2 response, X2C
   Van Anh Tran           : RI-MP2 g-tensors
   Willem Van den Heuvel  : Paramagnetic NMR
   Zikuan Wang            : NOTCH, Electric field optimization 
   Frank Wennmohs         : Technical directorship and infrastructure
   Hang Xu                : AUTO-CI-Response properties 


 We gratefully acknowledge several colleagues who have allowed us to
 interface, adapt or use parts of their codes:
   Stefan Grimme, W. Hujo, H. Kruse, P. Pracht,  : VdW corrections, initial TS optimization,
                  C. Bannwarth, S. Ehlert,         DFT functionals, gCP, sTDA/sTD-DF
                  L. Wittmann, M. Mueller
   Ed Valeev, F. Pavosevic, A. Kumar             : LibInt (2-el integral package), F12 methods
   Garnet Chan, S. Sharma, J. Yang, R. Olivares  : DMRG
   Ulf Ekstrom                                   : XCFun DFT Library
   Mihaly Kallay                                 : mrcc  (arbitrary order and MRCC methods)
   Frank Weinhold                                : gennbo (NPA and NBO analysis)
   Simon Mueller                                 : openCOSMO-RS
   Christopher J. Cramer and Donald G. Truhlar   : smd solvation model
   Lars Goerigk                                  : TD-DFT with DH, B97 family of functionals
   V. Asgeirsson, H. Jonsson                     : NEB implementation
   FAccTs GmbH                                   : IRC, NEB, NEB-TS, DLPNO-Multilevel, CI-OPT
                                                   MM, QMMM, 2- and 3-layer-ONIOM, Crystal-QMMM,
                                                   LR-CPCM, SF, NACMEs, symmetry and pop. for TD-DFT,
                                                   nearIR, NL-DFT gradient (VV10), updates on ESD,
                                                   ML-optimized integration grids, MBIS, APM,
                                                   GOAT, DOCKER, SOLVATOR, interface openCOSMO-RS
   S Lehtola, MJT Oliveira, MAL Marques          : LibXC Library
   Liviu Ungur et al                             : ANISO software


 Your calculation uses the libint2 library for the computation of 2-el integrals
 For citations please refer to: http://libint.valeyev.net

 Your ORCA version has been built with support for libXC version: 6.2.2
 For citations please refer to: https://libxc.gitlab.io

 This ORCA versions uses:
   CBLAS   interface :  Fast vector & matrix operations
   LAPACKE interface :  Fast linear algebra routines
   SCALAPACK package :  Parallel linear algebra routines
   Shared memory     :  Shared parallel matrices
   BLAS/LAPACK       :  OpenBLAS 0.3.27  USE64BITINT DYNAMIC_ARCH NO_AFFINITY SkylakeX SINGLE_THREADED
        Core in use  :  SkylakeX
   Copyright (c) 2011-2014, The OpenBLAS Project


Your calculation utilizes the geometrical counterpoise correction gCP
Please cite in your paper:
H.Kruse, S. Grimme J.Chem.Phys., 136, (2012), 154101 
   

Your calculation utilizes the atom-pairwise dispersion correction
based on EEQ partial charges (D4)


================================================================================

----- Orbital basis set information -----
Your calculation utilizes the basis: def2-SV(P)
   F. Weigend and R. Ahlrichs, Phys. Chem. Chem. Phys. 7, 3297 (2005).

----- AuxJ basis set information -----
Your calculation utilizes the auxiliary basis: def2/J
   F. Weigend, Phys. Chem. Chem. Phys. 8, 1057 (2006).

================================================================================
                                        WARNINGS
                       Please study these warnings very carefully!
================================================================================


================================================================================
                                       INPUT FILE
================================================================================
NAME = sp.inp
|  1> ! pbe def2-sv(p) def2/J RI DEFGRID1 loosescf d4 GCP(DFT/SV(P)) printgap
|  2> %output
|  3>     printlevel normal
|  4> end
|  5> * xyz 0 1
|  6> C -3.6353063067 0.1908781875 1.8804555149
|  7> C -3.0570156048 0.6004248031 0.5260444892
|  8> H -3.1136975949 1.6839504429 0.3964125541
|  9> C -1.6117699829 0.1673011518 0.383497007
| 10> C -1.2882317388 -1.2051915533 0.3955473198
| 11> C 0.0070364543 -1.6201914953 0.284746642
| 12> C 1.0586687671 -0.6859176247 0.1559329116
| 13> C 2.4012176509 -1.079764116 0.0430799083
| 14> C 3.4076346146 -0.1471113467 -0.0857387752
| 15> C 3.087582684 1.2251363655 -0.1049438576
| 16> C 1.7852815041 1.6279164133 0.0037052994
| 17> C 0.737208829 0.6968920899 0.1362053023
| 18> C -0.6113604704 1.092611049 0.2478754054
| 19> O 4.6770339537 -0.6392587032 -0.1885202294
| 20> C 5.7558624944 0.2669265582 -0.3222784073
| 21> C -3.8144252783 -0.0408414108 -0.6159149761
| 22> O -4.3349897337 -1.1344706926 -0.5837378236
| 23> O -3.8156328692 0.7201552593 -1.6991650955
| 24> H -2.9982320531 0.5599108699 2.6789540755
| 25> H -4.6342921485 0.6017062074 2.0022639276
| 26> H -3.6999150687 -0.8916287652 1.9492385177
| 27> H -2.0857406315 -1.9288566384 0.4798402517
| 28> H 0.2468138678 -2.673060386 0.2922976323
| 29> H 2.660136119 -2.1272636934 0.056361869
| 30> H 3.8656648174 1.9643708746 -0.205177914
| 31> H 1.5464238662 2.6808630656 -0.0115770943
| 32> H -0.8420843026 2.1478650654 0.2287086058
| 33> H 5.8302756658 0.9258371609 0.5466528748
| 34> H 5.6633545611 0.8614855641 -1.2348496702
| 35> H 6.6445862555 -0.3572672826 -0.3830484962
| 36> H -4.2611040329 0.2982383474 -2.4598217843
| 37> *
| 38> 
| 39>                          ****END OF INPUT****
================================================================================

                       ****************************
                       * Single Point Calculation *
                       ****************************

---------------------------------
CARTESIAN COORDINATES (ANGSTROEM)
---------------------------------
  C     -3.635306    0.190878    1.880456
  C     -3.057016    0.600425    0.526044
  H     -3.113698    1.683950    0.396413
  C     -1.611770    0.167301    0.383497
  C     -1.288232   -1.205192    0.395547
  C      0.007036   -1.620191    0.284747
  C      1.058669   -0.685918    0.155933
  C      2.401218   -1.079764    0.043080
  C      3.407635   -0.147111   -0.085739
  C      3.087583    1.225136   -0.104944
  C      1.785282    1.627916    0.003705
  C      0.737209    0.696892    0.136205
  C     -0.611360    1.092611    0.247875
  O      4.677034   -0.639259   -0.188520
  C      5.755862    0.266927   -0.322278
  C     -3.814425   -0.040841   -0.615915
  O     -4.334990   -1.134471   -0.583738
  O     -3.815633    0.720155   -1.699165
  H     -2.998232    0.559911    2.678954
  H     -4.634292    0.601706    2.002264
  H     -3.699915   -0.891629    1.949239
  H     -2.085741   -1.928857    0.479840
  H      0.246814   -2.673060    0.292298
  H      2.660136   -2.127264    0.056362
  H      3.865665    1.964371   -0.205178
  H      1.546424    2.680863   -0.011577
  H     -0.842084    2.147865    0.228709
  H      5.830276    0.925837    0.546653
  H      5.663355    0.861486   -1.234850
  H      6.644586   -0.357267   -0.383048
  H     -4.261104    0.298238   -2.459822

----------------------------
CARTESIAN COORDINATES (A.U.)
----------------------------
  NO LB      ZA    FRAG     MASS         X           Y           Z
   0 C     6.0000    0    12.011   -6.869733    0.360707    3.553546
   1 C     6.0000    0    12.011   -5.776922    1.134638    0.994080
   2 H     1.0000    0     1.008   -5.884036    3.182205    0.749111
   3 C     6.0000    0    12.011   -3.045804    0.316153    0.724704
   4 C     6.0000    0    12.011   -2.434405   -2.277482    0.747476
   5 C     6.0000    0    12.011    0.013297   -3.061718    0.538093
   6 C     6.0000    0    12.011    2.000594   -1.296196    0.294670
   7 C     6.0000    0    12.011    4.537644   -2.040458    0.081409
   8 C     6.0000    0    12.011    6.439496   -0.278000   -0.162023
   9 C     6.0000    0    12.011    5.834686    2.315172   -0.198315
  10 C     6.0000    0    12.011    3.373693    3.076316    0.007002
  11 C     6.0000    0    12.011    1.393123    1.316935    0.257391
  12 C     6.0000    0    12.011   -1.155304    2.064736    0.468417
  13 O     8.0000    0    15.999    8.838313   -1.208024   -0.356252
  14 C     6.0000    0    12.011   10.877004    0.504418   -0.609018
  15 C     6.0000    0    12.011   -7.208219   -0.077179   -1.163911
  16 O     8.0000    0    15.999   -8.191943   -2.143839   -1.103105
  17 O     8.0000    0    15.999   -7.210501    1.360896   -3.210957
  18 H     1.0000    0     1.008   -5.665837    1.058078    5.062490
  19 H     1.0000    0     1.008   -8.757543    1.137060    3.783730
  20 H     1.0000    0     1.008   -6.991826   -1.684934    3.683527
  21 H     1.0000    0     1.008   -3.941479   -3.645011    0.906767
  22 H     1.0000    0     1.008    0.466411   -5.051352    0.552362
  23 H     1.0000    0     1.008    5.026929   -4.019946    0.106508
  24 H     1.0000    0     1.008    7.305048    3.712123   -0.387730
  25 H     1.0000    0     1.008    2.922318    5.066097   -0.021878
  26 H     1.0000    0     1.008   -1.591309    4.058877    0.432197
  27 H     1.0000    0     1.008   11.017624    1.749579    1.033024
  28 H     1.0000    0     1.008   10.702189    1.627972   -2.333528
  29 H     1.0000    0     1.008   12.556448   -0.675137   -0.723857
  30 H     1.0000    0     1.008   -8.052320    0.563589   -4.648390

--------------------------------
INTERNAL COORDINATES (ANGSTROEM)
--------------------------------
 C      0   0   0     0.000000000000     0.00000000     0.00000000
 C      1   0   0     1.528586861382     0.00000000     0.00000000
 H      2   1   0     1.092723706480   110.55827693     0.00000000
 C      2   1   3     1.515470484575   111.56501598   121.17631315
 C      4   2   1     1.410162554809   119.74657951    63.21215994
 C      5   4   2     1.364632343936   120.86819096   180.77905073
 C      6   5   4     1.412583152862   120.85718526     0.04451508
 C      7   6   5     1.403669606587   122.26344370   179.85101813
 C      8   7   6     1.378154761311   121.07092312   179.79279721
 C      9   8   7     1.409207528049   119.63092899     0.00000000
 C     10   9   8     1.367488489674   120.13377227     0.00000000
 C     11  10   9     1.408126014894   121.43661541     0.00000000
 C      4   2   1     1.369456394843   120.85522064   243.46757771
 O      9   8   7     1.365337954480   116.23477112   180.01816508
 C     14   9   8     1.415250507282   119.01492143   180.04518596
 C      2   1   3     1.512931984918   111.45907349   240.18663003
 O     16   2   1     1.211630194151   125.28330844   327.28681134
 O     16   2   1     1.323838438541   111.98919530   149.25880872
 H      1   2   3     1.086116327361   109.78402749   292.56799251
 H      1   2   3     1.087009504768   110.22521315    52.85325716
 H      1   2   3     1.086612486697   110.21199088   172.39898533
 H      5   4   2     1.080192986321   118.90246622     1.65839763
 H      6   5   4     1.079853289333   120.44451220   180.15293004
 H      8   7   6     1.079106365590   120.05729679   359.78927063
 H     10   9   8     1.077926867567   120.34029989   179.99914802
 H     11  10   9     1.079807008372   119.78509146   179.99453604
 H     13   4   2     1.080352670233   120.37949359   359.25567225
 H     15  14   9     1.093042577140   111.26913747    61.42493123
 H     15  14   9     1.093089401234   111.26408115   298.41536223
 H     15  14   9     1.087722794714   105.10975713   179.92451200
 H     18  16   2     0.977270196236   112.90066137   176.98174315

---------------------------
INTERNAL COORDINATES (A.U.)
---------------------------
 C      0   0   0     0.000000000000     0.00000000     0.00000000
 C      1   0   0     2.888610539923     0.00000000     0.00000000
 H      2   1   0     2.064948545291   110.55827693     0.00000000
 C      2   1   3     2.863824179888   111.56501598   121.17631315
 C      4   2   1     2.664821032901   119.74657951    63.21215994
 C      5   4   2     2.578781403531   120.86819096   180.77905073
 C      6   5   4     2.669395300301   120.85718526     0.04451508
 C      7   6   5     2.652551138958   122.26344370   179.85101813
 C      8   7   6     2.604335069038   121.07092312   179.79279721
 C      9   8   7     2.663016293872   119.63092899     0.00000000
 C     10   9   8     2.584178736774   120.13377227     0.00000000
 C     11  10   9     2.660972530200   121.43661541     0.00000000
 C      4   2   1     2.587897538601   120.85522064   243.46757771
 O      9   8   7     2.580114814216   116.23477112   180.01816508
 C     14   9   8     2.674435869657   119.01492143   180.04518596
 C      2   1   3     2.859027110746   111.45907349   240.18663003
 O     16   2   1     2.289649242536   125.28330844   327.28681134
 O     16   2   1     2.501692094401   111.98919530   149.25880872
 H      1   2   3     2.052462408292   109.78402749   292.56799251
 H      1   2   3     2.054150268981   110.22521315    52.85325716
 H      1   2   3     2.053400013556   110.21199088   172.39898533
 H      5   4   2     2.041268915929   118.90246622     1.65839763
 H      6   5   4     2.040626981653   120.44451220   180.15293004
 H      8   7   6     2.039215500336   120.05729679   359.78927063
 H     10   9   8     2.036986572097   120.34029989   179.99914802
 H     11  10   9     2.040539523313   119.78509146   179.99453604
 H     13   4   2     2.041570674792   120.37949359   359.25567225
 H     15  14   9     2.065551123510   111.26913747    61.42493123
 H     15  14   9     2.065639608225   111.26408115   298.41536223
 H     15  14   9     2.055498191634   105.10975713   179.92451200
 H     18  16   2     1.846773029730   112.90066137   176.98174315

---------------------
BASIS SET INFORMATION
---------------------
There are 3 groups of distinct atoms

 Group   1 Type C   : 7s4p1d contracted to 3s2p1d pattern {511/31/1}
 Group   2 Type H   : 4s contracted to 2s pattern {31}
 Group   3 Type O   : 7s4p1d contracted to 3s2p1d pattern {511/31/1}

Atom   0C    basis set group =>   1
Atom   1C    basis set group =>   1
Atom   2H    basis set group =>   2
Atom   3C    basis set group =>   1
Atom   4C    basis set group =>   1
Atom   5C    basis set group =>   1
Atom   6C    basis set group =>   1
Atom   7C    basis set group =>   1
Atom   8C    basis set group =>   1
Atom   9C    basis set group =>   1
Atom  10C    basis set group =>   1
Atom  11C    basis set group =>   1
Atom  12C    basis set group =>   1
Atom  13O    basis set group =>   3
Atom  14C    basis set group =>   1
Atom  15C    basis set group =>   1
Atom  16O    basis set group =>   3
Atom  17O    basis set group =>   3
Atom  18H    basis set group =>   2
Atom  19H    basis set group =>   2
Atom  20H    basis set group =>   2
Atom  21H    basis set group =>   2
Atom  22H    basis set group =>   2
Atom  23H    basis set group =>   2
Atom  24H    basis set group =>   2
Atom  25H    basis set group =>   2
Atom  26H    basis set group =>   2
Atom  27H    basis set group =>   2
Atom  28H    basis set group =>   2
Atom  29H    basis set group =>   2
Atom  30H    basis set group =>   2
---------------------------------
AUXILIARY/J BASIS SET INFORMATION
---------------------------------
There are 3 groups of distinct atoms

 Group   1 Type C   : 12s5p4d2f1g contracted to 6s4p3d1f1g pattern {711111/2111/211/2/1}
 Group   2 Type H   : 5s2p1d contracted to 3s1p1d pattern {311/2/1}
 Group   3 Type O   : 12s5p4d2f1g contracted to 6s4p3d1f1g pattern {711111/2111/211/2/1}

Atom   0C    basis set group =>   1
Atom   1C    basis set group =>   1
Atom   2H    basis set group =>   2
Atom   3C    basis set group =>   1
Atom   4C    basis set group =>   1
Atom   5C    basis set group =>   1
Atom   6C    basis set group =>   1
Atom   7C    basis set group =>   1
Atom   8C    basis set group =>   1
Atom   9C    basis set group =>   1
Atom  10C    basis set group =>   1
Atom  11C    basis set group =>   1
Atom  12C    basis set group =>   1
Atom  13O    basis set group =>   3
Atom  14C    basis set group =>   1
Atom  15C    basis set group =>   1
Atom  16O    basis set group =>   3
Atom  17O    basis set group =>   3
Atom  18H    basis set group =>   2
Atom  19H    basis set group =>   2
Atom  20H    basis set group =>   2
Atom  21H    basis set group =>   2
Atom  22H    basis set group =>   2
Atom  23H    basis set group =>   2
Atom  24H    basis set group =>   2
Atom  25H    basis set group =>   2
Atom  26H    basis set group =>   2
Atom  27H    basis set group =>   2
Atom  28H    basis set group =>   2
Atom  29H    basis set group =>   2
Atom  30H    basis set group =>   2
------------------------------------------------------------------------------
                             ORCA STARTUP CALCULATIONS
                           -- RI-GTO INTEGRALS CHOSEN --
------------------------------------------------------------------------------
------------------------------------------------------------------------------
                   ___                                                        
                  /   \      - P O W E R E D   B Y -                         
                 /     \                                                     
                 |  |  |   _    _      __       _____    __    __             
                 |  |  |  | |  | |    /  \     |  _  \  |  |  /  |          
                  \  \/   | |  | |   /    \    | | | |  |  | /  /          
                 / \  \   | |__| |  /  /\  \   | |_| |  |  |/  /          
                |  |  |   |  __  | /  /__\  \  |    /   |      \           
                |  |  |   | |  | | |   __   |  |    \   |  |\   \          
                \     /   | |  | | |  |  |  |  | |\  \  |  | \   \       
                 \___/    |_|  |_| |__|  |__|  |_| \__\ |__|  \__/        
                                                                              
                      - O R C A' S   B I G   F R I E N D -                    
                                      &                                       
                       - I N T E G R A L  F E E D E R -                       
                                                                              
 v1 FN, 2020, v2 2021, v3 2022-2024                                           
------------------------------------------------------------------------------


----------------------
SHARK INTEGRAL PACKAGE
----------------------

Number of atoms                             ...     31
Number of basis functions                   ...    266
Number of shells                            ...    130
Maximum angular momentum                    ...      2
Integral batch strategy                     ... SHARK/LIBINT Hybrid
RI-J (if used) integral strategy            ... SPLIT-RIJ (Revised 2003 algorithm where possible)
Printlevel                                  ...      1
Contraction scheme used                     ... SEGMENTED contraction
Prescreening option                         ... SCHWARTZ
   Thresh                                   ... 1.000e-09
   Tcut                                     ... 1.000e-10
   Tpresel                                  ... 1.000e-10 
Coulomb Range Separation                    ... NOT USED
Exchange Range Separation                   ... NOT USED
Multipole approximations                    ... NOT USED
Finite Nucleus Model                        ... NOT USED
CABS basis                                  ... NOT available
Auxiliary Coulomb fitting basis             ... AVAILABLE
   # of basis functions in Aux-J            ...    987
   # of shells in Aux-J                     ...    325
   Maximum angular momentum in Aux-J        ...      4
Auxiliary J/K fitting basis                 ... NOT available
Auxiliary Correlation fitting basis         ... NOT available
Auxiliary 'external' fitting basis          ... NOT available

Checking pre-screening integrals            ... done (  0.0 sec) Dimension = 130
Check shell pair data                       ... done (  0.0 sec)
Shell pair information
Shell pair cut-off parameter TPreSel        ...   1.0e-10
Total number of shell pairs                 ...      8515
Shell pairs after pre-screening             ...      6470
Total number of primitive shell pairs       ...     34193
Primitive shell pairs kept                  ...     16516
          la=0 lb=0:   2322 shell pairs
          la=1 lb=0:   2159 shell pairs
          la=1 lb=1:    518 shell pairs
          la=2 lb=0:    926 shell pairs
          la=2 lb=1:    448 shell pairs
          la=2 lb=2:     97 shell pairs

Calculating one electron integrals          ... done (  0.1 sec)
Calculating RI/J V-Matrix + Cholesky decomp.... done (  0.2 sec)
Calculating Nuclear repulsion               ... done (  0.0 sec) ENN=   1134.181667994060 Eh

Diagonalization of the overlap matrix:
Smallest eigenvalue                        ... 2.262e-04
Time for diagonalization                   ...    0.015 sec
Threshold for overlap eigenvalues          ... 1.000e-07
Number of eigenvalues below threshold      ... 0
Time for construction of square roots      ...    0.029 sec
Total time needed                          ...    0.054 sec

-------------------
DFT GRID GENERATION
-------------------

General Integration Accuracy     IntAcc      ... 4.159
Radial Grid Type                 RadialGrid  ... OptM3 with GC (2021)
Angular Grid (max. ang.)         AngularGrid ... 3 (Lebedev-194)
Angular grid pruning method      GridPruning ... 4 (adaptive)
Weight generation scheme         WeightScheme... mBecke (2022)
Basis function cutoff            BFCut       ... 1.0000e-10
Integration weight cutoff        WCut        ... 1.0000e-14
Partially contracted basis set               ... off
Rotationally invariant grid construction     ... off
Angular grids for H and He will be reduced by one unit

Total number of grid points                  ...    74707
Total number of batches                      ...     1186
Average number of points per batch           ...       62
Average number of grid points per atom       ...     2410
Initializing property integral containers    ... done (  0.0 sec)

SHARK setup successfully completed in   1.6 seconds

Maximum memory used throughout the entire STARTUP-calculation: 38.0 MB
-------------------------------------------------------------------------------
                                 ORCA GUESS
                   Start orbitals & Density for SCF / CASSCF
-------------------------------------------------------------------------------

------------
SCF SETTINGS
------------
Hamiltonian:
 Density Functional     Method          .... DFT(GTOs)
 Exchange Functional    Exchange        .... PBE
   PBE kappa parameter   XKappa         ....  0.804000
   PBE mue parameter    XMuePBE         ....  0.219520
 Correlation Functional Correlation     .... PBE
   PBE beta parameter  CBetaPBE         ....  0.066725
 LDA part of GGA corr.  LDAOpt          .... PW91-LDA
 Gradients option       PostSCFGGA      .... off
   NL short-range parameter             ....  6.400000
 RI-approximation to the Coulomb term is turned on
   Number of AuxJ basis functions       .... 987


General Settings:
 Integral files         IntName         .... sp
 Hartree-Fock type      HFTyp           .... RHF
 Total Charge           Charge          ....    0
 Multiplicity           Mult            ....    1
 Number of Electrons    NEL             ....  122
 Basis Dimension        Dim             ....  266
 Nuclear Repulsion      ENuc            ....   1134.1816679941 Eh

Convergence Acceleration:
 AO-DIIS                CNVDIIS         .... on
   Start iteration      DIISMaxIt       ....    12
   Startup error        DIISStart       ....  0.200000
   # of expansion vecs  DIISMaxEq       ....     5
   Bias factor          DIISBfac        ....   1.050
   Max. coefficient     DIISMaxC        ....  10.000
 MO-DIIS                CNVKDIIS        .... off
 Trust-Rad. Augm. Hess. CNVTRAH         .... auto
   Auto Start mean grad. ratio tolernc. ....  1.125000
   Auto Start start iteration           ....    50
   Auto Start num. interpolation iter.  ....    10
   Max. Number of Micro iterations      ....    24
   Max. Number of Macro iterations      .... Maxiter - #DIIS iter
   Number of Davidson start vectors     ....     2
   Converg. threshold    (grad. norm)   ....   1.000e-04
   Grad. Scal. Fac. for Micro threshold ....   0.100
   Minimum threshold for Micro iter.    ....   1.000e-02
   NR start threshold (gradient norm)   ....   1.000e-04
   Initial trust radius                 ....   0.400
   Minimum AH scaling param. (alpha)    ....   1.000
   Maximum AH scaling param. (alpha)    .... 1000.000
   Quad. conv. algorithm                .... NR
   White noise on init. David. guess    .... on
   Maximum white noise                  ....   0.010
   Pseudo random numbers                .... off
   Inactive MOs                         .... canonical
   Orbital update algorithm             .... Taylor
   Preconditioner                       .... Diag
   Full preconditioner red. dimension   ....   250
 SOSCF                  CNVSOSCF        .... on
   Start iteration      SOSCFMaxIt      ....   150
   Startup grad/error   SOSCFStart      ....  0.003300
   Hessian update       SOSCFHessUp     .... L-BFGS
 Level Shifting         CNVShift        .... on
   Level shift para.    LevelShift      ....    0.2500
   Turn off err/grad.   ShiftErr        ....    0.0010
 Zerner damping         CNVZerner       .... off
 Static damping         CNVDamp         .... on
   Fraction old density DampFac         ....    0.7000
   Max. Damping (<1)    DampMax         ....    0.9800
   Min. Damping (>=0)   DampMin         ....    0.0000
   Turn off err/grad.   DampErr         ....    0.1000

SCF Procedure:
 Maximum # iterations   MaxIter         ....   125
 SCF integral mode      SCFMode         .... Direct
   Integral package                     .... SHARK and LIBINT hybrid scheme
 Reset frequency        DirectResetFreq ....    20
 Integral Threshold     Thresh          ....  1.000e-09 Eh
 Primitive CutOff       TCut            ....  1.000e-10 Eh

Convergence Tolerance:
 Convergence Check Mode ConvCheckMode   .... Total+1el-Energy
 Convergence forced     ConvForced      .... 0
 Energy Change          TolE            ....  1.000e-05 Eh
 1-El. energy change                    ....  1.000e-02 Eh
 Orbital Gradient       TolG            ....  1.000e-04
 Orbital Rotation angle TolX            ....  1.000e-04
 DIIS Error             TolErr          ....  5.000e-04

------------------------------
INITIAL GUESS: MODEL POTENTIAL
------------------------------
Loading Hartree-Fock densities                     ... done
Calculating cut-offs                               ... done
Initializing the effective Hamiltonian             ... done
Setting up the integral package (SHARK)            ... done
Starting the Coulomb interaction                   ... done (   0.6 sec)
Making the grid                                    ... done (   0.5 sec)
Mapping shells                                     ... done
Starting the XC term evaluation                    ... done (   0.5 sec)
  promolecular density results
     # of electrons  =    122.000473267
     EX              =   -100.279083488
     EC              =     -4.095657046
     EX+EC           =   -104.374740534
Transforming the Hamiltonian                       ... done (   0.0 sec)
Diagonalizing the Hamiltonian                      ... done (   0.0 sec)
Back transforming the eigenvectors                 ... done (   0.0 sec)
Now organizing SCF variables                       ... done
                      ------------------
                      INITIAL GUESS DONE (   1.6 sec)
                      ------------------
             **** ENERGY FILE WAS UPDATED (sp.en.tmp) ****
Finished Guess after   1.9 sec
Maximum memory used throughout the entire GUESS-calculation: 29.8 MB

-------------------------------------------------------------------------------------------
                                      ORCA LEAN-SCF
                              memory conserving SCF solver
-------------------------------------------------------------------------------------------

----------------------------------------D-I-I-S--------------------------------------------
Iteration    Energy (Eh)           Delta-E    RMSDP     MaxDP     DIISErr   Damp  Time(sec)
-------------------------------------------------------------------------------------------
               ***  Starting incremental Fock matrix formation  ***
    1    -765.7422017265898830     0.00e+00  3.28e-03  1.18e-01  2.45e-01  0.700   2.4
    2    -765.9114967545922354    -1.69e-01  2.14e-03  6.95e-02  7.54e-02  0.700   2.4
                               ***Turning on AO-DIIS***
    3    -765.9694629284088023    -5.80e-02  8.91e-04  1.37e-02  2.63e-02  0.700   2.3
    4    -766.0057563421062241    -3.63e-02  1.50e-03  3.65e-02  1.04e-02  0.000   2.3
    5    -766.0871348995706285    -8.14e-02  3.71e-04  7.15e-03  6.31e-03  0.000   2.2
                              *** Initializing SOSCF ***
---------------------------------------S-O-S-C-F--------------------------------------
Iteration    Energy (Eh)           Delta-E    RMSDP     MaxDP     MaxGrad    Time(sec)
--------------------------------------------------------------------------------------
    6    -766.0878767367635191    -7.42e-04  1.40e-04  2.79e-03  3.11e-03     2.2
               *** Restarting incremental Fock matrix formation ***
    7    -766.0879401485392464    -6.34e-05  1.00e-04  2.83e-03  4.56e-04     2.3
    8    -766.0879190119946998     2.11e-05  4.79e-05  2.13e-03  1.57e-03     2.4
    9    -766.0879475728791022    -2.86e-05  2.80e-05  7.89e-04  1.30e-04     2.1
   10    -766.0879469945173241     5.78e-07  1.26e-05  3.58e-04  2.10e-04     2.1
                 **** Energy Check signals convergence ****

               *****************************************************
               *                     SUCCESS                       *
               *           SCF CONVERGED AFTER  10 CYCLES          *
               *****************************************************

             **** ENERGY FILE WAS UPDATED (sp.en.tmp) ****

----------------
TOTAL SCF ENERGY
----------------

Total Energy       :       -766.08794699451732 Eh          -20846.31284 eV

Components:
Nuclear Repulsion  :       1134.18166799405958 Eh           30862.65221 eV
Electronic Energy  :      -1900.26961498857690 Eh          -51708.96506 eV
One Electron Energy:      -3293.33792757222091 Eh          -89616.28101 eV
Two Electron Energy:       1393.06831258364400 Eh           37907.31596 eV

Virial components:
Potential Energy   :      -1525.92716251165348 Eh          -41522.58906 eV
Kinetic Energy     :        759.83921551713615 Eh           20676.27622 eV
Virial Ratio       :          2.00822375490732

DFT components:
N(Alpha)           :       61.000109489115 electrons
N(Beta)            :       61.000109489115 electrons
N(Total)           :      122.000218978229 electrons
E(X)               :     -101.942202123305 Eh       
E(C)               :       -4.112271730421 Eh       
E(XC)              :     -106.054473853726 Eh       

---------------
SCF CONVERGENCE
---------------

  Last Energy change         ...   -5.7836e-07  Tolerance :   1.0000e-05
  Last MAX-Density change    ...    3.5841e-04  Tolerance :   1.0000e-03
  Last RMS-Density change    ...    1.2624e-05  Tolerance :   1.0000e-04
  Last DIIS Error            ...    3.1114e-03  Tolerance :   5.0000e-04
  Last Orbital Gradient      ...    2.1003e-04  Tolerance :   1.0000e-04
  Last Orbital Rotation      ...    2.3636e-04  Tolerance :   1.0000e-04


----------------
ORBITAL ENERGIES
----------------

  NO   OCC          E(Eh)            E(eV) 
   0   2.0000     -18.799892      -511.5711 
   1   2.0000     -18.790144      -511.3058 
   2   2.0000     -18.737576      -509.8754 
   3   2.0000     -10.012374      -272.4505 
   4   2.0000      -9.953341      -270.8442 
   5   2.0000      -9.943485      -270.5760 
   6   2.0000      -9.911691      -269.7108 
   7   2.0000      -9.903406      -269.4854 
   8   2.0000      -9.900104      -269.3955 
   9   2.0000      -9.897572      -269.3266 
  10   2.0000      -9.897101      -269.3138 
  11   2.0000      -9.896732      -269.3038 
  12   2.0000      -9.891417      -269.1591 
  13   2.0000      -9.889325      -269.1022 
  14   2.0000      -9.888391      -269.0768 
  15   2.0000      -9.884938      -268.9828 
  16   2.0000      -9.880299      -268.8566 
  17   2.0000      -1.008833       -27.4517 
  18   2.0000      -0.969786       -26.3892 
  19   2.0000      -0.911847       -24.8126 
  20   2.0000      -0.795165       -21.6375 
  21   2.0000      -0.757054       -20.6005 
  22   2.0000      -0.717357       -19.5203 
  23   2.0000      -0.697901       -18.9908 
  24   2.0000      -0.664226       -18.0745 
  25   2.0000      -0.657217       -17.8838 
  26   2.0000      -0.619686       -16.8625 
  27   2.0000      -0.610615       -16.6157 
  28   2.0000      -0.567236       -15.4353 
  29   2.0000      -0.550414       -14.9775 
  30   2.0000      -0.539537       -14.6816 
  31   2.0000      -0.517952       -14.0942 
  32   2.0000      -0.484706       -13.1895 
  33   2.0000      -0.465993       -12.6803 
  34   2.0000      -0.460168       -12.5218 
  35   2.0000      -0.434778       -11.8309 
  36   2.0000      -0.423539       -11.5251 
  37   2.0000      -0.418047       -11.3756 
  38   2.0000      -0.414624       -11.2825 
  39   2.0000      -0.409978       -11.1561 
  40   2.0000      -0.395370       -10.7586 
  41   2.0000      -0.393256       -10.7010 
  42   2.0000      -0.378426       -10.2975 
  43   2.0000      -0.371241       -10.1020 
  44   2.0000      -0.361630        -9.8405 
  45   2.0000      -0.357062        -9.7162 
  46   2.0000      -0.351544        -9.5660 
  47   2.0000      -0.343510        -9.3474 
  48   2.0000      -0.343000        -9.3335 
  49   2.0000      -0.326452        -8.8832 
  50   2.0000      -0.313683        -8.5357 
  51   2.0000      -0.311453        -8.4751 
  52   2.0000      -0.298861        -8.1324 
  53   2.0000      -0.292628        -7.9628 
  54   2.0000      -0.280233        -7.6255 
  55   2.0000      -0.273642        -7.4462 
  56   2.0000      -0.270107        -7.3500 
  57   2.0000      -0.248559        -6.7636 
  58   2.0000      -0.221719        -6.0333 
  59   2.0000      -0.212592        -5.7849 
  60   2.0000      -0.181083        -4.9275 
  61   0.0000      -0.067882        -1.8472 
  62   0.0000      -0.036565        -0.9950 
  63   0.0000      -0.015305        -0.4165 
  64   0.0000      -0.000879        -0.0239 
  65   0.0000       0.027249         0.7415 
  66   0.0000       0.040985         1.1153 
  67   0.0000       0.052552         1.4300 
  68   0.0000       0.059457         1.6179 
  69   0.0000       0.064526         1.7558 
  70   0.0000       0.066897         1.8204 
  71   0.0000       0.082724         2.2510 
*Only the first 10 virtual orbitals were printed.

                    ********************************
                    * MULLIKEN POPULATION ANALYSIS *
                    ********************************

-----------------------
MULLIKEN ATOMIC CHARGES
-----------------------
   0 C :   -0.220245
   1 C :   -0.120788
   2 H :    0.074919
   3 C :    0.103974
   4 C :   -0.101347
   5 C :   -0.120687
   6 C :    0.171945
   7 C :   -0.224506
   8 C :    0.298523
   9 C :   -0.173378
  10 C :   -0.135599
  11 C :    0.177984
  12 C :   -0.212958
  13 O :   -0.270127
  14 C :   -0.115458
  15 C :    0.109216
  16 O :   -0.190971
  17 O :   -0.282462
  18 H :    0.108618
  19 H :    0.104809
  20 H :    0.121977
  21 H :    0.062780
  22 H :    0.036728
  23 H :    0.030831
  24 H :    0.039049
  25 H :    0.038122
  26 H :    0.023772
  27 H :    0.111752
  28 H :    0.111774
  29 H :    0.127206
  30 H :    0.314543
Sum of atomic charges:    0.0000000

--------------------------------
MULLIKEN REDUCED ORBITAL CHARGES
--------------------------------
  0 C s       :     3.076231  s :     3.076231
      pz      :     0.993765  p :     3.115382
      px      :     1.035264
      py      :     1.086353
      dz2     :     0.007049  d :     0.028631
      dxz     :     0.006504
      dyz     :     0.003921
      dx2y2   :     0.007760
      dxy     :     0.003397

  1 C s       :     3.069725  s :     3.069725
      pz      :     1.000836  p :     3.010179
      px      :     1.016533
      py      :     0.992809
      dz2     :     0.008851  d :     0.040884
      dxz     :     0.010610
      dyz     :     0.006351
      dx2y2   :     0.010166
      dxy     :     0.004906

  2 H s       :     0.925081  s :     0.925081

  3 C s       :     2.979286  s :     2.979286
      pz      :     0.988951  p :     2.875391
      px      :     0.932157
      py      :     0.954282
      dz2     :     0.002838  d :     0.041349
      dxz     :     0.006127
      dyz     :     0.006588
      dx2y2   :     0.013155
      dxy     :     0.012641

  4 C s       :     3.259525  s :     3.259525
      pz      :     0.988823  p :     2.807240
      px      :     0.870345
      py      :     0.948071
      dz2     :     0.003079  d :     0.034582
      dxz     :     0.004354
      dyz     :     0.004610
      dx2y2   :     0.009136
      dxy     :     0.013402

  5 C s       :     3.287746  s :     3.287746
      pz      :     1.004847  p :     2.798334
      px      :     0.970699
      py      :     0.822789
      dz2     :     0.003217  d :     0.034607
      dxz     :     0.006619
      dyz     :     0.001978
      dx2y2   :     0.012412
      dxy     :     0.010381

  6 C s       :     3.015183  s :     3.015183
      pz      :     0.965529  p :     2.770931
      px      :     0.826584
      py      :     0.978819
      dz2     :     0.002920  d :     0.041941
      dxz     :     0.007733
      dyz     :     0.005798
      dx2y2   :     0.012963
      dxy     :     0.012526

  7 C s       :     3.409705  s :     3.409705
      pz      :     1.052718  p :     2.783039
      px      :     0.959554
      py      :     0.770766
      dz2     :     0.003377  d :     0.031762
      dxz     :     0.006053
      dyz     :     0.002352
      dx2y2   :     0.009936
      dxy     :     0.010045

  8 C s       :     2.884919  s :     2.884919
      pz      :     0.986919  p :     2.744809
      px      :     0.814047
      py      :     0.943843
      dz2     :     0.005109  d :     0.071748
      dxz     :     0.015444
      dyz     :     0.008199
      dx2y2   :     0.021186
      dxy     :     0.021810

  9 C s       :     3.280373  s :     3.280373
      pz      :     1.058626  p :     2.860003
      px      :     0.882542
      py      :     0.918835
      dz2     :     0.003243  d :     0.033003
      dxz     :     0.004226
      dyz     :     0.004447
      dx2y2   :     0.008660
      dxy     :     0.012427

 10 C s       :     3.288086  s :     3.288086
      pz      :     0.995181  p :     2.812267
      px      :     0.975537
      py      :     0.841549
      dz2     :     0.003272  d :     0.035246
      dxz     :     0.007388
      dyz     :     0.001940
      dx2y2   :     0.012651
      dxy     :     0.009996

 11 C s       :     3.012116  s :     3.012116
      pz      :     0.983675  p :     2.769106
      px      :     0.816161
      py      :     0.969270
      dz2     :     0.002909  d :     0.040794
      dxz     :     0.006881
      dyz     :     0.005715
      dx2y2   :     0.012687
      dxy     :     0.012603

 12 C s       :     3.380373  s :     3.380373
      pz      :     1.012176  p :     2.797988
      px      :     0.999962
      py      :     0.785850
      dz2     :     0.003316  d :     0.034597
      dxz     :     0.006693
      dyz     :     0.002256
      dx2y2   :     0.012955
      dxy     :     0.009376

 13 O s       :     3.738698  s :     3.738698
      pz      :     1.764818  p :     4.514928
      px      :     1.173824
      py      :     1.576287
      dz2     :     0.002246  d :     0.016500
      dxz     :     0.002685
      dyz     :     0.001919
      dx2y2   :     0.003405
      dxy     :     0.006245

 14 C s       :     3.129497  s :     3.129497
      pz      :     1.079443  p :     2.931508
      px      :     0.892308
      py      :     0.959757
      dz2     :     0.008438  d :     0.054452
      dxz     :     0.005850
      dyz     :     0.014114
      dx2y2   :     0.009453
      dxy     :     0.016596

 15 C s       :     3.034742  s :     3.034742
      pz      :     0.913140  p :     2.724770
      px      :     0.889395
      py      :     0.922236
      dz2     :     0.021909  d :     0.131271
      dxz     :     0.017191
      dyz     :     0.046573
      dx2y2   :     0.023115
      dxy     :     0.022483

 16 O s       :     3.735701  s :     3.735701
      pz      :     1.705816  p :     4.437713
      px      :     1.405414
      py      :     1.326484
      dz2     :     0.002101  d :     0.017557
      dxz     :     0.000816
      dyz     :     0.003327
      dx2y2   :     0.005575
      dxy     :     0.005738

 17 O s       :     3.722726  s :     3.722726
      pz      :     1.235017  p :     4.544040
      px      :     1.683761
      py      :     1.625262
      dz2     :     0.001686  d :     0.015696
      dxz     :     0.003126
      dyz     :     0.006144
      dx2y2   :     0.002016
      dxy     :     0.002725

 18 H s       :     0.891382  s :     0.891382

 19 H s       :     0.895191  s :     0.895191

 20 H s       :     0.878023  s :     0.878023

 21 H s       :     0.937220  s :     0.937220

 22 H s       :     0.963272  s :     0.963272

 23 H s       :     0.969169  s :     0.969169

 24 H s       :     0.960951  s :     0.960951

 25 H s       :     0.961878  s :     0.961878

 26 H s       :     0.976228  s :     0.976228

 27 H s       :     0.888248  s :     0.888248

 28 H s       :     0.888226  s :     0.888226

 29 H s       :     0.872794  s :     0.872794

 30 H s       :     0.685457  s :     0.685457


------------------------
MULLIKEN OVERLAP CHARGES
------------------------
B(  0-C ,  1-C ) :   0.7279 B(  0-C ,  3-C ) :  -0.0966 B(  0-C , 15-C ) :  -0.0660 
B(  0-C , 18-H ) :   0.7415 B(  0-C , 19-H ) :   0.7333 B(  0-C , 20-H ) :   0.7342 
B(  1-C ,  2-H ) :   0.5634 B(  1-C ,  3-C ) :   0.7879 B(  1-C ,  4-C ) :  -0.2507 
B(  1-C , 12-C ) :  -0.2025 B(  1-C , 15-C ) :   0.3181 B(  1-C , 16-O ) :  -0.2350 
B(  1-C , 17-O ) :  -0.2665 B(  1-C , 18-H ) :  -0.0538 B(  2-H ,  3-C ) :  -0.0581 
B(  3-C ,  4-C ) :   0.0732 B(  3-C ,  5-C ) :   0.3437 B(  3-C ,  6-C ) :  -0.3774 
B(  3-C , 11-C ) :   0.3421 B(  3-C , 12-C ) :   0.3793 B(  3-C , 15-C ) :  -0.0750 
B(  3-C , 21-H ) :  -0.1744 B(  3-C , 26-H ) :  -0.1787 B(  4-C ,  5-C ) :   0.3185 
B(  4-C ,  6-C ) :   0.3446 B(  4-C , 11-C ) :  -0.3182 B(  4-C , 12-C ) :   0.2004 
B(  4-C , 21-H ) :   0.8604 B(  4-C , 22-H ) :  -0.1907 B(  5-C ,  6-C ) :   0.3807 
B(  5-C ,  7-C ) :  -0.3495 B(  5-C , 10-C ) :   0.0595 B(  5-C , 11-C ) :   0.0971 
B(  5-C , 12-C ) :  -0.3337 B(  5-C , 21-H ) :  -0.1552 B(  5-C , 22-H ) :   0.8920 
B(  6-C ,  7-C ) :   0.3238 B(  6-C ,  8-C ) :   0.4374 B(  6-C ,  9-C ) :  -0.3499 
B(  6-C , 10-C ) :   0.1125 B(  6-C , 11-C ) :  -0.1806 B(  6-C , 12-C ) :   0.0936 
B(  6-C , 22-H ) :  -0.1727 B(  6-C , 23-H ) :  -0.1717 B(  7-C ,  8-C ) :   0.2410 
B(  7-C ,  9-C ) :   0.2060 B(  7-C , 10-C ) :  -0.3344 B(  7-C , 11-C ) :   0.1331 
B(  7-C , 13-O ) :  -0.1814 B(  7-C , 23-H ) :   0.8467 B(  8-C ,  9-C ) :  -0.0854 
B(  8-C , 10-C ) :   0.4505 B(  8-C , 11-C ) :  -0.3996 B(  8-C , 13-O ) :   0.8373 
B(  8-C , 14-C ) :  -0.1284 B(  8-C , 23-H ) :  -0.1750 B(  8-C , 24-H ) :  -0.2130 
B(  9-C , 10-C ) :   0.1975 B(  9-C , 11-C ) :   0.3621 B(  9-C , 13-O ) :  -0.1749 
B(  9-C , 23-H ) :   0.0507 B(  9-C , 24-H ) :   0.8845 B(  9-C , 25-H ) :  -0.1838 
B( 10-C , 11-C ) :   0.3245 B( 10-C , 12-C ) :  -0.3256 B( 10-C , 24-H ) :  -0.1603 
B( 10-C , 25-H ) :   0.8804 B( 11-C , 12-C ) :   0.3832 B( 11-C , 25-H ) :  -0.1656 
B( 11-C , 26-H ) :  -0.1582 B( 12-C , 26-H ) :   0.8600 B( 13-O , 14-C ) :   0.6277 
B( 13-O , 27-H ) :  -0.0622 B( 13-O , 28-H ) :  -0.0622 B( 13-O , 29-H ) :  -0.0515 
B( 14-C , 27-H ) :   0.7529 B( 14-C , 28-H ) :   0.7530 B( 14-C , 29-H ) :   0.7685 
B( 15-C , 16-O ) :   1.3770 B( 15-C , 17-O ) :   0.8779 B( 16-O , 17-O ) :  -0.1794 
B( 17-O , 30-H ) :   0.4851 B( 27-H , 28-H ) :  -0.0963 


                     *******************************
                     * LOEWDIN POPULATION ANALYSIS *
                     *******************************

----------------------
LOEWDIN ATOMIC CHARGES
----------------------
   0 C :   -0.318421
   1 C :   -0.153706
   2 H :    0.132090
   3 C :   -0.037096
   4 C :   -0.117530
   5 C :   -0.110657
   6 C :   -0.020562
   7 C :   -0.138546
   8 C :    0.029387
   9 C :   -0.165002
  10 C :   -0.103991
  11 C :   -0.035938
  12 C :   -0.109495
  13 O :   -0.093011
  14 C :   -0.202591
  15 C :    0.037357
  16 O :   -0.170195
  17 O :   -0.199323
  18 H :    0.125234
  19 H :    0.123195
  20 H :    0.128404
  21 H :    0.130548
  22 H :    0.124739
  23 H :    0.130190
  24 H :    0.127374
  25 H :    0.124440
  26 H :    0.121557
  27 H :    0.109695
  28 H :    0.109684
  29 H :    0.123505
  30 H :    0.298668

-------------------------------
LOEWDIN REDUCED ORBITAL CHARGES
-------------------------------
  0 C s       :     2.946227  s :     2.946227
      pz      :     1.057879  p :     3.301914
      px      :     1.108261
      py      :     1.135774
      dz2     :     0.018108  d :     0.070281
      dxz     :     0.016603
      dyz     :     0.008760
      dx2y2   :     0.018581
      dxy     :     0.008229

  1 C s       :     2.878747  s :     2.878747
      pz      :     1.050720  p :     3.172400
      px      :     1.045656
      py      :     1.076023
      dz2     :     0.023218  d :     0.102560
      dxz     :     0.026330
      dyz     :     0.015437
      dx2y2   :     0.025778
      dxy     :     0.011797

  2 H s       :     0.867910  s :     0.867910

  3 C s       :     2.848760  s :     2.848760
      pz      :     0.971911  p :     3.077893
      px      :     1.020488
      py      :     1.085495
      dz2     :     0.007454  d :     0.110443
      dxz     :     0.012178
      dyz     :     0.014453
      dx2y2   :     0.039150
      dxy     :     0.037208

  4 C s       :     2.890274  s :     2.890274
      pz      :     0.985709  p :     3.135645
      px      :     1.084004
      py      :     1.065932
      dz2     :     0.007051  d :     0.091612
      dxz     :     0.009035
      dyz     :     0.009666
      dx2y2   :     0.028275
      dxy     :     0.037584

  5 C s       :     2.890197  s :     2.890197
      pz      :     0.992792  p :     3.129139
      px      :     1.078604
      py      :     1.057743
      dz2     :     0.007196  d :     0.091322
      dxz     :     0.014276
      dyz     :     0.003428
      dx2y2   :     0.035185
      dxy     :     0.031237

  6 C s       :     2.834909  s :     2.834909
      pz      :     0.957672  p :     3.071827
      px      :     1.051807
      py      :     1.062348
      dz2     :     0.007659  d :     0.113826
      dxz     :     0.016117
      dyz     :     0.012006
      dx2y2   :     0.039178
      dxy     :     0.038866

  7 C s       :     2.893686  s :     2.893686
      pz      :     1.041191  p :     3.159219
      px      :     1.057740
      py      :     1.060287
      dz2     :     0.007450  d :     0.085642
      dxz     :     0.013035
      dyz     :     0.004045
      dx2y2   :     0.030229
      dxy     :     0.030882

  8 C s       :     2.837577  s :     2.837577
      pz      :     0.976423  p :     2.961330
      px      :     0.899357
      py      :     1.085550
      dz2     :     0.011693  d :     0.171706
      dxz     :     0.030715
      dyz     :     0.016943
      dx2y2   :     0.054308
      dxy     :     0.058047

  9 C s       :     2.890891  s :     2.890891
      pz      :     1.044458  p :     3.185052
      px      :     1.083772
      py      :     1.056822
      dz2     :     0.007444  d :     0.089059
      dxz     :     0.008900
      dyz     :     0.009095
      dx2y2   :     0.027868
      dxy     :     0.035751

 10 C s       :     2.888974  s :     2.888974
      pz      :     0.985923  p :     3.122254
      px      :     1.076203
      py      :     1.060128
      dz2     :     0.007287  d :     0.092763
      dxz     :     0.016187
      dyz     :     0.003383
      dx2y2   :     0.035767
      dxy     :     0.030140

 11 C s       :     2.834360  s :     2.834360
      pz      :     0.977849  p :     3.089489
      px      :     1.051075
      py      :     1.060565
      dz2     :     0.007722  d :     0.112089
      dxz     :     0.014257
      dyz     :     0.011846
      dx2y2   :     0.038916
      dxy     :     0.039347

 12 C s       :     2.891464  s :     2.891464
      pz      :     1.004078  p :     3.126467
      px      :     1.061367
      py      :     1.061022
      dz2     :     0.007299  d :     0.091564
      dxz     :     0.014544
      dyz     :     0.004090
      dx2y2   :     0.036853
      dxy     :     0.028778

 13 O s       :     3.444399  s :     3.444399
      pz      :     1.756570  p :     4.616896
      px      :     1.247213
      py      :     1.613113
      dz2     :     0.003972  d :     0.031717
      dxz     :     0.005031
      dyz     :     0.002254
      dx2y2   :     0.007377
      dxy     :     0.013084

 14 C s       :     2.961668  s :     2.961668
      pz      :     1.137698  p :     3.121217
      px      :     0.950339
      py      :     1.033181
      dz2     :     0.018933  d :     0.119705
      dxz     :     0.010470
      dyz     :     0.034388
      dx2y2   :     0.018610
      dxy     :     0.037304

 15 C s       :     2.848481  s :     2.848481
      pz      :     0.948383  p :     2.817032
      px      :     0.878607
      py      :     0.990042
      dz2     :     0.049235  d :     0.297130
      dxz     :     0.037598
      dyz     :     0.110733
      dx2y2   :     0.049719
      dxy     :     0.049845

 16 O s       :     3.550317  s :     3.550317
      pz      :     1.710448  p :     4.588759
      px      :     1.430423
      py      :     1.447888
      dz2     :     0.004472  d :     0.031119
      dxz     :     0.001250
      dyz     :     0.005358
      dx2y2   :     0.009347
      dxy     :     0.010693

 17 O s       :     3.504205  s :     3.504205
      pz      :     1.309150  p :     4.665519
      px      :     1.685810
      py      :     1.670559
      dz2     :     0.004916  d :     0.029599
      dxz     :     0.005763
      dyz     :     0.012602
      dx2y2   :     0.002802
      dxy     :     0.003517

 18 H s       :     0.874766  s :     0.874766

 19 H s       :     0.876805  s :     0.876805

 20 H s       :     0.871596  s :     0.871596

 21 H s       :     0.869452  s :     0.869452

 22 H s       :     0.875261  s :     0.875261

 23 H s       :     0.869810  s :     0.869810

 24 H s       :     0.872626  s :     0.872626

 25 H s       :     0.875560  s :     0.875560

 26 H s       :     0.878443  s :     0.878443

 27 H s       :     0.890305  s :     0.890305

 28 H s       :     0.890316  s :     0.890316

 29 H s       :     0.876495  s :     0.876495

 30 H s       :     0.701332  s :     0.701332


---------------------------------
LOEWDIN BOND ORDERS (THRESH 0.050000)
---------------------------------
B(  0-C ,  1-C ) :   1.0756 B(  0-C ,  3-C ) :   0.0559 B(  0-C , 15-C ) :   0.0581 
B(  0-C , 18-H ) :   0.9331 B(  0-C , 19-H ) :   0.9344 B(  0-C , 20-H ) :   0.9304 
B(  1-C ,  2-H ) :   0.8583 B(  1-C ,  3-C ) :   1.0016 B(  1-C ,  4-C ) :   0.0625 
B(  1-C , 12-C ) :   0.0798 B(  1-C , 15-C ) :   0.9987 B(  1-C , 16-O ) :   0.0908 
B(  1-C , 17-O ) :   0.0715 B(  3-C ,  4-C ) :   1.3047 B(  3-C ,  5-C ) :   0.0864 
B(  3-C ,  6-C ) :   0.0604 B(  3-C , 11-C ) :   0.0882 B(  3-C , 12-C ) :   1.5430 
B(  3-C , 15-C ) :   0.0748 B(  4-C ,  5-C ) :   1.6295 B(  4-C ,  6-C ) :   0.0869 
B(  4-C , 11-C ) :   0.0648 B(  4-C , 12-C ) :   0.0821 B(  4-C , 21-H ) :   0.8736 
B(  5-C ,  6-C ) :   1.2962 B(  5-C ,  7-C ) :   0.0825 B(  5-C , 11-C ) :   0.0740 
B(  5-C , 12-C ) :   0.1179 B(  5-C , 22-H ) :   0.8814 B(  6-C ,  7-C ) :   1.3470 
B(  6-C ,  8-C ) :   0.0895 B(  6-C ,  9-C ) :   0.0637 B(  6-C , 10-C ) :   0.0752 
B(  6-C , 11-C ) :   1.2250 B(  6-C , 12-C ) :   0.0733 B(  7-C ,  8-C ) :   1.4819 
B(  7-C ,  9-C ) :   0.0859 B(  7-C , 10-C ) :   0.1216 B(  7-C , 11-C ) :   0.0755 
B(  7-C , 13-O ) :   0.1137 B(  7-C , 23-H ) :   0.8755 B(  8-C ,  9-C ) :   1.3146 
B(  8-C , 10-C ) :   0.0902 B(  8-C , 11-C ) :   0.0601 B(  8-C , 13-O ) :   1.2766 
B(  8-C , 14-C ) :   0.0675 B(  9-C , 10-C ) :   1.5978 B(  9-C , 11-C ) :   0.0873 
B(  9-C , 13-O ) :   0.0889 B(  9-C , 24-H ) :   0.8740 B( 10-C , 11-C ) :   1.3222 
B( 10-C , 12-C ) :   0.0826 B( 10-C , 25-H ) :   0.8805 B( 11-C , 12-C ) :   1.3124 
B( 12-C , 26-H ) :   0.8762 B( 13-O , 14-C ) :   1.1572 B( 14-C , 27-H ) :   0.9415 
B( 14-C , 28-H ) :   0.9415 B( 14-C , 29-H ) :   0.9491 B( 15-C , 16-O ) :   2.2117 
B( 15-C , 17-O ) :   1.4645 B( 16-O , 17-O ) :   0.2130 B( 17-O , 30-H ) :   0.8480 


------------------------------------------
LOEWDIN REDUCED ORBITAL POPULATIONS PER MO
-------------------------------------------
THRESHOLD FOR PRINTING IS 0.1%%
                      0         1         2         3         4         5   
                 -18.79989 -18.79014 -18.73758 -10.01237  -9.95334  -9.94348
                   2.00000   2.00000   2.00000   2.00000   2.00000   2.00000
                  --------  --------  --------  --------  --------  --------
 8 C  s               0.0       0.0       0.0       0.0      99.5       0.0
 9 C  py              0.0       0.0       0.0       0.0       0.1       0.0
13 O  s               0.0      99.9       0.0       0.0       0.0       0.0
13 O  px              0.0       0.0       0.0       0.0       0.1       0.1
14 C  s               0.0       0.0       0.0       0.0       0.0      99.7
15 C  s               0.0       0.0       0.0      99.3       0.0       0.0
16 O  s               0.0       0.0      99.9       0.0       0.0       0.0
16 O  py              0.0       0.0       0.0       0.2       0.0       0.0
17 O  s              99.9       0.0       0.0       0.0       0.0       0.0
17 O  pz              0.0       0.0       0.0       0.1       0.0       0.0

                      6         7         8         9        10        11   
                  -9.91169  -9.90341  -9.90010  -9.89757  -9.89710  -9.89673
                   2.00000   2.00000   2.00000   2.00000   2.00000   2.00000
                  --------  --------  --------  --------  --------  --------
 1 C  s              99.6       0.0       0.0       0.0       0.0       0.0
 3 C  s               0.0      99.5       0.0       0.0       0.0       0.0
 3 C  px              0.1       0.0       0.0       0.0       0.0       0.0
 4 C  py              0.0       0.1       0.0       0.0       0.0       0.0
 6 C  s               0.0       0.0      99.4       0.1       0.0       0.0
 6 C  py              0.0       0.0       0.0       0.1       0.0       0.0
 7 C  px              0.0       0.0       0.1       0.0       0.0       0.0
 9 C  s               0.0       0.0       0.0       0.3      27.5      71.8
 9 C  px              0.0       0.0       0.0       0.0       0.1       0.0
10 C  s               0.0       0.0       0.0       2.5      69.4      27.7
11 C  s               0.0       0.0       0.1      96.7       2.6       0.2
11 C  py              0.0       0.0       0.1       0.0       0.0       0.0
12 C  px              0.0       0.1       0.0       0.1       0.0       0.0

                     12        13        14        15        16        17   
                  -9.89142  -9.88933  -9.88839  -9.88494  -9.88030  -1.00883
                   2.00000   2.00000   2.00000   2.00000   2.00000   2.00000
                  --------  --------  --------  --------  --------  --------
 0 C  s               0.0       0.0       0.0       0.0      99.7       0.1
 0 C  pz              0.0       0.0       0.0       0.0       0.0       0.1
 1 C  s               0.0       0.0       0.0       0.0       0.0       1.0
 1 C  pz              0.0       0.0       0.0       0.0       0.1       1.3
 1 C  px              0.0       0.0       0.0       0.0       0.0       0.4
 1 C  py              0.0       0.0       0.0       0.0       0.0       0.2
 2 H  s               0.0       0.0       0.0       0.0       0.0       0.2
 3 C  px              0.1       0.0       0.0       0.0       0.0       0.2
 3 C  py              0.1       0.0       0.1       0.0       0.0       0.0
 4 C  s               0.0       3.5      96.0       0.0       0.0       0.0
 4 C  px              0.0       0.1       0.0       0.0       0.0       0.0
 5 C  s               0.1      95.9       3.6       0.0       0.0       0.0
 5 C  px              0.0       0.0       0.1       0.0       0.0       0.0
 6 C  px              0.0       0.1       0.0       0.1       0.0       0.0
 7 C  s               0.0       0.0       0.0      99.6       0.0       0.0
11 C  px              0.1       0.0       0.0       0.0       0.0       0.0
12 C  s              99.5       0.1       0.0       0.0       0.0       0.0
15 C  s               0.0       0.0       0.0       0.0       0.0      20.0
15 C  pz              0.0       0.0       0.0       0.0       0.0       5.0
15 C  px              0.0       0.0       0.0       0.0       0.0       0.5
15 C  dyz             0.0       0.0       0.0       0.0       0.0       0.5
15 C  dx2y2           0.0       0.0       0.0       0.0       0.0       0.3
15 C  dxy             0.0       0.0       0.0       0.0       0.0       0.2
16 O  s               0.0       0.0       0.0       0.0       0.0      12.2
16 O  px              0.0       0.0       0.0       0.0       0.0       0.4
16 O  py              0.0       0.0       0.0       0.0       0.0       2.5
17 O  s               0.0       0.0       0.0       0.0       0.0      42.8
17 O  pz              0.0       0.0       0.0       0.0       0.0       0.5
17 O  px              0.0       0.0       0.0       0.0       0.0       0.3
17 O  py              0.0       0.0       0.0       0.0       0.0       2.8
30 H  s               0.0       0.0       0.0       0.0       0.0       7.7

                     18        19        20        21        22        23   
                  -0.96979  -0.91185  -0.79516  -0.75705  -0.71736  -0.69790
                   2.00000   2.00000   2.00000   2.00000   2.00000   2.00000
                  --------  --------  --------  --------  --------  --------
 0 C  s               0.0       0.1       0.3       3.0       7.4       0.4
 0 C  pz              0.0       0.1       0.1       0.9       1.2       0.0
 0 C  px              0.0       0.0       0.1       0.3       0.2       0.0
 0 C  py              0.0       0.0       0.0       0.1       0.1       0.0
 1 C  s               0.0       0.2       1.8      10.4      14.2       0.4
 1 C  pz              0.0       0.0       0.0       0.0       0.1       0.0
 1 C  px              0.0       0.1       0.6       0.8       0.2       0.1
 1 C  py              0.0       0.4       0.1       0.3       0.1       0.1
 2 H  s               0.0       0.0       0.3       1.9       2.8       0.0
 3 C  s               0.0       0.0       7.3      13.2       0.5       0.1
 3 C  px              0.0       0.0       0.7       0.3       5.5       0.9
 3 C  py              0.0       0.0       0.0       0.0       1.0       1.7
 3 C  dz2             0.0       0.0       0.1       0.2       0.0       0.0
 4 C  s               0.0       0.0       5.6       6.1       2.5       1.9
 4 C  px              0.0       0.0       0.7       0.0       2.6       0.5
 4 C  py              0.0       0.0       0.8       1.6       0.3       0.4
 5 C  s               0.0       0.0       6.7       0.9       8.0       5.2
 5 C  px              0.0       0.0       0.0       1.7       0.0       0.1
 5 C  py              0.0       0.0       1.8       0.1       0.7       0.0
 6 C  s               0.1       0.0      13.3       1.0       4.1       2.9
 6 C  px              0.1       0.0       0.1       2.7       2.6       0.7
 6 C  py              0.0       0.0       0.6       0.2       0.3       5.6
 6 C  dz2             0.0       0.0       0.2       0.0       0.0       0.0
 6 C  dx2y2           0.0       0.0       0.0       0.0       0.0       0.2
 7 C  s               0.8       0.0       5.7       4.6       0.2      10.2
 7 C  px              1.0       0.0       0.8       0.1       2.1       0.0
 7 C  py              0.3       0.0       1.0       1.1       0.5       0.1
 7 C  dz2             0.0       0.0       0.1       0.1       0.0       0.1
 8 C  s               9.5       0.0       2.9       5.6       4.0       4.2
 8 C  px              7.7       0.0       2.2       2.3       0.4       0.6
 8 C  py              0.8       0.0       0.1       0.3       0.8       3.6
 8 C  dz2             0.3       0.0       0.0       0.1       0.0       0.0
 8 C  dx2y2           0.4       0.0       0.0       0.0       0.0       0.0
 8 C  dxy             0.2       0.0       0.0       0.0       0.0       0.0
 9 C  s               0.7       0.0       4.0       6.9       6.2       1.6
 9 C  px              0.2       0.0       1.0       0.6       0.1       1.7
 9 C  py              0.9       0.0       0.3       0.6       0.3       1.9
 9 C  dx2y2           0.0       0.0       0.0       0.0       0.0       0.1
10 C  s               0.1       0.0       6.5       4.6       1.9      10.8
10 C  px              0.1       0.0       0.1       0.8       1.7       0.5
10 C  py              0.0       0.0       1.6       0.6       0.0       0.1
11 C  s               0.0       0.0      14.2       0.6       0.8       8.1
11 C  px              0.0       0.0       0.0       3.9       1.0       0.0
11 C  py              0.0       0.0       0.5       0.0       1.6       4.8
11 C  dz2             0.0       0.0       0.2       0.0       0.0       0.1
12 C  s               0.0       0.0       8.1       3.1       0.3       6.3
12 C  px              0.0       0.0       0.4       2.2       0.7       1.4
12 C  py              0.0       0.0       1.4       0.9       0.2       0.0
13 O  s              54.9       0.0       0.4       0.6       0.3       0.0
13 O  px              0.2       0.0       0.5       1.5       1.9       5.2
13 O  py              2.7       0.0       0.0       0.0       0.0       0.4
14 C  s               7.6       0.0       0.3       0.9       1.3       4.3
14 C  px              4.9       0.0       0.0       0.1       0.0       0.0
14 C  py              2.5       0.0       0.1       0.1       0.1       0.1
14 C  dz2             0.2       0.0       0.0       0.0       0.0       0.0
14 C  dxy             0.5       0.0       0.0       0.0       0.0       0.0
15 C  s               0.0       4.2       0.1       0.6       1.5       0.1
15 C  pz              0.0       3.7       0.2       1.6       2.7       0.1
15 C  px              0.0       2.2       0.3       1.4       1.5       0.1
15 C  py              0.0      19.6       0.1       0.9       1.8       0.1
15 C  dz2             0.0       0.9       0.0       0.0       0.0       0.0
15 C  dyz             0.0       0.2       0.0       0.0       0.0       0.0
15 C  dx2y2           0.0       0.2       0.0       0.0       0.0       0.0
15 C  dxy             0.0       0.7       0.0       0.0       0.0       0.0
16 O  s               0.0      40.8       0.1       0.6       0.8       0.0
16 O  px              0.0       0.9       0.0       0.0       0.0       0.0
16 O  py              0.0       3.4       0.0       0.0       0.1       0.0
17 O  s               0.0      18.1       0.0       0.1       0.2       0.0
17 O  pz              0.0       0.2       0.0       0.4       1.2       0.1
17 O  px              0.0       0.1       0.0       0.1       0.2       0.0
17 O  py              0.0       0.3       0.0       0.0       0.0       0.0
18 H  s               0.0       0.0       0.1       0.6       1.3       0.1
19 H  s               0.0       0.0       0.0       0.5       1.4       0.1
20 H  s               0.0       0.1       0.1       0.6       1.3       0.1
21 H  s               0.0       0.0       0.7       1.0       0.2       0.4
22 H  s               0.0       0.0       0.9       0.1       1.2       1.2
23 H  s               0.2       0.0       0.7       0.6       0.0       2.2
24 H  s               0.2       0.0       0.5       0.9       1.0       0.4
25 H  s               0.0       0.0       0.9       0.6       0.3       2.4
26 H  s               0.0       0.0       1.1       0.5       0.0       1.4
27 H  s               0.9       0.0       0.0       0.1       0.2       0.8
28 H  s               0.9       0.0       0.0       0.1       0.2       0.8
29 H  s               0.9       0.0       0.1       0.2       0.3       1.0
30 H  s               0.0       3.1       0.0       0.2       0.5       0.0

                     24        25        26        27        28        29   
                  -0.66423  -0.65722  -0.61969  -0.61061  -0.56724  -0.55041
                   2.00000   2.00000   2.00000   2.00000   2.00000   2.00000
                  --------  --------  --------  --------  --------  --------
 0 C  s               5.2       0.2      12.0       9.6       1.1       3.5
 0 C  pz              0.2       0.0       0.1       0.4       0.1       1.1
 0 C  px              0.0       0.0       0.1       0.0       0.2       0.5
 0 C  py              0.0       0.0       0.0       0.0       0.1       0.2
 1 C  s               2.5       0.3       0.0       0.5       0.1       3.0
 1 C  pz              0.3       0.0       4.3       9.2       0.1       0.2
 1 C  px              2.7       0.1       2.3       0.6       1.1       2.8
 1 C  py              0.0       0.2       0.1       0.1       0.8       0.4
 1 C  dz2             0.1       0.0       0.1       0.0       0.0       0.1
 1 C  dxz             0.0       0.0       0.0       0.2       0.0       0.0
 2 H  s               0.5       0.2       0.0       0.3       0.1       1.4
 3 C  s               5.0       0.2       3.7       1.1       1.1       1.4
 3 C  pz              0.1       0.0       0.2       0.3       0.0       0.0
 3 C  px              2.6       0.1       0.0       0.6       2.4       2.2
 3 C  py              0.0       6.3       0.8       0.1       5.7       3.4
 4 C  s               1.6      12.2       0.2       0.0       4.7       3.7
 4 C  px              0.3       0.4       1.0       0.3       4.3       0.1
 4 C  py              1.2       0.3       1.6       0.6       0.2       0.5
 5 C  s               1.3       5.5       2.4       1.1       2.3       0.4
 5 C  px              2.8       4.6       0.2       0.0       2.2       6.5
 5 C  py              0.0       0.1       0.0       0.0       0.1       0.0
 6 C  s               7.0       2.0       0.0       0.1       0.4       3.0
 6 C  px              0.2       1.4       3.8       1.0       4.9       0.0
 6 C  py              0.2       1.6       0.2       0.0       0.6       2.4
 6 C  dxy             0.0       0.1       0.0       0.0       0.0       0.0
 7 C  s               0.6       2.9       5.2       1.5       2.9       0.2
 7 C  px              5.2       0.1       0.0       0.1       0.1       5.0
 7 C  py              0.0       0.0       0.2       0.1       0.1       0.7
 8 C  s               3.7       0.1       0.8       0.5       1.1       2.4
 8 C  px              1.0       0.1       4.5       1.4       1.0       0.9
 8 C  py              0.1       7.7       0.1       0.0       8.4       0.6
 8 C  dx2y2           0.0       0.1       0.1       0.0       0.1       0.0
 8 C  dxy             0.1       0.0       0.2       0.1       0.0       0.1
 9 C  s               0.3      12.7       0.2       0.1       5.0       1.1
 9 C  px              0.4       0.1       0.7       0.4       6.9       0.3
 9 C  py              0.4       0.2       1.0       0.5       0.7       2.7
 9 C  dx2y2           0.0       0.0       0.1       0.0       0.1       0.1
10 C  s               0.2       2.4       2.6       1.2       5.2       0.6
10 C  px              0.1       7.1       0.8       0.2       2.2       2.6
10 C  py              0.1       0.2       0.0       0.0       0.0       0.4
10 C  dxy             0.0       0.1       0.0       0.0       0.0       0.0
11 C  s               0.3       5.1       1.9       0.5       0.2       1.4
11 C  px              2.9       1.7       0.4       0.6       6.6       0.7
11 C  py              1.5       0.2       0.4       0.0       1.7       0.8
11 C  dx2y2           0.1       0.0       0.0       0.0       0.0       0.0
12 C  s               5.5       5.4       1.1       1.0       3.7       0.2
12 C  px              0.9       1.0       3.2       0.7       0.0       4.0
12 C  py              0.3       0.1       0.2       0.1       0.1       0.0
13 O  s               0.1       0.6       2.3       0.9       0.8       1.4
13 O  pz              0.1       0.0       0.0       0.0       0.0       0.0
13 O  px             10.9       0.8       2.7       0.5       0.7       0.7
13 O  py              0.4       0.5       0.5       0.2       1.2       0.1
13 O  dxy             0.1       0.0       0.0       0.0       0.0       0.0
14 C  s              12.3       1.6      10.0       2.9       0.0       2.6
14 C  px              0.2       0.0       0.8       0.3       0.1       1.4
14 C  py              0.1       0.1       0.4       0.2       0.9       1.3
15 C  s               0.6       0.1       0.4       6.3       0.2       0.8
15 C  pz              0.8       0.0       0.0       0.3       0.2       1.4
15 C  px              0.1       0.0       0.4       1.5       0.3       0.1
15 C  py              0.7       0.1       0.2       4.8       0.4       0.9
15 C  dyz             0.0       0.0       0.0       0.0       0.0       0.1
16 O  s               0.2       0.0       0.0       0.9       0.0       0.3
16 O  px              0.0       0.0       0.0       0.1       0.0       0.0
16 O  py              0.0       0.0       0.0       0.4       0.1       0.2
17 O  s               0.0       0.0       0.1       0.9       0.0       0.1
17 O  pz              0.7       0.1       1.7      21.9       2.2      10.8
17 O  px              0.1       0.0       0.3       2.2       0.1       0.5
17 O  py              0.0       0.0       0.0       0.0       0.0       0.2
17 O  dyz             0.0       0.0       0.0       0.2       0.0       0.1
18 H  s               1.0       0.0       3.0       3.1       0.4       1.1
19 H  s               1.3       0.1       3.3       2.4       0.6       1.6
20 H  s               1.0       0.0       3.1       2.6       0.2       1.5
21 H  s               0.2       2.8       0.1       0.0       2.7       1.6
22 H  s               0.4       1.1       0.5       0.3       0.6       0.3
23 H  s               0.1       0.7       0.9       0.3       1.1       0.0
24 H  s               0.0       3.5       0.1       0.0       3.2       0.7
25 H  s               0.0       0.4       0.9       0.4       1.8       0.3
26 H  s               1.0       1.4       0.3       0.2       1.1       0.0
27 H  s               2.6       0.6       3.1       1.0       0.1       1.5
28 H  s               2.6       0.6       3.1       1.0       0.1       1.5
29 H  s               3.4       0.4       3.2       0.9       0.1       1.1
30 H  s               0.2       0.0       0.6       7.4       0.7       3.3

                     30        31        32        33        34        35   
                  -0.53954  -0.51795  -0.48471  -0.46599  -0.46017  -0.43478
                   2.00000   2.00000   2.00000   2.00000   2.00000   2.00000
                  --------  --------  --------  --------  --------  --------
 0 C  s               0.2       3.1       0.0       0.0       0.1       0.2
 0 C  pz              0.1       3.6       0.0       0.3       1.6       0.1
 0 C  px              0.0       0.1       0.0       0.3       1.9       0.2
 0 C  py              0.1       0.3       0.1       2.0       0.1       5.3
 1 C  s               0.0       5.2       0.0       0.2       0.2       0.8
 1 C  pz              0.0       0.7       0.0       1.0       0.8       1.7
 1 C  px              0.0       0.5       0.0       1.8       9.7       0.1
 1 C  py              0.8       0.4       1.0       7.3       0.0      15.1
[...]
14 C  dxy             0.0       0.0       0.0       4.1       0.2       0.0
15 C  s               0.0       0.0       3.9       0.0       0.0       0.1
15 C  pz              0.0       0.0       2.5       0.0       0.0       1.1
15 C  px              0.3       0.0       0.1       0.0       0.0       0.2
15 C  py              0.1       0.0       0.3       0.0       0.0       2.4
15 C  dz2             0.3       0.0       5.3       0.0       0.0       1.3
15 C  dxz             1.8       0.0       3.6       0.0       0.0       2.0
15 C  dyz             0.6       0.0       1.5       0.0       0.0      16.5
15 C  dx2y2           9.7       0.0       0.4       0.0       0.0       0.8
15 C  dxy             8.6       0.0       0.0       0.0       0.0       1.3
16 O  s               0.0       0.0       0.7       0.0       0.0       1.1
16 O  pz              0.1       0.0       0.5       0.0       0.0       0.6
16 O  px              0.8       0.0       0.0       0.0       0.0       0.0
16 O  py              0.2       0.0       0.2       0.0       0.0       0.6
16 O  dz2             0.0       0.0       0.0       0.0       0.0       1.7
16 O  dxz             0.5       0.0       1.9       0.0       0.0       4.2
16 O  dyz             4.4       0.0      17.4       0.0       0.1      17.4
16 O  dx2y2          36.4       0.0       3.3       0.0       0.0       6.7
16 O  dxy            22.1       0.0       0.4       0.0       0.0       0.5
17 O  s               0.0       0.0       2.3       0.0       0.0       1.9
17 O  pz              0.0       0.0       1.3       0.0       0.0       2.6
17 O  px              0.1       0.0       0.0       0.0       0.0       0.1
17 O  py              0.0       0.0       0.7       0.0       0.0       0.5
17 O  dz2             2.0       0.0       0.0       0.0       0.1      12.1
17 O  dxz             6.4       0.0       3.4       0.0       0.0       0.0
17 O  dyz             1.5       0.2      34.7       0.0       0.0      18.8
17 O  dx2y2           0.0       0.1      10.5       0.0       0.0       0.7
17 O  dxy             1.3       0.0       1.2       0.0       0.0       0.7
21 H  s               0.0       0.1       0.0       0.1       0.3       0.0
22 H  s               0.0       0.0       0.0       0.1       0.3       0.0
23 H  s               0.0       0.1       0.0       0.0       0.0       0.0
24 H  s               0.0       0.1       0.0       0.1       0.0       0.0
25 H  s               0.0       0.2       0.0       0.1       0.0       0.0
26 H  s               0.0       0.0       0.0       0.1       0.3       0.0
30 H  s               0.0       0.0       0.8       0.0       0.0       0.2

                    264       265   
                   3.49905   3.53890
                   0.00000   0.00000
                  --------  --------
 1 C  py              0.0       0.1
 1 C  dz2             0.0       0.1
 1 C  dyz             0.0       0.3
 3 C  dx2y2           0.8       0.0
 4 C  dx2y2           0.1       0.0
 4 C  dxy             0.6       0.0
 5 C  s               0.2       0.0
 5 C  px              0.1       0.0
 5 C  dx2y2           0.4       0.0
 5 C  dxy             0.8       0.0
 6 C  px              0.2       0.0
 6 C  dx2y2           0.1       0.0
 6 C  dxy             7.0       0.0
 7 C  s               0.5       0.0
 7 C  dz2             0.1       0.0
 7 C  dxz             0.1       0.0
 7 C  dx2y2           6.7       0.0
 7 C  dxy             0.6       0.0
 8 C  s               0.3       0.0
 8 C  px              1.8       0.0
 8 C  py              0.2       0.0
 8 C  dxz             0.1       0.0
 8 C  dx2y2          12.2       0.0
 8 C  dxy             3.3       0.0
 9 C  s               0.4       0.0
 9 C  py              0.1       0.0
 9 C  dz2             0.1       0.0
 9 C  dx2y2           0.1       0.0
 9 C  dxy             5.4       0.0
10 C  s               0.3       0.0
10 C  dx2y2           3.0       0.0
10 C  dxy             1.3       0.0
11 C  px              0.2       0.0
11 C  dx2y2           2.5       0.0
11 C  dxy             3.5       0.0
12 C  s               0.2       0.0
12 C  px              0.2       0.0
12 C  dx2y2           1.3       0.0
13 O  s               0.5       0.0
13 O  px              3.3       0.0
13 O  dz2             0.8       0.0
13 O  dyz             0.3       0.0
13 O  dx2y2           6.2       0.0
13 O  dxy            28.1       0.0
14 C  s               0.5       0.0
14 C  px              0.5       0.0
14 C  py              0.2       0.0
14 C  dz2             0.2       0.0
14 C  dx2y2           0.3       0.0
14 C  dxy             1.1       0.0
15 C  s               0.0       7.2
15 C  px              0.0       1.1
15 C  py              0.0       4.0
15 C  dz2             0.0       2.0
15 C  dxz             0.0       0.6
15 C  dyz             0.1       2.2
15 C  dx2y2           0.0       3.4
15 C  dxy             0.0       2.2
16 O  s               0.0       4.9
16 O  px              0.0       0.9
16 O  py              0.0       2.8
16 O  dz2             0.0      15.0
16 O  dxz             0.0       0.3
16 O  dyz             0.1       1.7
16 O  dx2y2           0.0      13.1
16 O  dxy             0.0      29.6
17 O  s               0.0       0.2
17 O  pz              0.0       0.3
17 O  dz2             0.1       5.2
17 O  dxz             0.0       1.1
17 O  dyz             0.1       0.3
17 O  dx2y2           0.0       0.2
17 O  dxy             0.0       0.4
23 H  s               0.3       0.0
24 H  s               0.2       0.0
25 H  s               0.2       0.0


                      *****************************
                      * MAYER POPULATION ANALYSIS *
                      *****************************

  NA   - Mulliken gross atomic population
  ZA   - Total nuclear charge
  QA   - Mulliken gross atomic charge
  VA   - Mayer's total valence
  BVA  - Mayer's bonded valence
  FA   - Mayer's free valence

  ATOM       NA         ZA         QA         VA         BVA        FA
  0 C      6.2202     6.0000    -0.2202     3.9542     3.9542    -0.0000
  1 C      6.1208     6.0000    -0.1208     3.8969     3.8969     0.0000
  2 H      0.9251     1.0000     0.0749     0.9693     0.9693    -0.0000
  3 C      5.8960     6.0000     0.1040     3.8987     3.8987     0.0000
  4 C      6.1013     6.0000    -0.1013     3.7840     3.7840     0.0000
  5 C      6.1207     6.0000    -0.1207     3.7562     3.7562    -0.0000
  6 C      5.8281     6.0000     0.1719     3.7745     3.7745     0.0000
  7 C      6.2245     6.0000    -0.2245     3.7222     3.7222     0.0000
  8 C      5.7015     6.0000     0.2985     3.8611     3.8611    -0.0000
  9 C      6.1734     6.0000    -0.1734     3.7578     3.7578     0.0000
 10 C      6.1356     6.0000    -0.1356     3.7586     3.7586    -0.0000
 11 C      5.8220     6.0000     0.1780     3.7838     3.7838     0.0000
 12 C      6.2130     6.0000    -0.2130     3.7668     3.7668     0.0000
 13 O      8.2701     8.0000    -0.2701     2.2605     2.2605    -0.0000
 14 C      6.1155     6.0000    -0.1155     3.8956     3.8956    -0.0000
 15 C      5.8908     6.0000     0.1092     4.3925     4.3925    -0.0000
 16 O      8.1910     8.0000    -0.1910     2.2871     2.2871    -0.0000
 17 O      8.2825     8.0000    -0.2825     2.2119     2.2119    -0.0000
 18 H      0.8914     1.0000     0.1086     0.9572     0.9572    -0.0000
 19 H      0.8952     1.0000     0.1048     0.9535     0.9535    -0.0000
 20 H      0.8780     1.0000     0.1220     0.9771     0.9771    -0.0000
 21 H      0.9372     1.0000     0.0628     0.9815     0.9815    -0.0000
 22 H      0.9633     1.0000     0.0367     0.9580     0.9580    -0.0000
 23 H      0.9692     1.0000     0.0308     0.9770     0.9770     0.0000
 24 H      0.9610     1.0000     0.0390     0.9712     0.9712    -0.0000
 25 H      0.9619     1.0000     0.0381     0.9578     0.9578     0.0000
 26 H      0.9762     1.0000     0.0238     0.9684     0.9684     0.0000
 27 H      0.8882     1.0000     0.1118     0.9498     0.9498    -0.0000
 28 H      0.8882     1.0000     0.1118     0.9497     0.9497    -0.0000
 29 H      0.8728     1.0000     0.1272     0.9546     0.9546     0.0000
 30 H      0.6855     1.0000     0.3145     0.9046     0.9046     0.0000

  Mayer bond orders larger than 0.100000
B(  0-C ,  1-C ) :   1.1029 B(  0-C , 18-H ) :   0.9489 B(  0-C , 19-H ) :   0.9495 
B(  0-C , 20-H ) :   0.9356 B(  1-C ,  2-H ) :   0.8699 B(  1-C ,  3-C ) :   1.0073 
B(  1-C , 15-C ) :   0.9277 B(  3-C ,  4-C ) :   1.2477 B(  3-C , 12-C ) :   1.4592 
B(  4-C ,  5-C ) :   1.4578 B(  4-C , 21-H ) :   0.9477 B(  5-C ,  6-C ) :   1.2135 
B(  5-C , 22-H ) :   0.9683 B(  6-C ,  7-C ) :   1.2299 B(  6-C , 11-C ) :   1.2429 
B(  7-C ,  8-C ) :   1.3826 B(  7-C , 10-C ) :   0.1003 B(  7-C , 23-H ) :   0.9727 
B(  8-C ,  9-C ) :   1.1966 B(  8-C , 13-O ) :   1.1349 B(  9-C , 10-C ) :   1.4240 
B(  9-C , 24-H ) :   0.9597 B( 10-C , 11-C ) :   1.2335 B( 10-C , 25-H ) :   0.9642 
B( 11-C , 12-C ) :   1.2139 B( 12-C , 26-H ) :   0.9649 B( 13-O , 14-C ) :   0.9879 
B( 14-C , 27-H ) :   0.9420 B( 14-C , 28-H ) :   0.9421 B( 14-C , 29-H ) :   0.9589 
B( 15-C , 16-O ) :   2.0734 B( 15-C , 17-O ) :   1.3071 B( 17-O , 30-H ) :   0.8200 


-------
TIMINGS
-------

Total SCF time: 0 days 0 hours 0 min 23 sec 

Total time                  ....      23.475 sec
Sum of individual times     ....      22.602 sec  ( 96.3%)

SCF preparation             ....       0.235 sec  (  1.0%)
Fock matrix formation       ....      20.814 sec  ( 88.7%)
  Startup                   ....       0.083 sec  (  0.4% of F)
  Split-RI-J                ....      10.803 sec  ( 51.9% of F)
  XC integration            ....       9.190 sec  ( 44.2% of F)
    Basis function eval.    ....       3.351 sec  ( 36.5% of XC)
    Density eval.           ....       1.588 sec  ( 17.3% of XC)
    XC-Functional eval.     ....       0.647 sec  (  7.0% of XC)
    XC-Potential eval.      ....       2.168 sec  ( 23.6% of XC)
Diagonalization             ....       0.000 sec  (  0.0%)
Density matrix formation    ....       0.295 sec  (  1.3%)
Total Energy calculation    ....       0.055 sec  (  0.2%)
Population analysis         ....       0.191 sec  (  0.8%)
Orbital Transformation      ....       0.095 sec  (  0.4%)
Orbital Orthonormalization  ....       0.000 sec  (  0.0%)
DIIS solution               ....       0.599 sec  (  2.6%)
  MO trafo                  ....       0.000 sec  (  0.0 % of DIIS)
  Orb grad                  ....       0.000 sec  (  0.0 % of DIIS)
  Energy W gradient         ....       0.000 sec  (  0.0 % of DIIS)
  DIIS error                ....       0.027 sec  (  4.5 % of DIIS)
  DIIS work                 ....       0.493 sec  ( 82.3 % of DIIS)
  Form Q                    ....       0.000 sec  (  0.0 % of DIIS)
  Form QpQm                 ....       0.000 sec  (  0.0 % of DIIS)
  Exp/Cayley                ....       0.000 sec  (  0.0 % of DIIS)
  Orb update                ....       0.000 sec  (  0.0 % of DIIS)
  Wake-sleep                ....       0.028 sec  (  4.6 % of DIIS)
SOSCF solution              ....       0.319 sec  (  1.4%)
  MO trafo                  ....       0.111 sec  ( 34.7 % of SOSCF)
  Orb grad                  ....       0.004 sec  (  1.1 % of SOSCF)
  Rot update                ....       0.115 sec  ( 36.2 % of SOSCF)
  Step                      ....       0.089 sec  ( 27.9 % of SOSCF)
Finished LeanSCF after  23.6 sec

Maximum memory used throughout the entire LEANSCF-calculation: 25.1 MB


-------------------------------------------------------------------------------
                          DFT DISPERSION CORRECTION                            
                                                                               
                                DFTD4 V3.4.0                                   
-------------------------------------------------------------------------------
The PBE functional is recognized
Active option DFTDOPT                   ...         5   

-------------------------   ----------------
Dispersion correction           -0.038868974
-------------------------   ----------------

------------------   -----------------
gCP correction             0.133118102
------------------   -----------------

-------------------------   --------------------
FINAL SINGLE POINT ENERGY      -765.993697866540
-------------------------   --------------------


------------------------------------------------------------------------------
                              ORCA PROPERTY CALCULATIONS
------------------------------------------------------------------------------

GBWName                                 ... sp.gbw
Number of atoms                         ...     31
Number of basis functions               ...    266
Max core memory                         ...   1024 MB

Electric properties:
Dipole moment                           ... YES
Quadrupole moment                       ...  NO
Static polarizability (Dipole/Dipole)   ...  NO
Static polarizability (Dipole/Quad.)    ...  NO
Static polarizability (Quad./Quad.)     ...  NO
Static polarizability (Velocity)        ...  NO

Atomic electric properties:
Dipole moment                           ...  NO
Quadrupole moment                       ...  NO
Static polarizability                   ...  NO

Choice of electric origin               ... Center of mass
Position of electric origin             ...     0.000015     0.000007     0.000012

General magnetic properties:
Magnetizability                         ...  NO

EPR properties:
g-Tensor (aka g-matrix)                 ...  NO
Zero-Field splitting spin-orbit         ...  NO
Zero-field splitting spin-spin          ...  NO
Hyperfine couplings                     ...  NO (   0 nuclei)
Quadrupole couplings                    ...  NO (   0 nuclei)
Contact density                         ...  NO (   0 nuclei)

NMR properties:
Chemical shifts                         ...  NO (   0 nuclei)
Spin-rotation constants                 ...  NO (   0 nuclei)
Spin-spin couplings                     ...  NO (   0 nuclei,    0 pairs)

Choice of magnetic origin               ... GIAO
Position of magnetic origin             ...     0.000000     0.000000     0.000000

Properties with geometric perturbations:
SCF Hessian                             ...  NO
IR spectrum                             ...  NO
VCD spectrum                            ...  NO
X-ray spectroscopy properties:
SCF XES/XAS/RIXS spectra                ...  NO


-------------
DIPOLE MOMENT
-------------

Method             : SCF
Type of density    : Electron Density
Multiplicity       :   1
Irrep              :   0
Energy             :  -766.0879469945173241 Eh
Relativity type    : 
Basis              : AO
                                X                 Y                 Z
Electronic contribution:     -3.729567003      -2.577797032      -4.324870582
Nuclear contribution   :      4.472585237       3.498923181       4.031540493
                        -----------------------------------------
Total Dipole Moment    :      0.743018234       0.921126148      -0.293330089
                        -----------------------------------------
Magnitude (a.u.)       :      1.219258798
Magnitude (Debye)      :      3.099109575



--------------------
Rotational spectrum 
--------------------
 
Rotational constants in cm-1:             0.048031             0.006714             0.006492 
Rotational constants in MHz :          1439.942868           201.285032           194.614591 

Dipole components along the rotational axes: 
x,y,z [a.u.] :     0.757813     0.937871    -0.180857 
x,y,z [Debye]:     1.926207     2.383879    -0.459702 

 

Dipole moment calculation done in   0.0 sec 

Maximum memory used throughout the entire PROP-calculation: 17.0 MB

--------------------------------
SUGGESTED CITATIONS FOR THIS RUN
--------------------------------

Below you find a list of papers that are relevant to this ORCA run
We neither can nor want to force you to cite these papers, but we appreciate if you do
You receive ORCA, which is the product of decades of hard work by many enthusiastic individuals, for free
The only thing we kindly ask in return is that you cite our papers,
We deeply appreciate it, if you show your appreciation for ORCA by not just citing the generic ORCA reference.

Please note that relegating all ORCA citations to the supporting information does *not* help us.
SI sections are not indexed - citations you put there will not count into any citation statistics
But we need these citations in order to attract the funding resources that allow us to do what we are doing

Therefore, if you are a happy ORCA user, please consider citing a few of the papers listed below in the main body of your paper

In addition to the list printed below, the program has created the file sp.bibtex that contains the list in bibtex format
You can import this file easily into all common literature databanks and citation aid programs


List of essential papers. We consider these as the minimum necessary citations

  1. Neese,F.
     Software update: the ORCA program system, version 5.0
     WIRES Comput. Molec. Sci., 2022 12(1)e1606
     doi.org/10.1002/wcms.1606

List of papers to cite with high priority. The work reported in these papers was absolutely
necessary for this run to complete.
Our perspective: the developers of density functionals and basis sets usually get cited in chemistry papers
Good! But without the algorithms to do something with them, the functionals or basis sets would not do anything.
Hence, in our opinion, the algorithm design and method developments papers are equally worthy of getting cited

  1. Neese,F.
     An improvement of the resolution of the identity approximation for the formation of the Coulomb matrix
     J. Comp. Chem., 2003 24(14)1740-1747
     doi.org/10.1002/jcc.10318
  2. Neese,F.
     The SHARK Integral Generation and Digestion System
     J. Comp. Chem., 2022  1-16
     doi.org/10.1002/jcc.26942
  3. Caldeweyher,E.; Bannwarth,C.; Grimme,S.
     Extension of the D3 dispersion coefficient model
     J. Chem. Phys., 2017 147 034112-XXXX
     doi.org/10.1063/1.4993215
  4. Caldeweyher,E.; Ehlert,S.; Hansen,A.; Neugebauer,H.; Spicher,S.; Bannwarth,C.; Grimme,S.
     A generally applicable atomic-charge dependent London dispersion correction
     J. Chem. Phys., 2019 150 154122-XXXX
     doi.org/10.1063/1.5090222
  5. Caldeweyher,E.; Mewes,J.; Ehlert,S.; Grimme,S.
     Extension and evaluation of the D4 London-dispersion model for periodic systems
     Phys. Chem. Chem. Phys., 2020 22(16)8499-8512
     doi.org/10.1039/D0CP00502A

List of suggested additional citations. These are papers that are important in the 'surrounding' of 
of this run, or papers that preceded the highly important papers. If you like your results we are grateful for a citation.

  1. Neese,F.
     The ORCA program system
     WIRES Comput. Molec. Sci., 2012 2(1)73-78
     doi.org/10.1002/wcms.81
  2. Neese,F.
     Software update: the ORCA program system, version 4.0
     WIRES Comput. Molec. Sci., 2018 8(1)1-6
     doi.org/10.1002/wcms.1327
  3. Neese,F.; Wennmohs,F.; Becker,U.; Riplinger,C.
     The ORCA quantum chemistry program package
     J. Chem. Phys., 2020 152 Art. No. L224108
     doi.org/10.1063/5.0004608

List of optional additional citations

  1. Neese,F.
     Approximate second-order SCF convergence for spin unrestricted wavefunctions
     Chem. Phys. Lett., 2000 325(1-3)93-98
     doi.org/10.1016/s0009-2614(00)00662-x

Timings for individual modules:

Sum of individual times          ...       27.360 sec (=   0.456 min)
Startup calculation              ...        1.666 sec (=   0.028 min)   6.1 %
SCF iterations                   ...       25.560 sec (=   0.426 min)  93.4 %
Property calculations            ...        0.134 sec (=   0.002 min)   0.5 %
                             ****ORCA TERMINATED NORMALLY****
TOTAL RUN TIME: 0 days 0 hours 0 minutes 28 seconds 290 msec
