
                                 *****************
                                 * O   R   C   A *
                                 *****************

                                            #,                                       
                                            ###                                      
                                            ####                                     
                                            #####                                    
                                            ######                                   
                                           ########,                                 
                                     ,,################,,,,,                         
                               ,,#################################,,                 
                          ,,##########################################,,             
                       ,#########################################, ''#####,          
                    ,#############################################,,   '####,        
                  ,##################################################,,,,####,       
                ,###########''''           ''''###############################       
              ,#####''   ,,,,##########,,,,          '''####'''          '####       
            ,##' ,,,,###########################,,,                        '##       
           ' ,,###''''                  '''############,,,                           
         ,,##''                                '''############,,,,        ,,,,,,###''
      ,#''                                            '''#######################'''  
     '                                                          ''''####''''         
             ,#######,   #######,   ,#######,      ##                                
            ,#'     '#,  ##    ##  ,#'     '#,    #''#        ,####,   ,####,        
            ##       ##  ##   ,#'  ##            #'  '#       #'       #'  '#        
            ##       ##  #######   ##           ,######,      #####,   #    #        
            '#,     ,#'  ##    ##  '#,     ,#' ,#      #,     #,   #   #,  ,#        
             '#######'   ##     ##  '#######'  #'      '#     '####' # '####'        



                #########################################################
                #                        -***-                          #
                #          Department of theory and spectroscopy        #
                #                                                       #
                #                      Frank Neese                      #
                #                                                       #
                #     Directorship, Architecture, Infrastructure        #
                #                    SHARK, DRIVERS                     #
                #        Core code/Algorithms in most modules           #
                #                                                       #
                #        Max Planck Institute fuer Kohlenforschung      #
                #                Kaiser Wilhelm Platz 1                 #
                #                 D-45470 Muelheim/Ruhr                 #
                #                      Germany                          #
                #                                                       #
                #                  All rights reserved                  #
                #                        -***-                          #
                #########################################################


                         Program Version 6.0.0  -   RELEASE  -


 With contributions from (in alphabetic order):
   Daniel Aravena         : Magnetic Suceptibility
   Michael Atanasov       : Ab Initio Ligand Field Theory (pilot matlab implementation)
   Alexander A. Auer      : GIAO ZORA, VPT2 properties, NMR spectrum
   Ute Becker             : All parallelization in ORCA, NUMFREQ, NUMCALC
   Giovanni Bistoni       : ED, misc. LED, open-shell LED, HFLD
   Martin Brehm           : Molecular dynamics
   Dmytro Bykov           : pre 5.0 version of the SCF Hessian
   Marcos Casanova-Páez   : Triplet and SCS-CIS(D). UHF-(DLPNO)-IP/EA/STEOM-CCSD. UHF-CVS-IP/STEOM-CCSD
   Vijay G. Chilkuri      : MRCI spin determinant printing, contributions to CSF-ICE
   Pauline Colinet        : FMM embedding
   Dipayan Datta          : RHF DLPNO-CCSD density
   Achintya Kumar Dutta   : EOM-CC, STEOM-CC
   Nicolas Foglia         : Exact transition moments, OPA infrastructure, MCD improvements
   Dmitry Ganyushin       : Spin-Orbit,Spin-Spin,Magnetic field MRCI
   Miquel Garcia          : C-PCM and meta-GGA Hessian, CCSD/C-PCM, Gaussian charge scheme
   Tiago L. C. Gouveia    : GS-ROHF, GS-ROCIS
   Yang Guo               : DLPNO-NEVPT2, F12-NEVPT2, CIM, IAO-localization
   Andreas Hansen         : Spin unrestricted coupled pair/coupled cluster methods
   Ingolf Harden          : AUTO-CI MPn and infrastructure 
   Benjamin Helmich-Paris : MC-RPA, TRAH-(SCF,CASSCF), AVAS, COSX integrals, SCF dyn. polar.
   Lee Huntington         : MR-EOM, pCC
   Robert Izsak           : Overlap fitted RIJCOSX, COSX-SCS-MP3, EOM
   Riya Kayal             : Wick's Theorem for AUTO-CI, AUTO-CI UHF-CCSDT
   Emily Kempfer          : AUTO-CI, RHF CISDT and CCSDT
   Christian Kollmar      : KDIIS, OOCD, Brueckner-CCSD(T), CCSD density, CASPT2, CASPT2-K, improved NEVPT2
   Axel Koslowski         : Symmetry handling
   Simone Kossmann        : Meta GGA functionals, TD-DFT gradient, OOMP2, (MP2 Hessian; deprecated post 5.0)
   Lucas Lang             : DCDCAS
   Marvin Lechner         : AUTO-CI (C++ implementation), FIC-MRCC
   Spencer Leger          : CASSCF response
   Dagmar Lenk            : GEPOL surface, SMD, ORCA-2-JSON
   Dimitrios Liakos       : Extrapolation schemes; Compound Job, initial MDCI parallelization
   Dimitrios Manganas     : Further ROCIS development; embedding schemes. LFT, Crystal Embedding
   Dimitrios Pantazis     : SARC Basis sets
   Anastasios Papadopoulos: AUTO-CI, single reference methods and gradients
   Taras Petrenko         : pre 6.0 DFT Hessian and TD-DFT gradient, (ASA, deprecated), ECA, 1-Electron XAS/XES, NRVS
   Peter Pinski           : DLPNO-MP2, DLPNO-MP2 Gradient
   Christoph Reimann      : Effective Core Potentials
   Marius Retegan         : Local ZFS, SOC
   Christoph Riplinger    : Optimizer, TS searches, QM/MM, DLPNO-CCSD(T), (RO)-DLPNO pert. Triples
   Michael Roemelt        : Original ROCIS implementation
   Masaaki Saitow         : Open-shell DLPNO-CCSD energy and density
   Barbara Sandhoefer     : DKH picture change effects
   Kantharuban Sivalingam : CASSCF convergence/infrastructure, NEVPT2 and variants, FIC-MRCI
   Bernardo de Souza      : ESD, SOC TD-DFT
   Georgi Stoychev        : AutoAux, RI-MP2 NMR, DLPNO-MP2 response, X2C
   Van Anh Tran           : RI-MP2 g-tensors
   Willem Van den Heuvel  : Paramagnetic NMR
   Zikuan Wang            : NOTCH, Electric field optimization 
   Frank Wennmohs         : Technical directorship and infrastructure
   Hang Xu                : AUTO-CI-Response properties 


 We gratefully acknowledge several colleagues who have allowed us to
 interface, adapt or use parts of their codes:
   Stefan Grimme, W. Hujo, H. Kruse, P. Pracht,  : VdW corrections, initial TS optimization,
                  C. Bannwarth, S. Ehlert,         DFT functionals, gCP, sTDA/sTD-DF
                  L. Wittmann, M. Mueller
   Ed Valeev, F. Pavosevic, A. Kumar             : LibInt (2-el integral package), F12 methods
   Garnet Chan, S. Sharma, J. Yang, R. Olivares  : DMRG
   Ulf Ekstrom                                   : XCFun DFT Library
   Mihaly Kallay                                 : mrcc  (arbitrary order and MRCC methods)
   Frank Weinhold                                : gennbo (NPA and NBO analysis)
   Simon Mueller                                 : openCOSMO-RS
   Christopher J. Cramer and Donald G. Truhlar   : smd solvation model
   Lars Goerigk                                  : TD-DFT with DH, B97 family of functionals
   V. Asgeirsson, H. Jonsson                     : NEB implementation
   FAccTs GmbH                                   : IRC, NEB, NEB-TS, DLPNO-Multilevel, CI-OPT
                                                   MM, QMMM, 2- and 3-layer-ONIOM, Crystal-QMMM,
                                                   LR-CPCM, SF, NACMEs, symmetry and pop. for TD-DFT,
                                                   nearIR, NL-DFT gradient (VV10), updates on ESD,
                                                   ML-optimized integration grids, MBIS, APM,
                                                   GOAT, DOCKER, SOLVATOR, interface openCOSMO-RS
   S Lehtola, MJT Oliveira, MAL Marques          : LibXC Library
   Liviu Ungur et al                             : ANISO software


 Your calculation uses the libint2 library for the computation of 2-el integrals
 For citations please refer to: http://libint.valeyev.net

 Your ORCA version has been built with support for libXC version: 6.2.2
 For citations please refer to: https://libxc.gitlab.io

 This ORCA versions uses:
   CBLAS   interface :  Fast vector & matrix operations
   LAPACKE interface :  Fast linear algebra routines
   SCALAPACK package :  Parallel linear algebra routines
   Shared memory     :  Shared parallel matrices
   BLAS/LAPACK       :  OpenBLAS 0.3.27  USE64BITINT DYNAMIC_ARCH NO_AFFINITY SkylakeX SINGLE_THREADED
        Core in use  :  SkylakeX
   Copyright (c) 2011-2014, The OpenBLAS Project


Your calculation utilizes the geometrical counterpoise correction gCP
Please cite in your paper:
H.Kruse, S. Grimme J.Chem.Phys., 136, (2012), 154101 
   

Your calculation utilizes the atom-pairwise dispersion correction
based on EEQ partial charges (D4)


Your calculation utilizes the SMD solvation module
Please cite in your paper:
A.V. Marenich, C.J. Cramer, D.G. Truhlar J. Phys. Chem. B, 113, (2009), 6378 

================================================================================

----- Orbital basis set information -----
Your calculation utilizes the basis: def2-mTZVPP
   Stefan Grimme, Andreas Hansen, Sebastian Ehlert, and Jan-Michael Mewes 
   J. Chem. Phys. 154, 064103 (2021). DOI: 10.1063/5.0040021

----- AuxJ basis set information -----
Your calculation utilizes the auxiliary basis: def2/J
   F. Weigend, Phys. Chem. Chem. Phys. 8, 1057 (2006).

================================================================================
                                        WARNINGS
                       Please study these warnings very carefully!
================================================================================

Using LibXC functional ID 497 : Re-regularized SCAN exchange by Furness et al
[ 1]  J. W. Furness, A. D. Kaplan, J. Ning, J. P. Perdew, and J. Sun.,  J. Phys. Chem. Lett. 11, 8208-8215 (2020)
[ 2]  J. W. Furness, A. D. Kaplan, J. Ning, J. P. Perdew, and J. Sun.,  J. Phys. Chem. Lett. 11, 9248-9248 (2020)
Using LibXC functional ID 498 : Re-regularized SCAN correlation by Furness et al
[ 1]  J. W. Furness, A. D. Kaplan, J. Ning, J. P. Perdew, and J. Sun.,  J. Phys. Chem. Lett. 11, 8208-8215 (2020)
[ 2]  J. W. Furness, A. D. Kaplan, J. Ning, J. P. Perdew, and J. Sun.,  J. Phys. Chem. Lett. 11, 9248-9248 (2020)
Using LibXC functional ID 497 : Re-regularized SCAN exchange by Furness et al
[ 1]  J. W. Furness, A. D. Kaplan, J. Ning, J. P. Perdew, and J. Sun.,  J. Phys. Chem. Lett. 11, 8208-8215 (2020)
[ 2]  J. W. Furness, A. D. Kaplan, J. Ning, J. P. Perdew, and J. Sun.,  J. Phys. Chem. Lett. 11, 9248-9248 (2020)
Using LibXC functional ID 498 : Re-regularized SCAN correlation by Furness et al
[ 1]  J. W. Furness, A. D. Kaplan, J. Ning, J. P. Perdew, and J. Sun.,  J. Phys. Chem. Lett. 11, 8208-8215 (2020)
[ 2]  J. W. Furness, A. D. Kaplan, J. Ning, J. P. Perdew, and J. Sun.,  J. Phys. Chem. Lett. 11, 9248-9248 (2020)

================================================================================
                                       INPUT FILE
================================================================================
NAME = sp_solv.inp
|  1> ! r2scan-3c def2/J RI DEFGRID2 scfconv6 printgap
|  2> %output
|  3>     printlevel normal
|  4> end
|  5> %cpcm
|  6>     smd true
|  7>     smdsolvent "water"
|  8> end
|  9> * xyz 0 1
| 10> C -2.6112022247 -0.209824218 1.2461285329
| 11> C -2.524909026 0.0724891084 -0.2489501572
| 12> C -1.2514271103 -0.5189388133 -0.8616122124
| 13> C -0.0257743682 0.1808621375 -0.332142281
| 14> O 0.1477167292 1.3817893927 -0.3481781221
| 15> O 0.8487419855 -0.6823087584 0.1702036287
| 16> C 2.0904200981 -0.1804800565 0.6921231196
| 17> C 3.1432750802 -0.0850518687 -0.4013750399
| 18> H -3.531038806 0.1981467239 1.6564648963
| 19> H -2.5918141813 -1.2805322654 1.4347692426
| 20> H -1.771924809 0.2465880976 1.7679530254
| 21> H -2.525608595 1.1506955905 -0.4197157916
| 22> H -3.3906636637 -0.3566479131 -0.7538641056
| 23> H -1.267646863 -0.3726600222 -1.9430397198
| 24> H -1.1672237553 -1.5825428739 -0.6422083124
| 25> H 1.9093215991 0.8014566788 1.1400621703
| 26> H 2.3784916874 -0.9001214264 1.4590577386
| 27> H 4.0861493973 0.2301301688 0.0333702674
| 28> H 3.2731956239 -1.0516968863 -0.8803961738
| 29> H 2.8383147457 0.643351851 -1.1495207293
| 30> *
| 31> 
| 32>                          ****END OF INPUT****
================================================================================

                       ****************************
                       * Single Point Calculation *
                       ****************************

---------------------------------
CARTESIAN COORDINATES (ANGSTROEM)
---------------------------------
  C     -2.611202   -0.209824    1.246129
  C     -2.524909    0.072489   -0.248950
  C     -1.251427   -0.518939   -0.861612
  C     -0.025774    0.180862   -0.332142
  O      0.147717    1.381789   -0.348178
  O      0.848742   -0.682309    0.170204
  C      2.090420   -0.180480    0.692123
  C      3.143275   -0.085052   -0.401375
  H     -3.531039    0.198147    1.656465
  H     -2.591814   -1.280532    1.434769
  H     -1.771925    0.246588    1.767953
  H     -2.525609    1.150696   -0.419716
  H     -3.390664   -0.356648   -0.753864
  H     -1.267647   -0.372660   -1.943040
  H     -1.167224   -1.582543   -0.642208
  H      1.909322    0.801457    1.140062
  H      2.378492   -0.900121    1.459058
  H      4.086149    0.230130    0.033370
  H      3.273196   -1.051697   -0.880396
  H      2.838315    0.643352   -1.149521

----------------------------
CARTESIAN COORDINATES (A.U.)
----------------------------
  NO LB      ZA    FRAG     MASS         X           Y           Z
   0 C     6.0000    0    12.011   -4.934457   -0.396510    2.354842
   1 C     6.0000    0    12.011   -4.771387    0.136985   -0.470448
   2 C     6.0000    0    12.011   -2.364855   -0.980652   -1.628211
   3 C     6.0000    0    12.011   -0.048706    0.341780   -0.627658
   4 O     8.0000    0    15.999    0.279144    2.611204   -0.657961
   5 O     8.0000    0    15.999    1.603890   -1.289377    0.321638
   6 C     6.0000    0    12.011    3.950321   -0.341058    1.307923
   7 C     6.0000    0    12.011    5.939929   -0.160725   -0.758489
   8 H     1.0000    0     1.008   -6.672696    0.374443    3.130265
   9 H     1.0000    0     1.008   -4.897819   -2.419855    2.711321
  10 H     1.0000    0     1.008   -3.348453    0.465984    3.340947
  11 H     1.0000    0     1.008   -4.772709    2.174500   -0.793148
  12 H     1.0000    0     1.008   -6.407426   -0.673967   -1.424597
  13 H     1.0000    0     1.008   -2.395505   -0.704225   -3.671813
  14 H     1.0000    0     1.008   -2.205733   -2.990573   -1.213598
  15 H     1.0000    0     1.008    3.608095    1.514534    2.154405
  16 H     1.0000    0     1.008    4.494698   -1.700983    2.757220
  17 H     1.0000    0     1.008    7.721703    0.434883    0.063061
  18 H     1.0000    0     1.008    6.185443   -1.987419   -1.663708
  19 H     1.0000    0     1.008    5.363638    1.215759   -2.172279

--------------------------------
INTERNAL COORDINATES (ANGSTROEM)
--------------------------------
 C      0   0   0     0.000000000000     0.00000000     0.00000000
 C      1   0   0     1.523944756215     0.00000000     0.00000000
 C      2   1   0     1.531958866962   111.58605422     0.00000000
 C      3   2   1     1.507409839166   110.86726224   293.29403790
 O      4   3   2     1.213500136530   124.82236033   306.97137459
 O      4   3   2     1.327476651926   111.51215099   126.46810808
 C      6   4   3     1.437357483837   118.65186013   178.63858139
 C      7   6   4     1.520969551697   111.02868839   272.02149908
 H      1   2   3     1.086699386611   110.41570738   181.26447783
 H      1   2   3     1.087371572348   110.58522713   301.50826837
 H      1   2   3     1.088576861461   110.42345579    61.50691673
 H      2   1   3     1.091645825958   109.65776845   239.60591076
 H      2   1   3     1.090242070005   109.66165531   120.67475783
 H      3   2   1     1.091396361944   109.40057363   175.11354464
 H      3   2   1     1.089257487490   111.14160483    54.24140922
 H      7   6   4     1.094370052411   108.59857066    33.88253132
 H      7   6   4     1.090439201264   104.66621066   151.76116701
 H      8   7   6     1.085059987664   109.37107619   183.88175708
 H      8   7   6     1.086620073645   110.11399720   304.05143984
 H      8   7   6     1.087793526851   110.02412425    64.24969323

---------------------------
INTERNAL COORDINATES (A.U.)
---------------------------
 C      0   0   0     0.000000000000     0.00000000     0.00000000
 C      1   0   0     2.879838232472     0.00000000     0.00000000
 C      2   1   0     2.894982706990   111.58605422     0.00000000
 C      3   2   1     2.848591767602   110.86726224   293.29403790
 O      4   3   2     2.293182921518   124.82236033   306.97137459
 O      4   3   2     2.508567321316   111.51215099   126.46810808
 C      6   4   3     2.716212000994   118.65186013   178.63858139
 C      7   6   4     2.874215910740   111.02868839   272.02149908
 H      1   2   3     2.053564230595   110.41570738   181.26447783
 H      1   2   3     2.054834477549   110.58522713   301.50826837
 H      1   2   3     2.057112143885   110.42345579    61.50691673
 H      2   1   3     2.062911646299   109.65776845   239.60591076
 H      2   1   3     2.060258931990   109.66165531   120.67475783
 H      3   2   1     2.062440227632   109.40057363   175.11354464
 H      3   2   1     2.058398340679   111.14160483    54.24140922
 H      7   6   4     2.068059688222   108.59857066    33.88253132
 H      7   6   4     2.060631456081   104.66621066   151.76116701
 H      8   7   6     2.050466215560   109.37107619   183.88175708
 H      8   7   6     2.053414350811   110.11399720   304.05143984
 H      8   7   6     2.055631856001   110.02412425    64.24969323

---------------------
BASIS SET INFORMATION
---------------------
There are 3 groups of distinct atoms

 Group   1 Type C   : 11s6p1d contracted to 5s3p1d pattern {62111/411/1}
 Group   2 Type O   : 11s6p2d contracted to 5s3p2d pattern {62111/411/11}
 Group   3 Type H   : 4s1p contracted to 2s1p pattern {31/1}

Atom   0C    basis set group =>   1
Atom   1C    basis set group =>   1
Atom   2C    basis set group =>   1
Atom   3C    basis set group =>   1
Atom   4O    basis set group =>   2
Atom   5O    basis set group =>   2
Atom   6C    basis set group =>   1
Atom   7C    basis set group =>   1
Atom   8H    basis set group =>   3
Atom   9H    basis set group =>   3
Atom  10H    basis set group =>   3
Atom  11H    basis set group =>   3
Atom  12H    basis set group =>   3
Atom  13H    basis set group =>   3
Atom  14H    basis set group =>   3
Atom  15H    basis set group =>   3
Atom  16H    basis set group =>   3
Atom  17H    basis set group =>   3
Atom  18H    basis set group =>   3
Atom  19H    basis set group =>   3
---------------------------------
AUXILIARY/J BASIS SET INFORMATION
---------------------------------
There are 3 groups of distinct atoms

 Group   1 Type C   : 12s5p4d2f1g contracted to 6s4p3d1f1g pattern {711111/2111/211/2/1}
 Group   2 Type O   : 12s5p4d2f1g contracted to 6s4p3d1f1g pattern {711111/2111/211/2/1}
 Group   3 Type H   : 5s2p1d contracted to 3s1p1d pattern {311/2/1}

Atom   0C    basis set group =>   1
Atom   1C    basis set group =>   1
Atom   2C    basis set group =>   1
Atom   3C    basis set group =>   1
Atom   4O    basis set group =>   2
Atom   5O    basis set group =>   2
Atom   6C    basis set group =>   1
Atom   7C    basis set group =>   1
Atom   8H    basis set group =>   3
Atom   9H    basis set group =>   3
Atom  10H    basis set group =>   3
Atom  11H    basis set group =>   3
Atom  12H    basis set group =>   3
Atom  13H    basis set group =>   3
Atom  14H    basis set group =>   3
Atom  15H    basis set group =>   3
Atom  16H    basis set group =>   3
Atom  17H    basis set group =>   3
Atom  18H    basis set group =>   3
Atom  19H    basis set group =>   3

Checking for AutoStart:
The File: sp_solv.gbw exists
Trying to determine its content:
     ... Fine, the file contains calculation information
     ... Fine, the calculation information was read
     ... Fine, the file contains a basis set
     ... Fine, the basis set was read
     ... Fine, the file contains a geometry
     ... Fine, the geometry was read
     ... Fine, the file contains a set of orbitals
     ... Fine, the orbitals can be read
     => possible old guess file was deleted
     => GBW file was renamed to GES file
     => GES file is set as startup file
     => Guess is set to MORead
     ... now leaving AutoStart

------------------------------------------------------------------------------
                             ORCA STARTUP CALCULATIONS
                           -- RI-GTO INTEGRALS CHOSEN --
------------------------------------------------------------------------------
------------------------------------------------------------------------------
                   ___                                                        
                  /   \      - P O W E R E D   B Y -                         
                 /     \                                                     
                 |  |  |   _    _      __       _____    __    __             
                 |  |  |  | |  | |    /  \     |  _  \  |  |  /  |          
                  \  \/   | |  | |   /    \    | | | |  |  | /  /          
                 / \  \   | |__| |  /  /\  \   | |_| |  |  |/  /          
                |  |  |   |  __  | /  /__\  \  |    /   |      \           
                |  |  |   | |  | | |   __   |  |    \   |  |\   \          
                \     /   | |  | | |  |  |  |  | |\  \  |  | \   \       
                 \___/    |_|  |_| |__|  |__|  |_| \__\ |__|  \__/        
                                                                              
                      - O R C A' S   B I G   F R I E N D -                    
                                      &                                       
                       - I N T E G R A L  F E E D E R -                       
                                                                              
 v1 FN, 2020, v2 2021, v3 2022-2024                                           
------------------------------------------------------------------------------


----------------------
SHARK INTEGRAL PACKAGE
----------------------

Number of atoms                             ...     20
Number of basis functions                   ...    222
Number of shells                            ...    110
Maximum angular momentum                    ...      2
Integral batch strategy                     ... SHARK/LIBINT Hybrid
RI-J (if used) integral strategy            ... SPLIT-RIJ (Revised 2003 algorithm where possible)
Printlevel                                  ...      1
Contraction scheme used                     ... SEGMENTED contraction
Prescreening option                         ... SCHWARTZ
   Thresh                                   ... 1.000e-10
   Tcut                                     ... 1.000e-11
   Tpresel                                  ... 1.000e-11 
Coulomb Range Separation                    ... NOT USED
Exchange Range Separation                   ... NOT USED
Multipole approximations                    ... NOT USED
Finite Nucleus Model                        ... NOT USED
CABS basis                                  ... NOT available
Auxiliary Coulomb fitting basis             ... AVAILABLE
   # of basis functions in Aux-J            ...    524
   # of shells in Aux-J                     ...    180
   Maximum angular momentum in Aux-J        ...      4
Auxiliary J/K fitting basis                 ... NOT available
Auxiliary Correlation fitting basis         ... NOT available
Auxiliary 'external' fitting basis          ... NOT available

Checking pre-screening integrals            ... done (  0.0 sec) Dimension = 110
Check shell pair data                       ... done (  0.0 sec)
Shell pair information
Shell pair cut-off parameter TPreSel        ...   1.0e-11
Total number of shell pairs                 ...      6105
Shell pairs after pre-screening             ...      5319
Total number of primitive shell pairs       ...     21533
Primitive shell pairs kept                  ...     13247
          la=0 lb=0:   1784 shell pairs
          la=1 lb=0:   2002 shell pairs
          la=1 lb=1:    584 shell pairs
          la=2 lb=0:    574 shell pairs
          la=2 lb=1:    322 shell pairs
          la=2 lb=2:     53 shell pairs

Calculating one electron integrals          ... done (  0.0 sec)
Calculating RI/J V-Matrix + Cholesky decomp.... done (  0.2 sec)
Calculating Nuclear repulsion               ... done (  0.0 sec) ENN=    395.574383117910 Eh

Diagonalization of the overlap matrix:
Smallest eigenvalue                        ... 1.847e-04
Time for diagonalization                   ...    0.005 sec
Threshold for overlap eigenvalues          ... 1.000e-07
Number of eigenvalues below threshold      ... 0
Time for construction of square roots      ...    0.016 sec
Total time needed                          ...    0.031 sec

-------------------
DFT GRID GENERATION
-------------------

General Integration Accuracy     IntAcc      ... 4.388
Radial Grid Type                 RadialGrid  ... OptM3 with GC (2021)
Angular Grid (max. ang.)         AngularGrid ... 4 (Lebedev-302)
Angular grid pruning method      GridPruning ... 4 (adaptive)
Weight generation scheme         WeightScheme... mBecke (2022)
Basis function cutoff            BFCut       ... 1.0000e-10
Integration weight cutoff        WCut        ... 1.0000e-14
Partially contracted basis set               ... off
Rotationally invariant grid construction     ... off
Angular grids for H and He will be reduced by one unit
Diffuse basis detected: some atoms will have their outermost
                        angular grid increased by 1.

Total number of grid points                  ...    87360
Total number of batches                      ...     1375
Average number of points per batch           ...       63
Average number of grid points per atom       ...     4368
Initializing property integral containers    ... done (  0.0 sec)

SHARK setup successfully completed in   1.5 seconds

Maximum memory used throughout the entire STARTUP-calculation: 39.3 MB
-------------------------------------------------------------------------------
                                 ORCA GUESS
                   Start orbitals & Density for SCF / CASSCF
-------------------------------------------------------------------------------

------------
SCF SETTINGS
------------
Hamiltonian:
 Density Functional     Method          .... DFT(GTOs)
  Functional kind                       .... Exchange
  Functional name                       .... Re-regularized SCAN exchange by Furness et al
  Functional family                     .... MGGA
  Functional refs                              
    [ 0] J. W. Furness, A. D. Kaplan, J. Ning, J. P. Perdew, and J. Sun.,  J. Phys. Chem. Lett. 11, 8208-8215 (2020), doi: 10.1021/acs.jpclett.0c02405
    [ 1] J. W. Furness, A. D. Kaplan, J. Ning, J. P. Perdew, and J. Sun.,  J. Phys. Chem. Lett. 11, 9248-9248 (2020), doi: 10.1021/acs.jpclett.0c03077
  Functional external parameters        .... 6
    Parameter  0 _c1        =  6.670000e-01 : c1 parameter        
    Parameter  1 _c2        =  8.000000e-01 : c2 parameter        
    Parameter  2 _d         =  1.240000e+00 : d parameter         
    Parameter  3 _k1        =  6.500000e-02 : k1 parameter        
    Parameter  4 _eta       =  1.000000e-03 : eta parameter       
    Parameter  5 _dp2       =  3.610000e-01 : dp2 parameter       
  Functional kind                       .... Correlation
  Functional name                       .... Re-regularized SCAN correlation by Furness et al
  Functional family                     .... MGGA
  Functional refs                              
    [ 0] J. W. Furness, A. D. Kaplan, J. Ning, J. P. Perdew, and J. Sun.,  J. Phys. Chem. Lett. 11, 8208-8215 (2020), doi: 10.1021/acs.jpclett.0c02405
    [ 1] J. W. Furness, A. D. Kaplan, J. Ning, J. P. Perdew, and J. Sun.,  J. Phys. Chem. Lett. 11, 9248-9248 (2020), doi: 10.1021/acs.jpclett.0c03077
  Functional external parameters        .... 1
    Parameter  0 _eta       =  1.000000e-03 : Regularization parameter
 Gradients option       PostSCFGGA      .... off
 RI-approximation to the Coulomb term is turned on
   Number of AuxJ basis functions       .... 524


General Settings:
 Integral files         IntName         .... sp_solv
 Hartree-Fock type      HFTyp           .... RHF
 Total Charge           Charge          ....    0
 Multiplicity           Mult            ....    1
 Number of Electrons    NEL             ....   64
 Basis Dimension        Dim             ....  222
 Nuclear Repulsion      ENuc            ....    395.5743831179 Eh

Convergence Acceleration:
 AO-DIIS                CNVDIIS         .... on
   Start iteration      DIISMaxIt       ....    12
   Startup error        DIISStart       ....  0.200000
   # of expansion vecs  DIISMaxEq       ....     5
   Bias factor          DIISBfac        ....   1.050
   Max. coefficient     DIISMaxC        ....  10.000
 MO-DIIS                CNVKDIIS        .... off
 Trust-Rad. Augm. Hess. CNVTRAH         .... auto
   Auto Start mean grad. ratio tolernc. ....  1.125000
   Auto Start start iteration           ....     1
   Auto Start num. interpolation iter.  ....    10
   Max. Number of Micro iterations      ....    24
   Max. Number of Macro iterations      .... Maxiter - #DIIS iter
   Number of Davidson start vectors     ....     2
   Converg. threshold    (grad. norm)   ....   3.330e-04
   Grad. Scal. Fac. for Micro threshold ....   0.100
   Minimum threshold for Micro iter.    ....   1.000e-02
   NR start threshold (gradient norm)   ....   1.000e-04
   Initial trust radius                 ....   0.400
   Minimum AH scaling param. (alpha)    ....   1.000
   Maximum AH scaling param. (alpha)    .... 1000.000
   Quad. conv. algorithm                .... NR
   White noise on init. David. guess    .... on
   Maximum white noise                  ....   0.010
   Pseudo random numbers                .... off
   Inactive MOs                         .... canonical
   Orbital update algorithm             .... Taylor
   Preconditioner                       .... Diag
   Full preconditioner red. dimension   ....   250
   COSX micro iterations for RIJONX calc.... off
 SOSCF                  CNVSOSCF        .... on
   Start iteration      SOSCFMaxIt      ....   150
   Startup grad/error   SOSCFStart      ....  0.003300
   Hessian update       SOSCFHessUp     .... L-BFGS
 Level Shifting         CNVShift        .... on
   Level shift para.    LevelShift      ....    0.2500
   Turn off err/grad.   ShiftErr        ....    0.0010
 Zerner damping         CNVZerner       .... off
 Static damping         CNVDamp         .... on
   Fraction old density DampFac         ....    0.7000
   Max. Damping (<1)    DampMax         ....    0.9800
   Min. Damping (>=0)   DampMin         ....    0.0000
   Turn off err/grad.   DampErr         ....    0.1000

SCF Procedure:
 Maximum # iterations   MaxIter         ....   125
 SCF integral mode      SCFMode         .... Direct
   Integral package                     .... SHARK and LIBINT hybrid scheme
 Reset frequency        DirectResetFreq ....    20
 Integral Threshold     Thresh          ....  1.000e-10 Eh
 Primitive CutOff       TCut            ....  1.000e-11 Eh

Convergence Tolerance:
 Convergence Check Mode ConvCheckMode   .... Total+1el-Energy
 Convergence forced     ConvForced      .... 0
 Energy Change          TolE            ....  1.000e-06 Eh
 1-El. energy change                    ....  1.000e-03 Eh
 Orbital Gradient       TolG            ....  3.330e-04
 Orbital Rotation angle TolX            ....  3.330e-04
 DIIS Error             TolErr          ....  1.000e-06

---------------------
INITIAL GUESS: MOREAD
---------------------
Guess MOs are being read from file: sp_solv.ges
Input Geometry matches current geometry (good)
Atom 0: N(Shells)= 9 and 6 - projection required
Input basis set needs projection
NBasis(read)= 136
NBasis(calc)= 222
Basis set overlap was calculated
Using GuessMode=FMatrix for the initial guess
C*T matrix was formed
Effective Fockian was calculated
Effective Fockian was diagonalized
Initial density was built
                      ------------------
                      INITIAL GUESS DONE (   0.1 sec)
                      ------------------
             **** ENERGY FILE WAS UPDATED (sp_solv.en.tmp) ****
Finished Guess after   0.4 sec
Maximum memory used throughout the entire GUESS-calculation: 15.1 MB

-------------------------------------------------------------------------------------------
                                      ORCA LEAN-SCF
                              memory conserving SCF solver
-------------------------------------------------------------------------------------------

--------------------
CPCM SOLVATION MODEL
--------------------
CPCM parameters:
  Epsilon                                         ...      78.3550
  Refrac                                          ...       1.3328
  Rsolv                                           ...       1.3000
  Surface type                                    ... GAUSSIAN VDW
  Discretization scheme                           ... Constant charge density
    Threshold for H atoms                         ...       5.0000 (charges/Ang^2)
    Threshold for non-H atoms                     ...       5.0000 (charges/Ang^2)
  Epsilon function type                           ...         CPCM
Solvent:                                          ... WATER
SMD-CDS solvent descriptors:
  Soln                                            ...       1.3328
  Soln25                                          ...       1.3323
  Sola                                            ...       0.0000
  Solb                                            ...       0.0000
  Solg                                            ...       0.0000
  Solc                                            ...       0.0000
  Solh                                            ...       0.0000
Radii:
  Scheme                                          ... Element-dependent radii
  Radius for C  used is    3.4960 Bohr (=   1.8500 Ang.)
  Radius for O  used is    2.8724 Bohr (=   1.5200 Ang.)
  Radius for H  used is    2.2677 Bohr (=   1.2000 Ang.)
Calculating surface                               ...        done! (  0.0s)
Cavity surface points                             ...         1510
Cavity Volume                                     ...     877.0797
Cavity Surface-area                               ...     584.8512
Calculating surface distance matrix               ...        done! (  0.0s)
Performing Cholesky decomposition & store         ...        done! (  0.1s)
Overall time for CPCM initialization              ...                 0.2s

----------------------------------------D-I-I-S--------------------------------------------
Iteration    Energy (Eh)           Delta-E    RMSDP     MaxDP     DIISErr   Damp  Time(sec)
-------------------------------------------------------------------------------------------
               ***  Starting incremental Fock matrix formation  ***
    1    -386.0566304690747756     0.00e+00  3.70e-03  1.32e-01  6.26e-01  0.700   4.0
    2    -386.1157400941062861    -5.91e-02  3.02e-03  9.80e-02  4.41e-01  0.700   3.5
    3    -386.1575484568847969    -4.18e-02  2.22e-03  6.94e-02  3.10e-01  0.700   3.7
    4    -386.1869287756250060    -2.94e-02  1.60e-03  4.90e-02  2.17e-01  0.700   3.5
                               ***Turning on AO-DIIS***
    5    -386.2075563108360257    -2.06e-02  1.16e-03  3.52e-02  1.52e-01  0.700   3.4
    6    -386.2220178031883506    -1.45e-02  8.24e-04  2.49e-02  1.06e-01  0.700   3.3
    7    -386.2321685601364152    -1.02e-02  5.82e-04  1.76e-02  7.42e-02  0.700   3.4
    8    -386.2392826445600349    -7.11e-03  1.37e-03  4.09e-02  5.21e-02  0.000   3.1
                              *** Initializing SOSCF ***
---------------------------------------S-O-S-C-F--------------------------------------
Iteration    Energy (Eh)           Delta-E    RMSDP     MaxDP     MaxGrad    Time(sec)
--------------------------------------------------------------------------------------
    9    -386.2559145069394617    -1.66e-02  1.20e-05  4.91e-04  1.87e-04     3.2
               *** Restarting incremental Fock matrix formation ***
   10    -386.2559146958101337    -1.89e-07  6.47e-06  1.89e-04  4.60e-05     3.6
                  *** Gradient check signals convergence ***

               *****************************************************
               *                     SUCCESS                       *
               *           SCF CONVERGED AFTER  10 CYCLES          *
               *****************************************************


SMD CDS free energy correction energy :                 4.89961     Kcal/mol
Total Energy after SMD CDS correction =              -386.248106674 Eh
             **** ENERGY FILE WAS UPDATED (sp_solv.en.tmp) ****

----------------
TOTAL SCF ENERGY
----------------

Total Energy       :       -386.24810667383105 Eh          -10510.34532 eV

Components:
Nuclear Repulsion  :        395.57438311791020 Eh           10764.12620 eV
Electronic Energy  :       -781.81489495031531 Eh          -21274.26485 eV
One Electron Energy:      -1308.54438900697528 Eh          -35607.30307 eV
Two Electron Energy:        526.72949405665997 Eh           14333.03821 eV
CPCM Dielectric    :         -0.01540286340505 Eh              -0.41913 eV
SMD CDS (Gcds)     :          0.00780802197911 Eh               0.21247 eV

Virial components:
Potential Energy   :       -770.89024272862184 Eh          -20976.98995 eV
Kinetic Energy     :        384.64213605479080 Eh           10466.64464 eV
Virial Ratio       :          2.00417523320641

DFT components:
N(Alpha)           :       31.999986904276 electrons
N(Beta)            :       31.999986904276 electrons
N(Total)           :       63.999973808551 electrons
E(X)               :      -52.083839017877 Eh       
E(C)               :       -2.038025767303 Eh       
E(XC)              :      -54.121864785181 Eh       

CPCM Solvation Model Properties:
Surface-charge          :         -0.04704299107994
Corrected charge        :         -0.00000000000000
Outlying charge corr.   :          0.00016712814631 Eh               0.00455 eV
Free-energy (cav+disp)  :          0.00780802197911 Eh               0.21247 eV

---------------
SCF CONVERGENCE
---------------

  Last Energy change         ...    1.8887e-07  Tolerance :   1.0000e-06
  Last MAX-Density change    ...    1.8854e-04  Tolerance :   1.0000e-05
  Last RMS-Density change    ...    6.4689e-06  Tolerance :   1.0000e-06
  Last DIIS Error            ...    1.8699e-04  Tolerance :   1.0000e-06
  Last Orbital Gradient      ...    4.5972e-05  Tolerance :   3.3300e-04
  Last Orbital Rotation      ...    1.0995e-04  Tolerance :   3.3300e-04


----------------
ORBITAL ENERGIES
----------------

  NO   OCC          E(Eh)            E(eV) 
   0   2.0000     -19.002853      -517.0939 
   1   2.0000     -18.943240      -515.4718 
   2   2.0000     -10.162181      -276.5270 
   3   2.0000     -10.082973      -274.3717 
   4   2.0000     -10.034898      -273.0635 
   5   2.0000     -10.027900      -272.8730 
   6   2.0000     -10.018460      -272.6162 
   7   2.0000     -10.011488      -272.4264 
   8   2.0000      -1.078676       -29.3523 
   9   2.0000      -0.988984       -26.9116 
  10   2.0000      -0.768936       -20.9238 
  11   2.0000      -0.732923       -19.9438 
  12   2.0000      -0.672462       -18.2986 
  13   2.0000      -0.619547       -16.8587 
  14   2.0000      -0.559565       -15.2265 
  15   2.0000      -0.518417       -14.1068 
  16   2.0000      -0.474127       -12.9017 
  17   2.0000      -0.461574       -12.5601 
  18   2.0000      -0.441452       -12.0125 
  19   2.0000      -0.421334       -11.4651 
  20   2.0000      -0.406676       -11.0662 
  21   2.0000      -0.386113       -10.5067 
  22   2.0000      -0.369452       -10.0533 
  23   2.0000      -0.361409        -9.8344 
  24   2.0000      -0.350388        -9.5346 
  25   2.0000      -0.340389        -9.2625 
  26   2.0000      -0.310617        -8.4523 
  27   2.0000      -0.305073        -8.3015 
  28   2.0000      -0.303356        -8.2547 
  29   2.0000      -0.300848        -8.1865 
  30   2.0000      -0.278634        -7.5820 
  31   2.0000      -0.252260        -6.8643 
  32   0.0000      -0.023289        -0.6337 
  33   0.0000       0.076852         2.0913 
  34   0.0000       0.100726         2.7409 
  35   0.0000       0.118260         3.2180 
  36   0.0000       0.125416         3.4127 
  37   0.0000       0.136965         3.7270 
  38   0.0000       0.140574         3.8252 
  39   0.0000       0.143512         3.9052 
  40   0.0000       0.152110         4.1391 
  41   0.0000       0.167442         4.5563 
  42   0.0000       0.177524         4.8307 
*Only the first 10 virtual orbitals were printed.

                    ********************************
                    * MULLIKEN POPULATION ANALYSIS *
                    ********************************

-----------------------
MULLIKEN ATOMIC CHARGES
-----------------------
   0 C :   -0.529536
   1 C :   -0.225668
   2 C :   -0.317519
   3 C :    0.390627
   4 O :   -0.512310
   5 O :   -0.195810
   6 C :   -0.145826
   7 C :   -0.492152
   8 H :    0.161350
   9 H :    0.162379
  10 H :    0.162415
  11 H :    0.155065
  12 H :    0.163525
  13 H :    0.194239
  14 H :    0.180169
  15 H :    0.172633
  16 H :    0.173440
  17 H :    0.170159
  18 H :    0.165401
  19 H :    0.167419
Sum of atomic charges:   -0.0000000

--------------------------------
MULLIKEN REDUCED ORBITAL CHARGES
--------------------------------
  0 C s       :     3.347989  s :     3.347989
      pz      :     0.953200  p :     3.154535
      px      :     1.110045
      py      :     1.091289
      dz2     :     0.007091  d :     0.027012
      dxz     :     0.006828
      dyz     :     0.004610
      dx2y2   :     0.005577
      dxy     :     0.002906

  1 C s       :     3.198002  s :     3.198002
      pz      :     0.937245  p :     2.990800
      px      :     0.988679
      py      :     1.064875
      dz2     :     0.009544  d :     0.036865
      dxz     :     0.009084
      dyz     :     0.005284
      dx2y2   :     0.008288
      dxy     :     0.004665

  2 C s       :     3.244286  s :     3.244286
      pz      :     1.086558  p :     3.038657
      px      :     0.924476
      py      :     1.027624
      dz2     :     0.008765  d :     0.034576
      dxz     :     0.005989
      dyz     :     0.002995
      dx2y2   :     0.008884
      dxy     :     0.007943

  3 C s       :     3.167760  s :     3.167760
      pz      :     0.740094  p :     2.316445
      px      :     0.834105
      py      :     0.742246
      dz2     :     0.010403  d :     0.125168
      dxz     :     0.008708
      dyz     :     0.031061
      dx2y2   :     0.027820
      dxy     :     0.047175

  4 O s       :     3.832330  s :     3.832330
      pz      :     1.564368  p :     4.656951
      px      :     1.762838
      py      :     1.329745
      dz2     :     0.004591  d :     0.023030
      dxz     :     0.001771
      dyz     :     0.006340
      dx2y2   :     0.008093
      dxy     :     0.002235

  5 O s       :     3.705284  s :     3.705284
      pz      :     1.606381  p :     4.455618
      px      :     1.230103
      py      :     1.619134
      dz2     :     0.005338  d :     0.034908
      dxz     :     0.006969
      dyz     :     0.009575
      dx2y2   :     0.009223
      dxy     :     0.003804

  6 C s       :     3.266263  s :     3.266263
      pz      :     0.980587  p :     2.826575
      px      :     0.756812
      py      :     1.089176
      dz2     :     0.006968  d :     0.052989
      dxz     :     0.013901
      dyz     :     0.010225
      dx2y2   :     0.012775
      dxy     :     0.009121

  7 C s       :     3.336485  s :     3.336485
      pz      :     1.010469  p :     3.130123
      px      :     1.017831
      py      :     1.101823
      dz2     :     0.002439  d :     0.025543
      dxz     :     0.007293
      dyz     :     0.007511
      dx2y2   :     0.005639
      dxy     :     0.002661

  8 H s       :     0.820317  s :     0.820317
      pz      :     0.004711  p :     0.018333
      px      :     0.008923
      py      :     0.004699

  9 H s       :     0.819382  s :     0.819382
      pz      :     0.003779  p :     0.018239
      px      :     0.003664
      py      :     0.010797

 10 H s       :     0.819354  s :     0.819354
      pz      :     0.005326  p :     0.018231
      px      :     0.007966
      py      :     0.004939

 11 H s       :     0.826988  s :     0.826988
      pz      :     0.003570  p :     0.017947
      px      :     0.003373
      py      :     0.011004

 12 H s       :     0.818499  s :     0.818499
      pz      :     0.005026  p :     0.017975
      px      :     0.008328
      py      :     0.004620

 13 H s       :     0.787555  s :     0.787555
      pz      :     0.011264  p :     0.018206
      px      :     0.003451
      py      :     0.003491

 14 H s       :     0.801987  s :     0.801987
      pz      :     0.003547  p :     0.017845
      px      :     0.003177
      py      :     0.011120

 15 H s       :     0.809470  s :     0.809470
      pz      :     0.004658  p :     0.017896
      px      :     0.002674
      py      :     0.010564

 16 H s       :     0.809023  s :     0.809023
      pz      :     0.007719  p :     0.017537
      px      :     0.003129
      py      :     0.006689

 17 H s       :     0.811327  s :     0.811327
      pz      :     0.004635  p :     0.018514
      px      :     0.009522
      py      :     0.004357

 18 H s       :     0.816309  s :     0.816309
      pz      :     0.005129  p :     0.018289
      px      :     0.003635
      py      :     0.009526

 19 H s       :     0.814320  s :     0.814320
      pz      :     0.007216  p :     0.018261
      px      :     0.004064
      py      :     0.006981


------------------------
MULLIKEN OVERLAP CHARGES
------------------------
B(  0-C ,  1-C ) :   0.4210 B(  0-C ,  2-C ) :  -0.2153 B(  0-C ,  8-H ) :   0.7909 
B(  0-C ,  9-H ) :   0.8501 B(  0-C , 10-H ) :   0.8432 B(  0-C , 11-H ) :  -0.0600 
B(  1-C ,  2-C ) :   0.3892 B(  1-C ,  3-C ) :  -0.0838 B(  1-C ,  8-H ) :  -0.0701 
B(  1-C ,  9-H ) :  -0.0933 B(  1-C , 10-H ) :  -0.0861 B(  1-C , 11-H ) :   0.8480 
B(  1-C , 12-H ) :   0.8298 B(  1-C , 13-H ) :  -0.0663 B(  1-C , 14-H ) :  -0.0744 
B(  2-C ,  3-C ) :   0.2391 B(  2-C ,  4-O ) :  -0.1233 B(  2-C ,  5-O ) :  -0.0534 
B(  2-C , 10-H ) :  -0.0566 B(  2-C , 11-H ) :  -0.0560 B(  2-C , 12-H ) :  -0.1089 
B(  2-C , 13-H ) :   0.7637 B(  2-C , 14-H ) :   0.9070 B(  3-C ,  4-O ) :   0.9111 
B(  3-C ,  5-O ) :   0.3571 B(  3-C ,  6-C ) :  -0.2055 B(  3-C , 10-H ) :   0.0625 
B(  3-C , 14-H ) :  -0.1696 B(  4-O ,  5-O ) :  -0.2093 B(  5-O ,  6-C ) :   0.3058 
B(  5-O ,  7-C ) :  -0.1029 B(  5-O , 15-H ) :  -0.0677 B(  5-O , 16-H ) :  -0.0852 
B(  6-C ,  7-C ) :   0.5434 B(  6-C , 15-H ) :   0.8547 B(  6-C , 16-H ) :   0.7948 
B(  6-C , 17-H ) :  -0.0699 B(  6-C , 18-H ) :  -0.0681 B(  6-C , 19-H ) :  -0.0828 
B(  7-C , 15-H ) :  -0.0784 B(  7-C , 17-H ) :   0.8085 B(  7-C , 18-H ) :   0.8309 
B(  7-C , 19-H ) :   0.8381 


                     *******************************
                     * LOEWDIN POPULATION ANALYSIS *
                     *******************************

----------------------
LOEWDIN ATOMIC CHARGES
----------------------
   0 C :   -0.423820
   1 C :   -0.292813
   2 C :   -0.228953
   3 C :    0.364930
   4 O :   -0.497515
   5 O :   -0.599236
   6 C :    0.031096
   7 C :   -0.392648
   8 H :    0.156158
   9 H :    0.155802
  10 H :    0.156132
  11 H :    0.163417
  12 H :    0.160377
  13 H :    0.191823
  14 H :    0.184609
  15 H :    0.189933
  16 H :    0.188941
  17 H :    0.167711
  18 H :    0.161936
  19 H :    0.162121

-------------------------------
LOEWDIN REDUCED ORBITAL CHARGES
-------------------------------
  0 C s       :     2.971509  s :     2.971509
      pz      :     1.077423  p :     3.389532
      px      :     1.154349
      py      :     1.157761
      dz2     :     0.016908  d :     0.062779
      dxz     :     0.015027
      dyz     :     0.009554
      dx2y2   :     0.014001
      dxy     :     0.007289

  1 C s       :     2.934687  s :     2.934687
      pz      :     1.073562  p :     3.278481
      px      :     1.071566
      py      :     1.133354
      dz2     :     0.021153  d :     0.079644
      dxz     :     0.018933
      dyz     :     0.010248
      dx2y2   :     0.019000
      dxy     :     0.010310

  2 C s       :     2.923356  s :     2.923356
      pz      :     1.114926  p :     3.232533
      px      :     1.016717
      py      :     1.100890
      dz2     :     0.019818  d :     0.073064
      dxz     :     0.011491
      dyz     :     0.005662
      dx2y2   :     0.020085
      dxy     :     0.016007

  3 C s       :     2.738928  s :     2.738928
      pz      :     0.742943  p :     2.624468
      px      :     0.900277
      py      :     0.981249
      dz2     :     0.023372  d :     0.271673
      dxz     :     0.017445
      dyz     :     0.062328
      dx2y2   :     0.064699
      dxy     :     0.103828

  4 O s       :     3.543154  s :     3.543154
      pz      :     1.534143  p :     4.731492
      px      :     1.705659
      py      :     1.491690
      dz2     :     0.027328  d :     0.222869
      dxz     :     0.015031
      dyz     :     0.046440
      dx2y2   :     0.064674
      dxy     :     0.069398

  5 O s       :     3.465782  s :     3.465782
      pz      :     1.624415  p :     4.656390
      px      :     1.397458
      py      :     1.634517
      dz2     :     0.058899  d :     0.477063
      dxz     :     0.117804
      dyz     :     0.061838
      dx2y2   :     0.126251
      dxy     :     0.112271

  6 C s       :     2.870881  s :     2.870881
      pz      :     1.035700  p :     2.979037
      px      :     0.861671
      py      :     1.081666
      dz2     :     0.013178  d :     0.118987
      dxz     :     0.032381
      dyz     :     0.023459
      dx2y2   :     0.030070
      dxy     :     0.019899

  7 C s       :     2.974377  s :     2.974377
      pz      :     1.109965  p :     3.358322
      px      :     1.089909
      py      :     1.158448
      dz2     :     0.005384  d :     0.059948
      dxz     :     0.017012
      dyz     :     0.018126
      dx2y2   :     0.013672
      dxy     :     0.005754

  8 H s       :     0.799917  s :     0.799917
      pz      :     0.010936  p :     0.043925
      px      :     0.022111
      py      :     0.010878

  9 H s       :     0.800391  s :     0.800391
      pz      :     0.008556  p :     0.043807
      px      :     0.008123
      py      :     0.027128

 10 H s       :     0.799822  s :     0.799822
      pz      :     0.012728  p :     0.044046
      px      :     0.019726
      py      :     0.011592

 11 H s       :     0.792760  s :     0.792760
      pz      :     0.008429  p :     0.043824
      px      :     0.007662
      py      :     0.027732

 12 H s       :     0.795931  s :     0.795931
      pz      :     0.012164  p :     0.043692
      px      :     0.020331
      py      :     0.011197

 13 H s       :     0.763216  s :     0.763216
      pz      :     0.028317  p :     0.044961
      px      :     0.008392
      py      :     0.008251

 14 H s       :     0.771018  s :     0.771018
      pz      :     0.008682  p :     0.044372
      px      :     0.007415
      py      :     0.028275

 15 H s       :     0.766991  s :     0.766991
      pz      :     0.010636  p :     0.043076
      px      :     0.006925
      py      :     0.025515

 16 H s       :     0.770468  s :     0.770468
      pz      :     0.017412  p :     0.040591
      px      :     0.006281
      py      :     0.016898

 17 H s       :     0.787717  s :     0.787717
      pz      :     0.011070  p :     0.044572
      px      :     0.023552
      py      :     0.009950

 18 H s       :     0.794191  s :     0.794191
      pz      :     0.011957  p :     0.043874
      px      :     0.007940
      py      :     0.023976

 19 H s       :     0.793784  s :     0.793784
      pz      :     0.017526  p :     0.044095
      px      :     0.009447
      py      :     0.017123


---------------------------------
LOEWDIN BOND ORDERS (THRESH 0.050000)
---------------------------------
B(  0-C ,  1-C ) :   1.1418 B(  0-C ,  2-C ) :   0.0670 B(  0-C ,  8-H ) :   0.9283 
B(  0-C ,  9-H ) :   0.9278 B(  0-C , 10-H ) :   0.9209 B(  1-C ,  2-C ) :   1.0842 
B(  1-C ,  3-C ) :   0.0725 B(  1-C , 11-H ) :   0.8869 B(  1-C , 12-H ) :   0.8915 
B(  2-C ,  3-C ) :   0.9274 B(  2-C ,  4-O ) :   0.1816 B(  2-C ,  5-O ) :   0.1874 
B(  2-C , 13-H ) :   0.8572 B(  2-C , 14-H ) :   0.8606 B(  3-C ,  4-O ) :   2.1343 
B(  3-C ,  5-O ) :   1.4667 B(  3-C ,  6-C ) :   0.0842 B(  4-O ,  5-O ) :   0.4545 
B(  4-O ,  6-C ) :   0.0654 B(  5-O ,  6-C ) :   1.3058 B(  5-O ,  7-C ) :   0.1581 
B(  5-O , 15-H ) :   0.0919 B(  5-O , 16-H ) :   0.0973 B(  6-C ,  7-C ) :   1.0838 
B(  6-C , 15-H ) :   0.8157 B(  6-C , 16-H ) :   0.8282 B(  7-C , 17-H ) :   0.9152 
B(  7-C , 18-H ) :   0.9230 B(  7-C , 19-H ) :   0.9207 

------------------------------------------
LOEWDIN REDUCED ORBITAL POPULATIONS PER MO
-------------------------------------------
THRESHOLD FOR PRINTING IS 0.1%%
                      0         1         2         3         4         5   
                 -19.00285 -18.94324 -10.16218 -10.08297 -10.03490 -10.02790
                   2.00000   2.00000   2.00000   2.00000   2.00000   2.00000
                  --------  --------  --------  --------  --------  --------
 1 C  s               0.0       0.0       0.0       0.0       0.0      99.7
 2 C  s               0.0       0.0       0.0       0.0      99.7       0.0
 3 C  s               0.0       0.0      98.9       0.0       0.0       0.0
 4 O  s               0.0      99.9       0.0       0.0       0.0       0.0
 4 O  py              0.0       0.0       0.2       0.0       0.0       0.0
 4 O  dx2y2           0.0       0.0       0.2       0.0       0.0       0.0
 5 O  s              99.9       0.0       0.0       0.0       0.0       0.0
 5 O  dxy             0.0       0.0       0.2       0.1       0.0       0.0
 6 C  s               0.0       0.0       0.0      99.4       0.0       0.0

                      6         7         8         9        10        11   
                 -10.01846 -10.01149  -1.07868  -0.98898  -0.76894  -0.73292
                   2.00000   2.00000   2.00000   2.00000   2.00000   2.00000
                  --------  --------  --------  --------  --------  --------
 0 C  s               0.0      99.7       0.0       0.0       7.7       5.9
 0 C  pz              0.0       0.0       0.0       0.0       2.2       0.8
 0 C  px              0.0       0.0       0.0       0.0       0.1       0.0
 1 C  s               0.0       0.0       0.1       0.0      17.9       8.1
 1 C  pz              0.0       0.1       0.0       0.0       0.0       0.3
 1 C  px              0.0       0.0       0.2       0.1       1.5       0.0
 1 C  py              0.0       0.0       0.0       0.0       0.4       0.0
 2 C  s               0.0       0.0       1.0       0.2      20.5       1.2
 2 C  pz              0.0       0.0       0.3       0.0       0.8       0.1
 2 C  px              0.0       0.0       1.4       0.0       0.4       2.4
 2 C  py              0.0       0.0       0.3       0.4       0.4       0.2
 3 C  s               0.0       0.0      17.0       3.1       3.1       1.1
 3 C  pz              0.0       0.0       0.9       0.7       0.4       0.2
 3 C  px              0.0       0.0       3.8       1.0       5.3       0.7
 3 C  py              0.0       0.0       0.1      22.0       4.4       1.5
 3 C  dz2             0.0       0.0       0.4       0.2       0.0       0.0
 3 C  dxz             0.0       0.0       0.2       0.1       0.0       0.0
 3 C  dyz             0.0       0.0       0.1       0.1       0.0       0.0
 3 C  dx2y2           0.0       0.0       0.2       1.0       0.1       0.0
 3 C  dxy             0.0       0.0       0.2       0.6       0.0       0.1
 4 O  s               0.0       0.0      14.5      40.6       1.5       0.1
 4 O  px              0.0       0.0       0.0       0.2       0.2       0.0
 4 O  py              0.0       0.0       3.3       3.0       0.4       0.1
 4 O  dz2             0.0       0.0       0.4       0.0       0.1       0.0
 4 O  dx2y2           0.0       0.0       0.9       0.1       0.1       0.2
 4 O  dxy             0.0       0.0       0.1       0.2       0.4       0.0
 5 O  s               0.0       0.0      39.4      18.8       0.0       0.9
 5 O  pz              0.0       0.0       0.1       0.1       1.0       1.5
 5 O  px              0.0       0.0       0.1       0.5       5.2       9.4
 5 O  py              0.0       0.0       2.6       0.4       0.0       0.1
 5 O  dz2             0.0       0.0       0.2       0.1       0.0       0.2
 5 O  dxz             0.0       0.0       0.3       0.0       0.1       0.1
 5 O  dyz             0.0       0.0       0.1       0.2       0.0       0.1
 5 O  dx2y2           0.0       0.0       0.0       0.6       0.0       0.7
 5 O  dxy             0.0       0.0       0.2       0.5       0.3       0.8
 6 C  s               0.0       0.0       4.0       2.0       4.6      17.9
 6 C  pz              0.0       0.0       0.9       0.3       0.1       0.6
 6 C  px              0.0       0.0       4.1       1.2       0.1       2.1
 6 C  py              0.0       0.0       0.2       0.6       0.0       0.0
 6 C  dxz             0.0       0.0       0.1       0.1       0.0       0.1
 6 C  dx2y2           0.0       0.0       0.2       0.1       0.0       0.0
 7 C  s              99.7       0.0       0.3       0.2       2.3      18.3
 7 C  pz              0.0       0.0       0.1       0.1       0.3       1.1
 7 C  px              0.0       0.0       0.6       0.2       0.2       0.8
 8 H  s               0.0       0.0       0.0       0.0       0.9       0.9
 9 H  s               0.0       0.0       0.0       0.0       1.0       0.9
10 H  s               0.0       0.0       0.0       0.0       1.0       0.9
11 H  s               0.0       0.0       0.0       0.0       2.3       1.2
11 H  py              0.0       0.0       0.0       0.0       0.2       0.1
12 H  s               0.0       0.0       0.0       0.0       2.3       1.3
12 H  px              0.0       0.0       0.0       0.0       0.1       0.1
13 H  s               0.0       0.0       0.0       0.0       2.8       0.2
13 H  pz              0.0       0.0       0.0       0.0       0.3       0.0
14 H  s               0.0       0.0       0.1       0.0       3.0       0.1
14 H  py              0.0       0.0       0.0       0.0       0.3       0.0
15 H  s               0.0       0.0       0.3       0.1       0.6       2.8
15 H  py              0.0       0.0       0.0       0.0       0.1       0.2
16 H  s               0.0       0.0       0.2       0.2       0.7       3.3
16 H  pz              0.0       0.0       0.0       0.0       0.0       0.2
16 H  py              0.0       0.0       0.0       0.0       0.0       0.1
17 H  s               0.0       0.0       0.0       0.0       0.3       3.0
17 H  px              0.0       0.0       0.0       0.0       0.0       0.2
18 H  s               0.0       0.0       0.0       0.0       0.3       2.9
18 H  py              0.0       0.0       0.0       0.0       0.0       0.2
19 H  s               0.0       0.0       0.0       0.0       0.3       2.8
19 H  pz              0.0       0.0       0.0       0.0       0.0       0.1
19 H  py              0.0       0.0       0.0       0.0       0.0       0.1

                     12        13        14        15        16        17   
                  -0.67246  -0.61955  -0.55957  -0.51842  -0.47413  -0.46157
                   2.00000   2.00000   2.00000   2.00000   2.00000   2.00000
                  --------  --------  --------  --------  --------  --------
 0 C  s              18.9       6.7       7.6       0.5       0.1       0.2
 0 C  pz              0.1       0.9       7.0       0.9       0.1       0.5
 0 C  px              0.1       0.0       0.1       0.0       0.3       0.6
 0 C  py              0.0       0.0       0.5       0.2       2.2       0.0
 0 C  dz2             0.0       0.0       0.2       0.0       0.0       0.0
 1 C  s               3.0       1.2      13.9       1.2       0.2       0.0
 1 C  pz              5.9       4.0       3.9       0.0       0.8       0.2
 1 C  px              2.6       0.6       2.1       0.5       0.3       0.2
 1 C  py              0.1       0.0       1.0       0.5       7.8       0.2
 1 C  dz2             0.2       0.1       0.1       0.0       0.0       0.0
 2 C  s              11.1       3.8       1.9       1.4       2.5       0.0
 2 C  pz              0.6       0.6       0.1       1.1       3.3       5.1
 2 C  px              2.5       1.7       7.3       0.0       3.3       0.0
 2 C  py              0.1       0.0       0.6       0.7      13.3       2.0
 2 C  dyz             0.0       0.0       0.0       0.0       0.1       0.0
 2 C  dxy             0.0       0.0       0.2       0.0       0.1       0.0
 3 C  s               2.6       1.5       0.9       2.5       2.3       1.1
 3 C  pz              1.4       0.4       0.8       2.3       0.3       6.0
 3 C  px              2.9       1.7       3.0       1.0       8.9       1.3
 3 C  py              2.2       1.6       0.4       0.5       0.4       2.6
 3 C  dx2y2           0.0       0.0       0.0       0.0       0.0       0.3
 3 C  dxy             0.1       0.1       0.1       0.0       0.0       0.0
 4 O  s               0.8       0.3       0.3       2.7       2.9       8.1
 4 O  pz              0.1       0.0       0.1       1.1       0.2       1.9
 4 O  px              0.2       0.1       0.3       0.4       9.4       0.2
 4 O  py              0.5       0.4       0.3       3.9       6.0      21.3
 4 O  dz2             0.1       0.0       0.0       0.1       0.1       0.1
 4 O  dyz             0.1       0.0       0.0       0.2       0.0       0.3
 4 O  dx2y2           0.1       0.2       0.0       0.1       0.0       0.2
 4 O  dxy             0.2       0.0       0.1       0.1       1.0       0.1
 5 O  s               1.1       0.2       0.9       4.7       0.4       1.0
 5 O  pz              0.9       5.4       0.5       0.3       1.1       3.8
 5 O  px              1.3      11.9       0.2       8.3       0.1      11.5
 5 O  py              0.0       0.8       0.1      13.2       4.4       7.6
 5 O  dxz             0.2       0.5       1.1       0.5       0.1       0.1
 5 O  dyz             0.0       0.2       0.0       0.1       0.1       0.3
 5 O  dx2y2           0.7       0.0       0.5       0.0       0.5       0.2
 5 O  dxy             0.0       0.2       0.0       0.1       1.1       0.0
 6 C  s               0.6       3.7       3.6       5.3       0.0       0.3
 6 C  pz              0.5       2.9       2.5       6.4       0.3       6.9
 6 C  px              3.1       4.7       0.1       1.8       0.2       2.1
 6 C  py              0.3       1.0       0.0       9.6       6.3       0.7
 6 C  dxz             0.1       0.2       0.0       0.0       0.0       0.1
 6 C  dxy             0.0       0.0       0.0       0.3       0.0       0.0
 7 C  s               8.7      14.2       1.8       1.1       0.0       0.1
 7 C  pz              0.0       1.0       1.5       4.2       0.0       1.0
 7 C  px              0.0       1.2       0.5       0.4       0.4       3.0
 7 C  py              0.0       0.1       0.0       1.0       1.6       0.1
 8 H  s               4.1       2.0       2.9       0.2       0.0       0.5
 8 H  px              0.3       0.1       0.2       0.0       0.0       0.0
 9 H  s               3.7       1.8       3.6       0.5       0.9       0.0
 9 H  py              0.3       0.1       0.3       0.0       0.0       0.0
10 H  s               3.6       1.9       3.9       0.2       0.1       0.0
10 H  px              0.2       0.1       0.2       0.0       0.0       0.0
11 H  s               0.5       0.4       6.0       0.8       2.4       0.0
11 H  py              0.0       0.0       0.5       0.1       0.1       0.0
12 H  s               0.7       0.4       6.8       0.6       0.5       0.0
12 H  px              0.0       0.0       0.3       0.0       0.0       0.0
12 H  py              0.0       0.0       0.1       0.0       0.0       0.0
13 H  s               2.8       1.5       0.7       1.3       2.7       2.0
13 H  pz              0.3       0.1       0.0       0.1       0.1       0.1
14 H  s               2.4       0.6       1.2       1.0       6.2       1.0
14 H  py              0.2       0.0       0.1       0.0       0.2       0.0
15 H  s               0.1       0.9       1.7       9.5       1.4       0.1
15 H  py              0.0       0.1       0.1       0.4       0.0       0.0
16 H  s               0.1       1.8       2.2       2.0       1.3       2.9
16 H  py              0.0       0.1       0.1       0.2       0.0       0.1
17 H  s               2.0       4.4       0.6       0.2       0.1       1.2
17 H  px              0.1       0.2       0.0       0.0       0.0       0.0
18 H  s               1.7       3.8       0.9       2.1       0.4       0.0
18 H  py              0.1       0.3       0.1       0.1       0.0       0.0
19 H  s               1.8       4.2       1.0       0.7       0.3       0.3
19 H  pz              0.1       0.1       0.0       0.0       0.0       0.0
19 H  py              0.1       0.2       0.0       0.0       0.0       0.0

                     18        19        20        21        22        23   
                  -0.44145  -0.42133  -0.40668  -0.38611  -0.36945  -0.36141
                   2.00000   2.00000   2.00000   2.00000   2.00000   2.00000
                  --------  --------  --------  --------  --------  --------
 0 C  s               0.0       0.0       0.2       0.0       0.0       0.0
 0 C  pz              0.0       1.0       5.1       2.2       0.4       1.4
 0 C  px              4.4       1.7       5.4       8.2      10.4       0.9
 0 C  py              0.5       6.6       1.6       4.6       9.6      14.5
 1 C  s               0.2       0.0       0.4       0.0       0.1       0.0
 1 C  pz              0.1       0.2       3.6       0.3       1.8       4.6
 1 C  px              6.5       4.0       2.8       5.9       4.2       0.0
 1 C  py              1.6      11.7       2.5       2.7       1.2       1.0
 2 C  s               0.4       0.1       0.2       0.2       0.2       0.1
 2 C  pz              3.6       0.1      18.0       1.7       0.6       0.4
 2 C  px              2.9       0.8       0.0       3.8       4.0       0.1
 2 C  py              0.1       4.4       0.7       0.1       7.2      12.3
 2 C  dz2             0.0       0.0       0.1       0.1       0.0       0.0
 2 C  dx2y2           0.0       0.0       0.0       0.0       0.1       0.2
 2 C  dxy             0.0       0.0       0.0       0.2       0.0       0.0
 3 C  s               0.1       0.8       0.0       0.3       0.1       0.2
 3 C  pz             11.3       0.1       0.5       1.6       1.7       0.7
 3 C  px              1.5       1.2       0.1       5.2       0.8       1.5
 3 C  py              2.6       3.3       0.3       0.1       0.1       2.6
 3 C  dz2             0.0       0.0       0.1       0.0       0.0       0.0
 3 C  dxz             0.0       0.0       0.1       0.0       0.0       0.1
 3 C  dyz             0.0       0.0       0.0       0.0       0.2       0.0
 3 C  dx2y2           0.0       0.1       0.0       0.0       0.0       0.1
 3 C  dxy             0.0       0.0       0.0       0.0       0.1       0.1
 4 O  s               1.8       2.3       0.1       0.0       0.0       0.6
 4 O  pz              7.7       0.0       0.3       2.2       4.7       1.2
 4 O  px              0.8       0.0       0.0       2.8       0.1       1.3
 4 O  py              4.5      16.0       0.3       0.0       0.1       6.6
 4 O  dyz             0.8       0.0       0.0       0.1       0.1       0.0
 4 O  dx2y2           0.1       0.3       0.0       0.0       0.0       0.1
 4 O  dxy             0.1       0.0       0.0       0.2       0.0       0.1
 5 O  s               0.1       0.0       0.3       0.5       1.1       0.4
 5 O  pz             15.8       0.1      10.2       1.8       1.1       0.2
 5 O  px              0.5       0.2       2.3       0.3       0.0       0.7
 5 O  py              4.2       0.3       0.1       4.3       1.2       3.5
 5 O  dz2             0.2       0.0       0.3       0.0       0.2       0.0
 5 O  dxz             0.6       0.1       0.0       0.1       0.0       0.1
 5 O  dyz             0.3       0.1       0.1       0.0       0.1       0.0
 5 O  dx2y2           0.2       0.0       0.5       0.0       0.4       0.3
 5 O  dxy             0.0       0.6       0.1       0.2       0.0       0.1
 6 C  s               0.8       0.0       0.3       0.0       0.1       0.1
 6 C  pz              0.1       1.5       6.6       0.1       0.3       0.1
 6 C  px              6.7       1.7       1.2       1.9       0.7       0.1
 6 C  py              1.0       8.9       0.0       4.6       0.2       0.0
 6 C  dxy             0.0       0.0       0.0       0.1       0.0       0.1
 7 C  s               0.5       0.0       0.3       0.0       0.0       0.0
 7 C  pz              4.0       0.7       0.3       1.3       5.8       2.7
 7 C  px              1.2       1.6      11.3       0.0       5.6       4.1
 7 C  py              0.8       6.0       0.4      16.0       5.3       7.9
 7 C  dxz             0.1       0.0       0.2       0.0       0.0       0.1
 7 C  dx2y2           0.0       0.0       0.0       0.0       0.1       0.1
 8 H  s               1.4       0.0       5.0       0.4       5.8       0.0
 8 H  px              0.0       0.0       0.1       0.0       0.1       0.0
 8 H  py              0.0       0.0       0.0       0.1       0.0       0.1
 9 H  s               0.1       1.6       0.1       1.1       4.9       7.2
 9 H  py              0.0       0.0       0.0       0.0       0.1       0.2
10 H  s               0.5       2.3       0.0       6.2       1.1       1.1
10 H  py              0.0       0.0       0.0       0.0       0.1       0.0
11 H  s               1.0       3.3       0.7       1.0       0.2       0.3
12 H  s               1.4       3.6       0.5       2.4       0.1       0.9
13 H  s               0.4       0.3       9.1       1.5       0.4       0.4
13 H  pz              0.0       0.0       0.2       0.0       0.0       0.0
14 H  s               0.4       1.2       0.6       0.0       4.9       7.3
14 H  py              0.0       0.0       0.0       0.0       0.1       0.1
15 H  s               0.0       2.1       0.2       1.7       0.0       0.0
16 H  s               2.3       3.8       0.4       1.3       0.0       0.0
16 H  pz              0.1       0.1       0.0       0.1       0.0       0.0
17 H  s               0.4       0.2       4.4       0.2       6.5       5.3
17 H  px              0.0       0.0       0.1       0.0       0.1       0.1
18 H  s               0.3       1.3       0.1       3.6       3.9       4.4
18 H  pz              0.0       0.0       0.0       0.1       0.0       0.0
19 H  s               1.7       2.1       0.1       5.2       0.3       0.0
19 H  pz              0.0       0.1       0.0       0.1       0.0       0.0

                     24        25        26        27        28        29   
                  -0.35039  -0.34039  -0.31062  -0.30507  -0.30336  -0.30085
                   2.00000   2.00000   2.00000   2.00000   2.00000   2.00000
                  --------  --------  --------  --------  --------  --------
 0 C  s               0.1       0.1       0.1       0.5       0.0       0.1
 0 C  pz              3.5       3.6       1.3      20.8       0.1       1.6
 0 C  px              2.4       4.6      10.5       3.2       1.1       3.7
 0 C  py              0.0       0.0       0.0       0.1      16.1       1.2
 0 C  dz2             0.1       0.0       0.0       0.2       0.1       0.0
 0 C  dxz             0.0       0.1       0.3       0.1       0.0       0.2
 0 C  dyz             0.0       0.0       0.0       0.1       0.3       0.0
 0 C  dx2y2           0.0       0.0       0.0       0.0       0.4       0.0
 1 C  s               0.2       0.0       0.2       0.0       0.0       0.2
 1 C  pz              3.3       3.7       1.3      17.7       0.2       1.2
 1 C  px              0.1       0.2      10.2       2.3       1.2       7.3
 1 C  py              0.0       0.1       0.2       0.1      23.1       1.9
 1 C  dz2             0.0       0.0       0.0       0.5       0.1       0.1
 1 C  dxz             0.0       0.0       0.4       0.0       0.0       0.3
 1 C  dyz             0.0       0.0       0.0       0.1       0.3       0.0
 1 C  dx2y2           0.0       0.0       0.0       0.0       0.6       0.0
 2 C  s               0.0       0.3       0.6       0.2       0.1       0.1
 2 C  pz              0.1       0.8       0.2      17.1       0.1       0.1
 2 C  px              0.8       1.2       3.9       2.7       0.5       6.4
 2 C  py              0.0       0.5       2.6       0.1       3.2       2.0
 2 C  dz2             0.0       0.0       0.0       0.6       0.0       0.0
 2 C  dx2y2           0.0       0.0       0.0       0.0       0.3       0.0
 3 C  s               0.1       0.0       0.1       0.0       0.2       0.5
 3 C  pz              5.7       0.3       0.7       0.6       0.1       0.0
 3 C  px              1.4       0.5       0.9       0.0       0.5       0.2
 3 C  py              0.6       1.1       0.2       0.0       0.5       1.3
 3 C  dyz             0.2       0.0       0.0       0.2       0.0       0.0
 3 C  dx2y2           0.1       0.4       0.1       0.1       0.1       0.2
 3 C  dxy             0.2       0.0       0.0       0.0       0.0       0.0
 4 O  s               0.1       0.3       0.0       0.0       0.1       0.2
 4 O  pz             14.2       0.1       0.2       6.2       1.1       0.0
 4 O  px              6.8       0.0       2.6       0.7       0.4       0.1
 4 O  py              0.3       3.6       0.2       0.0       1.1       2.0
 4 O  dxz             0.0       0.1       0.1       0.0       0.0       0.1
 4 O  dyz             0.2       0.0       0.0       0.0       0.0       0.0
 4 O  dx2y2           0.0       0.1       0.0       0.0       0.2       0.2
 5 O  s               0.5       0.4       0.2       0.0       0.0       2.0
 5 O  pz              0.7       0.1       0.0       0.5       0.2       0.9
 5 O  px              0.0       5.0       0.2       0.5       0.0       1.9
 5 O  py              2.2      11.7       2.1       0.1       1.2      15.4
 5 O  dz2             1.0       0.0       0.0       0.0       0.0       0.0
 5 O  dxz             0.9       0.0       0.0       0.1       0.0       0.4
 5 O  dyz             0.1       0.0       0.5       0.0       0.0       0.2
 5 O  dx2y2           0.1       0.0       0.0       0.0       0.1       1.0
 5 O  dxy             0.0       0.0       0.3       0.1       0.1       0.2
 6 C  s               0.1       0.3       0.0       0.0       0.0       0.2
 6 C  pz             12.1       1.9       0.3       0.3       0.1       0.4
 6 C  px              5.1       2.3       1.2       0.5       0.0       0.2
 6 C  py              0.2       0.4       9.4       0.1       0.2      10.1
 6 C  dz2             0.0       0.1       0.1       0.0       0.0       0.0
 6 C  dxz             0.1       0.0       0.0       0.0       0.0       0.1
 6 C  dyz             0.0       0.1       0.5       0.0       0.0       0.4
 6 C  dx2y2           0.1       0.3       0.0       0.0       0.0       0.2
 7 C  s               0.3       0.0       0.0       0.0       0.0       0.0
 7 C  pz             17.1       8.7       0.2       0.2       0.0       0.1
 7 C  px              2.6      13.5       0.8       1.0       0.0       0.1
 7 C  py              1.6       3.5       7.4       0.1       0.1       5.4
 7 C  dz2             0.0       0.1       0.0       0.0       0.0       0.0
 7 C  dxz             0.1       0.0       0.0       0.0       0.0       0.0
 7 C  dyz             0.0       0.2       0.3       0.0       0.0       0.2
 7 C  dx2y2           0.2       0.1       0.0       0.0       0.0       0.1
 8 H  s               2.1       0.6       4.3       6.1       0.5       2.2
 9 H  s               0.0       0.0       0.1       0.0      11.4       1.0
 9 H  pz              0.0       0.0       0.0       0.2       0.0       0.0
10 H  s               0.0       3.8       5.7       0.1       5.6       1.7
10 H  pz              0.0       0.0       0.0       0.2       0.0       0.0
11 H  s               0.0       0.2       0.3       0.7      16.3       1.7
11 H  pz              0.0       0.0       0.0       0.2       0.0       0.0
11 H  py              0.0       0.0       0.0       0.0       0.1       0.0
12 H  s               0.4       0.8       6.1       0.2       6.9       3.2
12 H  pz              0.0       0.0       0.0       0.1       0.0       0.0
12 H  px              0.0       0.0       0.0       0.1       0.1       0.0
13 H  s               0.1       0.1       0.1      11.1       0.0       0.4
14 H  s               0.0       0.1       1.0       1.4       3.4       1.2
14 H  pz              0.0       0.0       0.0       0.1       0.0       0.0
15 H  s               1.0       0.0       5.7       0.2       0.3       8.2
16 H  s               2.7       2.9       5.8       0.0       0.0       2.3
17 H  s               0.2       8.4       0.0       0.2       0.0       0.6
17 H  pz              0.1       0.0       0.0       0.0       0.0       0.0
17 H  py              0.0       0.1       0.1       0.0       0.0       0.0
18 H  s               5.1       0.3       4.1       0.2       0.1       4.1
18 H  pz              0.0       0.1       0.0       0.0       0.0       0.0
18 H  py              0.1       0.0       0.0       0.0       0.0       0.0
[...]
 4 O  dxz             0.2       0.1       0.3       0.0       0.0       0.0
 4 O  dyz             2.7       0.0       0.3       0.0       0.0       0.0
 4 O  dx2y2           0.0       1.6       0.1      23.3       0.0       0.0
 4 O  dxy             9.2       0.0       1.4       1.9       0.0       0.0
 5 O  s               3.4      26.7       6.0       1.1       0.0       0.0
 5 O  pz              0.2       0.8       5.4       0.1       0.0       0.0
 5 O  px              0.1       7.3      21.9       0.5       0.0       0.0
 5 O  py              4.1       6.1       4.1       0.2       0.0       0.0
 5 O  dz2             0.6       4.6       0.8       0.2       0.0       0.0
 5 O  dxz             0.0      11.9       1.5       0.9       0.0       0.0
 5 O  dyz             0.3       0.0       5.8       0.1       0.0       0.0
 5 O  dx2y2           5.9       7.4       0.4       0.5       0.0       0.0
 5 O  dxy             0.0       0.7      21.0       0.4       0.0       0.0
 6 C  s               0.1       1.4       0.5       0.1       3.8       0.4
 6 C  pz              0.0       1.6       0.4       0.1       0.0       0.0
 6 C  px              0.2       5.4       1.4       0.3       0.0       0.0
 6 C  py              1.0       0.7       0.4       0.0       0.0       0.0
 6 C  dz2             0.3       1.1       0.1       0.0       0.0       0.0
 6 C  dxz             0.1       3.1       0.6       0.1       0.0       0.0
 6 C  dyz             2.1       0.7       0.1       0.0       0.0       0.0
 6 C  dx2y2           0.7       4.4       1.3       0.2       0.0       0.0
 6 C  dxy             0.3       3.8       0.8       0.3       0.0       0.0
 7 C  s               0.1       0.0       0.0       0.0       2.5      96.6
 7 C  px              0.0       0.1       0.0       0.0       0.0       0.0
 7 C  py              0.4       0.0       0.0       0.0       0.0       0.0
 7 C  dz2             0.1       0.1       0.0       0.0       0.0       0.0
 7 C  dxz             0.1       0.2       0.0       0.0       0.0       0.0
 7 C  dyz             1.3       0.1       0.0       0.0       0.0       0.0
 7 C  dx2y2           0.5       0.1       0.0       0.0       0.0       0.0
 8 H  s               0.2       0.0       0.0       0.0       0.0       0.0
 8 H  pz              0.1       0.0       0.0       0.0       0.0       0.0
 8 H  px              0.4       0.0       0.0       0.0       0.0       0.0
 9 H  py              0.2       0.0       0.0       0.0       0.0       0.0
10 H  s               0.7       0.0       0.0       0.0       0.0       0.0
10 H  pz              0.7       0.0       0.0       0.0       0.0       0.0
10 H  px              0.7       0.0       0.0       0.0       0.0       0.0
10 H  py              0.4       0.0       0.0       0.0       0.0       0.0
11 H  s               0.6       0.0       0.0       0.0       0.0       0.0
11 H  py              1.5       0.0       0.0       0.0       0.0       0.0
12 H  s               1.1       0.0       0.0       0.0       0.0       0.0
12 H  pz              0.5       0.0       0.0       0.0       0.0       0.0
12 H  px              2.0       0.0       0.0       0.0       0.0       0.0
12 H  py              0.4       0.0       0.0       0.0       0.0       0.0
13 H  s               0.2       0.0       0.0       0.0       0.0       0.0
13 H  pz              0.3       0.0       0.0       0.0       0.0       0.0
14 H  s               2.6       0.0       0.1       0.0       0.0       0.0
14 H  pz              0.1       0.0       0.0       0.0       0.0       0.0
14 H  px              0.2       0.0       0.1       0.0       0.0       0.0
14 H  py              6.4       0.1       0.1       0.0       0.0       0.0
15 H  s               0.8       0.3       0.1       0.0       0.0       0.0
15 H  pz              0.2       0.0       0.0       0.0       0.0       0.0
15 H  px              0.8       0.3       0.2       0.0       0.0       0.0
15 H  py              1.4       0.4       0.1       0.0       0.0       0.0
16 H  s               0.6       0.4       0.1       0.0       0.0       0.0
16 H  pz              0.8       0.2       0.0       0.0       0.0       0.0
16 H  px              0.0       0.1       0.0       0.0       0.0       0.0
16 H  py              0.6       1.0       0.1       0.0       0.0       0.0
17 H  s               0.0       0.1       0.0       0.0       0.0       0.0
17 H  px              0.0       0.2       0.0       0.0       0.0       0.0
18 H  s               0.5       0.0       0.0       0.0       0.0       0.0
18 H  pz              0.2       0.0       0.0       0.0       0.0       0.0
18 H  py              1.1       0.0       0.0       0.0       0.0       0.0
19 H  s               0.2       0.0       0.0       0.0       0.0       0.0
19 H  pz              0.2       0.1       0.0       0.0       0.0       0.0
19 H  py              0.1       0.0       0.0       0.0       0.0       0.0

                    216       217       218       219       220       221   
                  22.02475  22.03204  22.09710  22.27810  43.68651  43.77032
                   0.00000   0.00000   0.00000   0.00000   0.00000   0.00000
                  --------  --------  --------  --------  --------  --------
 0 C  s               1.9       9.4       0.3       0.2       0.0       0.0
 1 C  s              79.7      15.1       0.1       4.6       0.0       0.0
 2 C  s               8.7      33.6      49.1       0.3       0.0       0.0
 3 C  s               3.1       1.7       0.4      93.9       0.0       0.0
 4 O  s               0.0       0.0       0.0       0.2      97.6       2.3
 4 O  py              0.0       0.0       0.0       0.1       0.0       0.0
 5 O  s               0.0       0.0       0.1       0.1       2.4      97.6
 6 C  s               6.2      39.4      49.7       0.0       0.0       0.0
 7 C  s               0.0       0.5       0.0       0.0       0.0       0.0



                      *****************************
                      * MAYER POPULATION ANALYSIS *
                      *****************************

  NA   - Mulliken gross atomic population
  ZA   - Total nuclear charge
  QA   - Mulliken gross atomic charge
  VA   - Mayer's total valence
  BVA  - Mayer's bonded valence
  FA   - Mayer's free valence

  ATOM       NA         ZA         QA         VA         BVA        FA
  0 C      6.5295     6.0000    -0.5295     3.8096     3.8096     0.0000
  1 C      6.2257     6.0000    -0.2257     3.6353     3.6353    -0.0000
  2 C      6.3175     6.0000    -0.3175     3.6613     3.6613    -0.0000
  3 C      5.6094     6.0000     0.3906     3.7788     3.7788    -0.0000
  4 O      8.5123     8.0000    -0.5123     1.8729     1.8729    -0.0000
  5 O      8.1958     8.0000    -0.1958     1.9220     1.9220    -0.0000
  6 C      6.1458     6.0000    -0.1458     3.6452     3.6452    -0.0000
  7 C      6.4922     6.0000    -0.4922     3.8208     3.8208     0.0000
  8 H      0.8387     1.0000     0.1613     0.9580     0.9580    -0.0000
  9 H      0.8376     1.0000     0.1624     0.9592     0.9592    -0.0000
 10 H      0.8376     1.0000     0.1624     0.9601     0.9601     0.0000
 11 H      0.8449     1.0000     0.1551     0.9617     0.9617     0.0000
 12 H      0.8365     1.0000     0.1635     0.9563     0.9563     0.0000
 13 H      0.8058     1.0000     0.1942     0.9476     0.9476    -0.0000
 14 H      0.8198     1.0000     0.1802     0.9575     0.9575    -0.0000
 15 H      0.8274     1.0000     0.1726     0.9564     0.9564    -0.0000
 16 H      0.8266     1.0000     0.1734     0.9469     0.9469    -0.0000
 17 H      0.8298     1.0000     0.1702     0.9583     0.9583    -0.0000
 18 H      0.8346     1.0000     0.1654     0.9582     0.9582     0.0000
 19 H      0.8326     1.0000     0.1674     0.9574     0.9574     0.0000

  Mayer bond orders larger than 0.100000
B(  0-C ,  1-C ) :   0.8979 B(  0-C ,  8-H ) :   0.9658 B(  0-C ,  9-H ) :   0.9781 
B(  0-C , 10-H ) :   0.9707 B(  1-C ,  2-C ) :   0.8744 B(  1-C , 11-H ) :   0.9719 
B(  1-C , 12-H ) :   0.9616 B(  2-C ,  3-C ) :   0.9439 B(  2-C , 13-H ) :   0.9275 
B(  2-C , 14-H ) :   0.9951 B(  3-C ,  4-O ) :   1.7628 B(  3-C ,  5-O ) :   1.0714 
B(  5-O ,  6-C ) :   0.8004 B(  6-C ,  7-C ) :   0.9387 B(  6-C , 15-H ) :   0.9627 
B(  6-C , 16-H ) :   0.9513 B(  7-C , 17-H ) :   0.9605 B(  7-C , 18-H ) :   0.9698 
B(  7-C , 19-H ) :   0.9689 

-------
TIMINGS
-------

Total SCF time: 0 days 0 hours 0 min 35 sec 

Total time                  ....      35.715 sec
Sum of individual times     ....      34.805 sec  ( 97.5%)

SCF preparation             ....       0.468 sec  (  1.3%)
Fock matrix formation       ....      32.564 sec  ( 91.2%)
  Startup                   ....       0.089 sec  (  0.3% of F)
  Split-RI-J                ....       5.244 sec  ( 16.1% of F)
  XC integration            ....      20.536 sec  ( 63.1% of F)
    Basis function eval.    ....       3.521 sec  ( 17.1% of XC)
    Density eval.           ....       5.801 sec  ( 28.2% of XC)
    XC-Functional eval.     ....       2.514 sec  ( 12.2% of XC)
    XC-Potential eval.      ....       6.552 sec  ( 31.9% of XC)
  CPCM terms                ....       5.929 sec  ( 18.2% of F)
Diagonalization             ....       0.000 sec  (  0.0%)
Density matrix formation    ....       0.319 sec  (  0.9%)
Total Energy calculation    ....       0.069 sec  (  0.2%)
Population analysis         ....       0.296 sec  (  0.8%)
Orbital Transformation      ....       0.089 sec  (  0.2%)
Orbital Orthonormalization  ....       0.000 sec  (  0.0%)
DIIS solution               ....       0.898 sec  (  2.5%)
  MO trafo                  ....       0.000 sec  (  0.0 % of DIIS)
  Orb grad                  ....       0.000 sec  (  0.0 % of DIIS)
  Energy W gradient         ....       0.000 sec  (  0.0 % of DIIS)
  DIIS error                ....       0.026 sec  (  2.9 % of DIIS)
  DIIS work                 ....       0.809 sec  ( 90.1 % of DIIS)
  Form Q                    ....       0.000 sec  (  0.0 % of DIIS)
  Form QpQm                 ....       0.000 sec  (  0.0 % of DIIS)
  Exp/Cayley                ....       0.000 sec  (  0.0 % of DIIS)
  Orb update                ....       0.000 sec  (  0.0 % of DIIS)
  Wake-sleep                ....       0.027 sec  (  3.0 % of DIIS)
SOSCF solution              ....       0.101 sec  (  0.3%)
  MO trafo                  ....       0.084 sec  ( 82.9 % of SOSCF)
  Orb grad                  ....       0.001 sec  (  0.9 % of SOSCF)
  Rot update                ....       0.000 sec  (  0.1 % of SOSCF)
  Step                      ....       0.016 sec  ( 16.1 % of SOSCF)
Finished LeanSCF after  35.9 sec

Maximum memory used throughout the entire LEANSCF-calculation: 30.7 MB


-------------------------------------------------------------------------------
                          DFT DISPERSION CORRECTION                            
                                                                               
                                DFTD4 V3.4.0                                   
-------------------------------------------------------------------------------
The R2SCAN3C composite method is recognized
Using three-body term ABC
Active option DFTDOPT                   ...         5   

-------------------------   ----------------
Dispersion correction           -0.005131532
-------------------------   ----------------

------------------   -----------------
gCP correction             0.011737441
------------------   -----------------

-------------------------   --------------------
FINAL SINGLE POINT ENERGY      -386.241500764031
-------------------------   --------------------


------------------------------------------------------------------------------
                              ORCA PROPERTY CALCULATIONS
------------------------------------------------------------------------------

GBWName                                 ... sp_solv.gbw
Number of atoms                         ...     20
Number of basis functions               ...    222
Max core memory                         ...   1024 MB

Electric properties:
Dipole moment                           ... YES
Quadrupole moment                       ...  NO
Static polarizability (Dipole/Dipole)   ...  NO
Static polarizability (Dipole/Quad.)    ...  NO
Static polarizability (Quad./Quad.)     ...  NO
Static polarizability (Velocity)        ...  NO

Atomic electric properties:
Dipole moment                           ...  NO
Quadrupole moment                       ...  NO
Static polarizability                   ...  NO

Choice of electric origin               ... Center of mass
Position of electric origin             ...    -0.000009    -0.000008     0.000004

General magnetic properties:
Magnetizability                         ...  NO

EPR properties:
g-Tensor (aka g-matrix)                 ...  NO
Zero-Field splitting spin-orbit         ...  NO
Zero-field splitting spin-spin          ...  NO
Hyperfine couplings                     ...  NO (   0 nuclei)
Quadrupole couplings                    ...  NO (   0 nuclei)
Contact density                         ...  NO (   0 nuclei)

NMR properties:
Chemical shifts                         ...  NO (   0 nuclei)
Spin-rotation constants                 ...  NO (   0 nuclei)
Spin-spin couplings                     ...  NO (   0 nuclei,    0 pairs)

Choice of magnetic origin               ... GIAO
Position of magnetic origin             ...     0.000000     0.000000     0.000000

Properties with geometric perturbations:
SCF Hessian                             ...  NO
IR spectrum                             ...  NO
VCD spectrum                            ...  NO
X-ray spectroscopy properties:
SCF XES/XAS/RIXS spectra                ...  NO


-------------
DIPOLE MOMENT
-------------

Method             : SCF
Type of density    : Electron Density
Multiplicity       :   1
Irrep              :   0
Energy             :  -386.2481066738310460 Eh
Relativity type    : 
Basis              : AO
                                X                 Y                 Z
Electronic contribution:      1.846443334       1.074682301      -1.451415715
Nuclear contribution   :     -1.636817676      -2.122861705       1.594995534
                        -----------------------------------------
Total Dipole Moment    :      0.209625658      -1.048179404       0.143579819
                        -----------------------------------------
Magnitude (a.u.)       :      1.078535184
Magnitude (Debye)      :      2.741418574



--------------------
Rotational spectrum 
--------------------
 
Rotational constants in cm-1:             0.155005             0.034058             0.032799 
Rotational constants in MHz :          4646.930162          1021.040485           983.281542 

Dipole components along the rotational axes: 
x,y,z [a.u.] :     0.200557     0.748906     0.749770 
x,y,z [Debye]:     0.509774     1.903568     1.905763 

 

Dipole moment calculation done in   0.0 sec 

Maximum memory used throughout the entire PROP-calculation: 13.8 MB

--------------------------------
SUGGESTED CITATIONS FOR THIS RUN
--------------------------------

Below you find a list of papers that are relevant to this ORCA run
We neither can nor want to force you to cite these papers, but we appreciate if you do
You receive ORCA, which is the product of decades of hard work by many enthusiastic individuals, for free
The only thing we kindly ask in return is that you cite our papers,
We deeply appreciate it, if you show your appreciation for ORCA by not just citing the generic ORCA reference.

Please note that relegating all ORCA citations to the supporting information does *not* help us.
SI sections are not indexed - citations you put there will not count into any citation statistics
But we need these citations in order to attract the funding resources that allow us to do what we are doing

Therefore, if you are a happy ORCA user, please consider citing a few of the papers listed below in the main body of your paper

In addition to the list printed below, the program has created the file sp_solv.bibtex that contains the list in bibtex format
You can import this file easily into all common literature databanks and citation aid programs


List of essential papers. We consider these as the minimum necessary citations

  1. Neese,F.
     Software update: the ORCA program system, version 5.0
     WIRES Comput. Molec. Sci., 2022 12(1)e1606
     doi.org/10.1002/wcms.1606
  2. Grimme,S.; Hansen,A.; Ehlert,S.; Mewes,J.
     r2SCAN-3c: A 'Swiss army knife' composite electronic-structure method
     J. Chem. Phys., 2021 154 064103
     doi.org/10.1063/5.0040021

List of papers to cite with high priority. The work reported in these papers was absolutely
necessary for this run to complete.
Our perspective: the developers of density functionals and basis sets usually get cited in chemistry papers
Good! But without the algorithms to do something with them, the functionals or basis sets would not do anything.
Hence, in our opinion, the algorithm design and method developments papers are equally worthy of getting cited

  1. Neese,F.
     An improvement of the resolution of the identity approximation for the formation of the Coulomb matrix
     J. Comp. Chem., 2003 24(14)1740-1747
     doi.org/10.1002/jcc.10318
  2. Garcia-Rates,M.; Neese,F.
     Effect of the Solute Cavity on the Solvation Energy and its Derivatives within the Framework of the Gaussian Charge Scheme
     J. Comput. Chem., 2020 41 922-939
     doi.org/10.1002/jcc.26139
  3. Neese,F.
     The SHARK Integral Generation and Digestion System
     J. Comp. Chem., 2022  1-16
     doi.org/10.1002/jcc.26942
  4. Lehtola,S.; Steigemann,C.; Oliveira,M.; Marques,M.
     Recent developments in Libxc - A comprehensive library of functionals for density functional theory
     Software X, 2018 7 
     doi.org/10.1016/j.softx.2017.11.002
  5. Caldeweyher,E.; Bannwarth,C.; Grimme,S.
     Extension of the D3 dispersion coefficient model
     J. Chem. Phys., 2017 147 034112-XXXX
     doi.org/10.1063/1.4993215
  6. Caldeweyher,E.; Ehlert,S.; Hansen,A.; Neugebauer,H.; Spicher,S.; Bannwarth,C.; Grimme,S.
     A generally applicable atomic-charge dependent London dispersion correction
     J. Chem. Phys., 2019 150 154122-XXXX
     doi.org/10.1063/1.5090222
  7. Caldeweyher,E.; Mewes,J.; Ehlert,S.; Grimme,S.
     Extension and evaluation of the D4 London-dispersion model for periodic systems
     Phys. Chem. Chem. Phys., 2020 22(16)8499-8512
     doi.org/10.1039/D0CP00502A

List of suggested additional citations. These are papers that are important in the 'surrounding' of 
of this run, or papers that preceded the highly important papers. If you like your results we are grateful for a citation.

  1. Neese,F.
     The ORCA program system
     WIRES Comput. Molec. Sci., 2012 2(1)73-78
     doi.org/10.1002/wcms.81
  2. Neese,F.
     Software update: the ORCA program system, version 4.0
     WIRES Comput. Molec. Sci., 2018 8(1)1-6
     doi.org/10.1002/wcms.1327
  3. Neese,F.; Wennmohs,F.; Becker,U.; Riplinger,C.
     The ORCA quantum chemistry program package
     J. Chem. Phys., 2020 152 Art. No. L224108
     doi.org/10.1063/5.0004608

List of optional additional citations

  1. Neese,F.
     Approximate second-order SCF convergence for spin unrestricted wavefunctions
     Chem. Phys. Lett., 2000 325(1-3)93-98
     doi.org/10.1016/s0009-2614(00)00662-x

Timings for individual modules:

Sum of individual times          ...       38.147 sec (=   0.636 min)
Startup calculation              ...        1.565 sec (=   0.026 min)   4.1 %
SCF iterations                   ...       36.416 sec (=   0.607 min)  95.5 %
Property calculations            ...        0.166 sec (=   0.003 min)   0.4 %
                             ****ORCA TERMINATED NORMALLY****
TOTAL RUN TIME: 0 days 0 hours 0 minutes 39 seconds 77 msec
