20
 energy: -27.121085558362 gnorm: 0.034589147134 xtb: 6.7.1 (edcfbbe)
C           -3.70129801428796       -0.58943457800590        0.37959892382163
C           -2.47931663496671       -0.06963441066025       -0.37115072229928
C           -1.18990872248957       -0.39708284405974        0.37116903599057
C            0.04843721308017        0.08689635672367       -0.32804735884060
O            0.06971142495286        0.75088111138722       -1.35180151439398
O            1.16417751805157       -0.29840004433259        0.32082324444420
C            2.43704589279387        0.12769251088348       -0.26234455951350
C            3.53409099047802       -0.44262431557167        0.59979687266071
H           -3.76989340015973       -0.14055844016664        1.37660069851893
H           -4.62392910064431       -0.35422671137316       -0.15964852963266
H           -3.65247645463671       -1.67674340712493        0.50475741027794
H           -2.55599725117621        1.01510505425970       -0.50483728623661
H           -2.44129213119175       -0.51014400901128       -1.37390320277460
H           -1.08676561991618       -1.47847588517549        0.52454572246681
H           -1.19271092686466        0.04832581429033        1.37479864405667
H            2.48813437335592       -0.24599217147509       -1.28929624274131
H            2.45734793323126        1.22161630577526       -0.28134913997917
H            3.46033361298352       -0.07382903065492        1.62688329903500
H            3.49772204566471       -1.53577006067891        0.61052717769036
H            4.50237705657662       -0.13549885180509        0.19368625385563
20
 energy: -27.122117488012 gnorm: 0.013138430887 xtb: 6.7.1 (edcfbbe)
C           -3.69488982516928       -0.58883078911194        0.37976764959194
C           -2.47402889928611       -0.07134022490354       -0.36865116255478
C           -1.18667323867453       -0.40130830733394        0.37802654833390
C            0.04631381979478        0.08799673423113       -0.32802851691901
O            0.06483559151998        0.74692798479621       -1.34681894131803
O            1.15751045767818       -0.29140553340907        0.31066582780268
C            2.42701735748332        0.12368251315549       -0.25766391652996
C            3.53682669510168       -0.44219325138664        0.59901565241094
H           -3.76009511865730       -0.13790182842729        1.36927927864701
H           -4.60610366879263       -0.34910113934882       -0.16493755390422
H           -3.64346130742894       -1.67041021397698        0.49945888292141
H           -2.54736319120937        1.01093908306133       -0.49986774905413
H           -2.43427767868933       -0.51256582709134       -1.36764091566146
H           -1.08374261099997       -1.48054794854246        0.52278871299942
H           -1.19248413667006        0.04906073159288        1.37558689642212
H            2.47272024155728       -0.24615153046735       -1.28563632224749
H            2.44304700375286        1.21683408712644       -0.28036411208799
H            3.45185783828608       -0.07660578128073        1.61986320293919
H            3.48925954641822       -1.52875382959684        0.61222701906484
H            4.49952092881986       -0.13622253586256        0.19373824555035
20
 energy: -27.122305022379 gnorm: 0.004203660126 xtb: 6.7.1 (edcfbbe)
C           -3.69168556477787       -0.58779896520948        0.37915892524641
C           -2.46747129311494       -0.07310737650093       -0.36602546236060
C           -1.18172574328204       -0.40591136035270        0.38507611269117
C            0.04819952067852        0.08722830803033       -0.32694281619583
O            0.06229007373295        0.74568444125627       -1.34450270124208
O            1.15609231870996       -0.28765570485604        0.30569418573451
C            2.41801470289073        0.12354619603345       -0.25794706067740
C            3.53113630556374       -0.44285172033495        0.59971547887123
H           -3.75525176301778       -0.13592992089570        1.36521357695419
H           -4.59664045962012       -0.34463564911852       -0.16960770237073
H           -3.63982856420020       -1.66673710494418        0.49652087744708
H           -2.53544531991389        1.00826284826341       -0.49626471296098
H           -2.42400116219252       -0.51486251529408       -1.36303997478830
H           -1.07930756180544       -1.48385285327920        0.52336937556344
H           -1.18999306138784        0.04706796112185        1.37894134606164
H            2.46651322487857       -0.24422426769266       -1.28736079209896
H            2.43779996384334        1.21727008603080       -0.28326345093813
H            3.44075599774238       -0.07644795695276        1.61737773771223
H            3.47784777414526       -1.52686777682330        0.61269134010207
H            4.48849041596192       -0.13607427525761        0.19200444365574
20
 energy: -27.122323848037 gnorm: 0.001634780953 xtb: 6.7.1 (edcfbbe)
C           -3.69171876010379       -0.58724225709321        0.37867421142532
C           -2.46536027806777       -0.07416464734965       -0.36502970091053
C           -1.18026139481074       -0.40784204923135        0.38763618863472
C            0.04888458160107        0.08755963405590       -0.32561055977927
O            0.05930661641310        0.74606126579067       -1.34421402728970
O            1.15696317921875       -0.28608363921202        0.30467450706502
C            2.41586432376538        0.12433020636923       -0.25918418590432
C            3.52873893469662       -0.44297191066282        0.59977379860718
H           -3.75559795010283       -0.13493254965152        1.36467409295069
H           -4.59536657541494       -0.34255924620307       -0.17182330919390
H           -3.64107251779703       -1.66639061192113        0.49600072358711
H           -2.53096031322761        1.00733533864843       -0.49542888551640
H           -2.42015178536263       -0.51631948917908       -1.36178848245263
H           -1.07694492214870       -1.48563910412535        0.52413173841568
H           -1.18885467854370        0.04502871954772        1.38117152243109
H            2.46716470453672       -0.24285726096592       -1.28922051721410
H            2.43916520565422        1.21847653604635       -0.28575548589606
H            3.43669511779880       -0.07554556133090        1.61709809373232
H            3.47307294645313       -1.52703662710244        0.61281737487017
H            4.48622337027666       -0.13710435320583        0.19221162884433
20
 energy: -27.122327862709 gnorm: 0.000956593547 xtb: 6.7.1 (edcfbbe)
C           -3.69249882190611       -0.58631563210971        0.37812778432625
C           -2.46396453808653       -0.07545998713388       -0.36387658724880
C           -1.17929953203648       -0.40984680435337        0.38933437881065
C            0.04933640541650        0.08727178701772       -0.32479092112842
O            0.05508378809086        0.74726237081103       -1.34346856874773
O            1.15870004147372       -0.28419186850416        0.30353790477958
C            2.41540499446407        0.12588603487778       -0.26078319947638
C            3.52713752136803       -0.44279622921465        0.59973132394589
H           -3.75739552412973       -0.13376294274962        1.36450923499948
H           -4.59531765442008       -0.34006659653993       -0.17384486963372
H           -3.64436310085845       -1.66604446947160        0.49596635397539
H           -2.52750143996423        1.00624299457381       -0.49506335940510
H           -2.41777640340222       -0.51822951020370       -1.36052029909001
H           -1.07477282759399       -1.48780114541064        0.52424918111649
H           -1.18768806918960        0.04148247739813        1.38365244582378
H            2.46915750460830       -0.24114136575469       -1.29121968872814
H            2.44194283298537        1.22038894993694       -0.28859389390474
H            3.43423866510399       -0.07435603198636        1.61705863278316
H            3.46912552304790       -1.52716295055013        0.61331543196684
H            4.48624043986342       -0.13925668740895        0.19348744124224
20
 energy: -27.122328780637 gnorm: 0.000220702968 xtb: 6.7.1 (edcfbbe)
C           -3.69246486958098       -0.58618351219211        0.37825991429896
C           -2.46425601053031       -0.07567834920768       -0.36408758274804
C           -1.17955288752987       -0.40992293317421        0.38877177062569
C            0.04907911303610        0.08805301428086       -0.32452468195496
O            0.05523496488294        0.74740793117781       -1.34326650925189
O            1.15857233700092       -0.28399028775116        0.30369380945811
C            2.41602912700789        0.12590203020053       -0.26067705991301
C            3.52759787270190       -0.44272441208080        0.59965797886028
H           -3.75733463466313       -0.13357545451962        1.36453880565780
H           -4.59529882804502       -0.33987296963424       -0.17350869643166
H           -3.64472312126735       -1.66583078764844        0.49626944752449
H           -2.52805778199465        1.00597493366741       -0.49548752002505
H           -2.41863430556907       -0.51854311544763       -1.36071057528949
H           -1.07487431711005       -1.48798214746351        0.52367349420333
H           -1.18816672821058        0.04085521784318        1.38344118755866
H            2.46903212886111       -0.24126262149207       -1.29096355613528
H            2.44196204604531        1.22027717498713       -0.28817021100154
H            3.43519213807232       -0.07421294133472        1.61691658843848
H            3.46958514117951       -1.52699640952644        0.61353156369650
H            4.48686842054775       -0.13959196746027        0.19345055883534
20
 energy: -27.122328996241 gnorm: 0.000213037127 xtb: 6.7.1 (edcfbbe)
C           -3.69247223237176       -0.58578809401082        0.37844001453161
C           -2.46422198431121       -0.07592539711841       -0.36412273282917
C           -1.17952572391939       -0.41054008536579        0.38846501712435
C            0.04900122585052        0.08764235577438       -0.32482356518766
O            0.05514953653536        0.74796037884517       -1.34280715041946
O            1.15849422738077       -0.28393430764720        0.30366193895610
C            2.41620153757367        0.12623518600330       -0.26050653342060
C            3.52768525815227       -0.44255605856772        0.59967592684470
H           -3.75705892730739       -0.13301481733855        1.36459302912347
H           -4.59517435374080       -0.33913043817643       -0.17330489354409
H           -3.64525139526885       -1.66538505504895        0.49657845411242
H           -2.52765223889640        1.00570550018822       -0.49582362905173
H           -2.41904950295113       -0.51904255193269       -1.36064072000898
H           -1.07482097701049       -1.48869816557660        0.52258926007307
H           -1.18816187639135        0.03942478754834        1.38353411240760
H            2.46894677754673       -0.24092592330490       -1.29075502063558
H            2.44183470941918        1.22056313702754       -0.28781667467019
H            3.43561375292654       -0.07383589940420        1.61683132963766
H            3.46927161762006       -1.52675062906035        0.61379252028388
H            4.48698037399841       -0.13990152961033        0.19324804307932
20
 energy: -27.122329266790 gnorm: 0.000162432199 xtb: 6.7.1 (edcfbbe)
C           -3.69258157574787       -0.58523337030007        0.37862547215502
C           -2.46405680154522       -0.07642912941681       -0.36422600138983
C           -1.17939053775366       -0.41151454995781        0.38820702800782
C            0.04899462730175        0.08781410971591       -0.32458720322874
O            0.05489754928386        0.74853008343220       -1.34233504397590
O            1.15852011585745       -0.28373654047239        0.30372939152725
C            2.41621495198535        0.12664327370910       -0.26042656239584
C            3.52761980760219       -0.44239570871902        0.59968001512680
H           -3.75672289699207       -0.13213664759081        1.36465572732484
H           -4.59514542817149       -0.33804588823845       -0.17312028526392
H           -3.64609701095867       -1.66482905392932        0.49702790560976
H           -2.52677452288063        1.00520743120735       -0.49628589486999
H           -2.41928103471207       -0.51989308071385       -1.36061203232780
H           -1.07438405983146       -1.48977706205206        0.52122327059586
H           -1.18821909992145        0.03745618080655        1.38370815634928
H            2.46890525464305       -0.24031216273456       -1.29075482958740
H            2.44182738248436        1.22097074119988       -0.28748835478781
H            3.43596752712661       -0.07325127551754        1.61672172970306
H            3.46853663698027       -1.52654873607128        0.61418173809798
H            4.48695892008445       -0.14041622113302        0.19288449973628
20
 energy: -27.122329566913 gnorm: 0.000076327588 xtb: 6.7.1 (edcfbbe)
C           -3.69277240837216       -0.58429954345579        0.37899208005863
C           -2.46395566740917       -0.07703779336830       -0.36453721591360
C           -1.17929315506915       -0.41305655092622        0.38758197632736
C            0.04904815496232        0.08766338939274       -0.32438131114979
O            0.05476624346020        0.74900000844223       -1.34180673623442
O            1.15859265835401       -0.28388901887392        0.30380580401371
C            2.41611884575360        0.12724327023718       -0.26010171438642
C            3.52764764602724       -0.44209985466291        0.59971434328760
H           -3.75605439888412       -0.13077325478764        1.36491654060188
H           -4.59530877328470       -0.33637094461973       -0.17249618426702
H           -3.64735380030684       -1.66393155235741        0.49776392104296
H           -2.52553940146785        1.00462641898225       -0.49697217742981
H           -2.41995988997957       -0.52095600685739       -1.36076149324089
H           -1.07397860432080       -1.49147185598849        0.51893735713256
H           -1.18826691245485        0.03446976172126        1.38370857294499
H            2.46900450055894       -0.23899749518175       -1.29069354336361
H            2.44151474614163        1.22160418116617       -0.28647866899055
H            3.43673877124805       -0.07252577743368        1.61669806331380
H            3.46786824199029       -1.52623265475568        0.61461540448532
H            4.48697300788765       -0.14086233344891        0.19230370817402
20
 energy: -27.122329797303 gnorm: 0.000098209748 xtb: 6.7.1 (edcfbbe)
C           -3.69296200234035       -0.58302063815966        0.37954543952827
C           -2.46389289797941       -0.07777738487043       -0.36495457695582
C           -1.17921417562103       -0.41514849045397        0.38654970330764
C            0.04909277776505        0.08714946492788       -0.32439779763961
O            0.05473691733355        0.74952385803108       -1.34117034711557
O            1.15865215006547       -0.28429642365990        0.30378508955254
C            2.41602284193107        0.12803622616645       -0.25951271510751
C            3.52777230941188       -0.44167315977812        0.59978818643970
H           -3.75500991430499       -0.12888332884150        1.36526966571168
H           -4.59550284731194       -0.33413897369235       -0.17151829874814
H           -3.64889837498631       -1.66265060379670        0.49885736504686
H           -2.52406402664290        1.00391132308248       -0.49781394900361
H           -2.42111021118325       -0.52219692587537       -1.36099813616624
H           -1.07378288834150       -1.49380650062797        0.51576617154009
H           -1.18830228843395        0.03043310117681        1.38353638769257
H            2.46922015186875       -0.23713309235484       -1.29047455652818
H            2.44092922093358        1.22244323514966       -0.28479373695416
H            3.43785099111662       -0.07170149554535        1.61671526105092
H            3.46726211073536       -1.52576528343657        0.61506944662868
H            4.48698996081902       -0.14120251421762        0.19156012412661
20
 energy: -27.122329877377 gnorm: 0.000052174273 xtb: 6.7.1 (edcfbbe)
C           -3.69300563118520       -0.58236639244091        0.37988572324448
C           -2.46391360477716       -0.07807026386291       -0.36520056260319
C           -1.17921560160824       -0.41620468972264        0.38591109211571
C            0.04908187922951        0.08672450966649       -0.32456186033906
O            0.05475707548021        0.74967073683407       -1.34094148642291
O            1.15866578186927       -0.28465413257540        0.30368135221676
C            2.41598055176399        0.12840296796970       -0.25916862838332
C            3.52787080088866       -0.44144295080698        0.59985769597814
H           -3.75446142375764       -0.12788530177243        1.36548809671763
H           -4.59558551474314       -0.33311264279191       -0.17092886932746
H           -3.64958593502663       -1.66197840512703        0.49952828304037
H           -2.52342197263781        1.00364318729995       -0.49817320591503
H           -2.42183443747795       -0.52263672740717       -1.36120900595586
H           -1.07383818449175       -1.49499126950332        0.51412259236420
H           -1.18823921058186        0.02841137839731        1.38333859612871
H            2.46942275271740       -0.23610353643203       -1.29035224825005
H            2.44053424137224        1.22283417576358       -0.28378415959948
H            3.43835040111007       -0.07147206247995        1.61681389135010
H            3.46720624006183       -1.52552042650944        0.61516157789291
H            4.48702159662895       -0.14114576127497        0.19133985215407
