16
 energy: -17.083697018407 gnorm: 0.020704872107 xtb: 6.7.1 (edcfbbe)
C            2.10931032382409       -0.28717339665359        0.61379200441243
C            1.38224783534469        0.43941134368232       -0.51661043495581
C           -0.04291265516271       -0.06585792995025       -0.75623454914776
C           -0.96531028001488        0.12446574676119        0.44007636799211
N           -2.34917191782380       -0.26057346655352        0.09623990856752
H            2.11569070814830       -1.36992972472131        0.44178093317993
H            3.14972429075782        0.04548491114050        0.68984070329289
H            1.63537598789415       -0.10629315703290        1.58387909476735
H            1.35293083047310        1.51568598754785       -0.30118889149476
H            1.95485134184986        0.32505302453160       -1.44480589583473
H           -0.47172372445931        0.46908380863184       -1.61511102718482
H           -0.01589073144033       -1.13003335961805       -1.02742038339236
H           -0.88703320013179        1.16947506715767        0.78534947033752
H           -0.63634314030754       -0.50776531323013        1.27207973735759
H           -2.67677422041754        0.37301872100996       -0.62841365665573
H           -2.94348549450601       -0.07425325352332        0.89859875027329
16
 energy: -17.084400453847 gnorm: 0.008577831320 xtb: 6.7.1 (edcfbbe)
C            2.10618813782828       -0.29030660999709        0.61031333823508
C            1.38183074087498        0.44073148370643       -0.51235383678075
C           -0.03950787210773       -0.06727042342681       -0.75375603917828
C           -0.96130332243729        0.13313312689992        0.44412488344939
N           -2.33386157076158       -0.25135967224556        0.09906904249468
H            2.10655199657892       -1.36521727447013        0.43032119793389
H            3.14024975233728        0.04628354142780        0.67513718887912
H            1.63144068533711       -0.10389566717320        1.57224858490892
H            1.35074000973646        1.51156147552654       -0.28676231229265
H            1.95119596808531        0.31907772266100       -1.43795245517904
H           -0.46195126916505        0.46735574806593       -1.61088599117394
H           -0.01696222996773       -1.12913613123795       -1.01295238349898
H           -0.89213892143680        1.18081126056214        0.78352893754066
H           -0.64678530112016       -0.50870882708381        1.27173022815508
H           -2.66816010173739        0.36207612597549       -0.64031184284077
H           -2.93604074801653       -0.08533687001086        0.90035359086227
16
 energy: -17.084528757353 gnorm: 0.003014582736 xtb: 6.7.1 (edcfbbe)
C            2.10788291516474       -0.29389116654668        0.60857495030980
C            1.38320161935624        0.44212113867160       -0.51129945668509
C           -0.03837998807133       -0.06510377152983       -0.75086885222630
C           -0.96329952380822        0.14082568099071        0.44613768197802
N           -2.32831781508052       -0.24662052985398        0.10030407696149
H            2.10352427192703       -1.36475551118040        0.42345277270950
H            3.13993206796120        0.04155520507049        0.66950722303604
H            1.63374557844817       -0.10725593390378        1.56770813374423
H            1.34917213631077        1.50936438731947       -0.27949396977149
H            1.94928568908798        0.32227510851621       -1.43736671594117
H           -0.45995244725182        0.46566639007339       -1.60823349024457
H           -0.01804444314550       -1.12679596101345       -0.99859430685166
H           -0.89093190369265        1.19027891885044        0.78025113633464
H           -0.65176167560774       -0.50083469806967        1.27322765417981
H           -2.66797154450223        0.34893442388301       -0.65037882886056
H           -2.93659898306805       -0.09596467209767        0.89892412284199
16
 energy: -17.084553538269 gnorm: 0.001567521675 xtb: 6.7.1 (edcfbbe)
C            2.10962128933070       -0.29653055731443        0.60709531871642
C            1.38292642264783        0.44393722787130       -0.50996786290164
C           -0.03842865113066       -0.06477308835447       -0.74923765515998
C           -0.96538263603834        0.14567599717870        0.44689854861698
N           -2.32689604895226       -0.24602258370358        0.10039478987472
H            2.10309326763465       -1.36679405499490        0.41856285240768
H            3.14222043325821        0.03741890278599        0.66697322239900
H            1.63685010473599       -0.11159059225707        1.56721333632023
H            1.34847350656103        1.51015322478533       -0.27446666766631
H            1.94779104797145        0.32753312507039       -1.43700523128910
H           -0.45989160662963        0.46275710062380       -1.60841994975648
H           -0.01778803032799       -1.12744626113790       -0.99193567774245
H           -0.89221056793964        1.19699254937616        0.77695549660496
H           -0.65246041181867       -0.49116148758159        1.27706398995090
H           -2.66838151429844        0.34088132519371       -0.65497920002538
H           -2.93805065097615       -0.10123181836160        0.89670682116511
16
 energy: -17.084571037554 gnorm: 0.001461014513 xtb: 6.7.1 (edcfbbe)
C            2.11226157595857       -0.30056415097264        0.60449525681481
C            1.38260678191929        0.44620307759777       -0.50771007355144
C           -0.03826618176563       -0.06406647244639       -0.74676762953382
C           -0.96879763385145        0.15260984509456        0.44663956759121
N           -2.32644326472023       -0.24746907092482        0.10084030633928
H            2.10325403107484       -1.37060671085406        0.41096320125809
H            3.14629328991466        0.03088025438804        0.66361706092001
H            1.64239787064949       -0.11968520253538        1.56757449866336
H            1.34725769415240        1.51118673420155       -0.26571180098145
H            1.94667831651109        0.33704115514509       -1.43645704559950
H           -0.45937032195261        0.45765866296408       -1.61007610890896
H           -0.01622131552048       -1.12857674293834       -0.98305516586869
H           -0.89756674368035        1.20753404091923        0.76861487218233
H           -0.65208212720949       -0.47406244882557        1.28373409687240
H           -2.66993546635473        0.32976681539111       -0.65923093951259
H           -2.94058055109727       -0.10805077702437        0.89438203482958
16
 energy: -17.084580760568 gnorm: 0.001144122669 xtb: 6.7.1 (edcfbbe)
C            2.11330027573549       -0.30281361019291        0.60302525203010
C            1.38232142308386        0.44695778689321       -0.50575883596688
C           -0.03803614845562       -0.06360597665622       -0.74566590996655
C           -0.96971493792201        0.15632511312993        0.44576834476546
N           -2.32607059332221       -0.25020946837385        0.10139530528534
H            2.10404640235021       -1.37252759583605        0.40701604152212
H            3.14761490773674        0.02806407238684        0.66187342852089
H            1.64511971414891       -0.12474870047985        1.56757458171668
H            1.34648762509830        1.51133922386937       -0.26045371776895
H            1.94608361968610        0.34142776344250       -1.43523483420002
H           -0.45815939797297        0.45564495989554       -1.61111524712247
H           -0.01564777339843       -1.12883594312409       -0.97955811856247
H           -0.90272896931505        1.21335966545787        0.76209818343187
H           -0.65116028906859       -0.46448400627032        1.28676142319392
H           -2.67123724617880        0.32400423490897       -0.66034147014650
H           -2.94073265817784       -0.11009850987109        0.89446770478212
16
 energy: -17.084592240174 gnorm: 0.000543871798 xtb: 6.7.1 (edcfbbe)
C            2.11422371999989       -0.30567463594697        0.60167300122700
C            1.38270800173574        0.44743725710107       -0.50369882866512
C           -0.03754162341751       -0.06253653425514       -0.74476554264631
C           -0.97046505916737        0.16088434269813        0.44420606802614
N           -2.32557904579342       -0.25493212502232        0.10272853619299
H            2.10508499356066       -1.37459628774786        0.40204056971297
H            3.14840696476341        0.02523835403228        0.66070574505666
H            1.64714016996443       -0.13128449853200        1.56735781932361
H            1.34608677353669        1.51079033603842       -0.25415331850113
H            1.94620563414237        0.34606962626032       -1.43382474749655
H           -0.45557511096352        0.45460919643773       -1.61245325164409
H           -0.01571623775176       -1.12835574383543       -0.97580880027896
H           -0.91015134528170        1.22028333031111        0.75268990642111
H           -0.64960472789694       -0.45247021721889        1.28965095709743
H           -2.67391355429549        0.31601453885873       -0.66057708109213
H           -2.93982359910741       -0.11167792999935        0.89608109878102
16
 energy: -17.084601059934 gnorm: 0.000613079579 xtb: 6.7.1 (edcfbbe)
C            2.11531161992477       -0.30913575476548        0.60030530195752
C            1.38284561925649        0.44835174779627       -0.50133223121846
C           -0.03731875836233       -0.06121891493888       -0.74419033369122
C           -0.97124622366185        0.16647622665823        0.44291364275055
N           -2.32443104349175       -0.25980055070026        0.10447566333721
H            2.10645482271368       -1.37715684174244        0.39652100067024
H            3.14929050955362        0.02192540179157        0.66021532695293
H            1.64865992747598       -0.13872243993738        1.56675132347375
H            1.34594015142354        1.51071885989554       -0.24785200489320
H            1.94590541301323        0.35044497414860       -1.43195785099206
H           -0.45329151485941        0.45406086395734       -1.61389398941245
H           -0.01608350786319       -1.12764682673688       -0.97216662258870
H           -0.91774010949408        1.22843445771129        0.74295680203144
H           -0.64740353243251       -0.43883450851273        1.29292047886176
H           -2.67680726931524        0.30562546394415       -0.66156394800171
H           -2.93860014985288       -0.11372314938910        0.89774957227704
16
 energy: -17.084607611263 gnorm: 0.000607917950 xtb: 6.7.1 (edcfbbe)
C            2.11604920978022       -0.31184977040260        0.59928869840747
C            1.38352247097926        0.44891456402366       -0.50007466911233
C           -0.03699194385585       -0.05966024826923       -0.74338102945665
C           -0.97238444624279        0.17098516989911        0.44202446450471
N           -2.32371604764591       -0.26357544293779        0.10641505926413
H            2.10769216559032       -1.37905455195085        0.39150597770054
H            3.14982109755882        0.01955801089535        0.66017489348301
H            1.64937999615599       -0.14517865964863        1.56636893307247
H            1.34676151210787        1.51041957137076       -0.24328332849383
H            1.94632619187042        0.35362291341335       -1.43112395203727
H           -0.45144790350027        0.45423232222723       -1.61455405786387
H           -0.01649410149908       -1.12652778474772       -0.96895907181812
H           -0.92381776593838        1.23493175628040        0.73529196708459
H           -0.64593455092864       -0.42753044266936        1.29575533092553
H           -2.67899846691053        0.29592788632197       -0.66267070285083
H           -2.93828146349337       -0.11541628462583        0.89907361870511
16
 energy: -17.084613557889 gnorm: 0.000423866731 xtb: 6.7.1 (edcfbbe)
C            2.11681597752148       -0.31437946953148        0.59832330655467
C            1.38375080161223        0.44945932880755       -0.49876705309134
C           -0.03710714271838       -0.05802721187708       -0.74268909707458
C           -0.97332165050855        0.17524017303473        0.44169778580775
N           -2.32255057418328       -0.26679164723761        0.10828168115664
H            2.10936866649698       -1.38087263352345        0.38685045898493
H            3.15030802193932        0.01770756813431        0.66066116190727
H            1.64966118068182       -0.15139973373265        1.56576486569552
H            1.34770585017037        1.51037929337403       -0.23965463419273
H            1.94601211907591        0.35587390575541       -1.43026985335612
H           -0.45044656104398        0.45489952680473       -1.61496107161312
H           -0.01741963524705       -1.12531050474749       -0.96631333420493
H           -0.92883173268920        1.24091507099557        0.72915077641906
H           -0.64440402680208       -0.41719722848583        1.29863258417696
H           -2.67997707586684        0.28591831958972       -0.66457013044915
H           -2.93807826441068       -0.11661574818062        0.89971468479382
16
 energy: -17.084619006492 gnorm: 0.000257546747 xtb: 6.7.1 (edcfbbe)
C            2.11747956063686       -0.31690049794713        0.59718138071393
C            1.38412713804715        0.45000923762370       -0.49770447731085
C           -0.03714336917149       -0.05641600544806       -0.74155334285714
C           -0.97435866931352        0.17943235666384        0.44167873573247
N           -2.32149582009981       -0.26992371541588        0.11045695519433
H            2.11163838548642       -1.38268157288429        0.38185264423358
H            3.15051410811083        0.01634690925960        0.66126370872438
H            1.64961788048156       -0.15807872594560        1.56500788411913
H            1.34892431130633        1.51045165550310       -0.23636375993235
H            1.94576864560491        0.35796541379081       -1.42977280164813
H           -0.44949982625903        0.45581156669203       -1.61470593596483
H           -0.01842416739113       -1.12405233219942       -0.96373935209422
H           -0.93388722146991        1.24683393598856        0.72368958542742
H           -0.64293669261687       -0.40709774748337        1.30172379186543
H           -2.68029777206567        0.27493937835536       -0.66719160216260
H           -2.93854053725855       -0.11684084737343        0.90002871747410
16
 energy: -17.084623532663 gnorm: 0.000188136192 xtb: 6.7.1 (edcfbbe)
C            2.11851596274967       -0.31920719348624        0.59604772626439
C            1.38426613023720        0.45030338722855       -0.49642606499457
C           -0.03748683620195       -0.05466024542862       -0.74053829632752
C           -0.97538509322277        0.18325862828773        0.44172872982007
N           -2.32052530609342       -0.27303946353305        0.11266023117822
H            2.11445266192684       -1.38418410308148        0.37657133544781
H            3.15105056101262        0.01539447820679        0.66199814296942
H            1.64983596162846       -0.16494940046941        1.56423751683269
H            1.34989637058115        1.51020601342609       -0.23281354708417
H            1.94516400536015        0.36001638631018       -1.42913445712492
H           -0.44895756164147        0.45667044454826       -1.61473778154027
H           -0.01959741899487       -1.12269012725640       -0.96100811605925
H           -0.93885922031292        1.25227349905239        0.71838448745535
H           -0.64174888114549       -0.39748093965522        1.30490228889399
H           -2.67995498741658        0.26377981212138       -0.67008817233130
H           -2.93918039443854       -0.11589216709110        0.90006810811470
16
 energy: -17.084626864893 gnorm: 0.000174575201 xtb: 6.7.1 (edcfbbe)
C            2.11918164164139       -0.32140750061454        0.59481372348583
C            1.38435772435207        0.45096481929733       -0.49528642096841
C           -0.03751579026805       -0.05368721428941       -0.73930864304650
C           -0.97622085600827        0.18661602741041        0.44182047694599
N           -2.31973160979885       -0.27565705899711        0.11464904186124
H            2.11712510413391       -1.38566018687068        0.37172363726379
H            3.15108833339181        0.01478348181107        0.66229578634423
H            1.64996317051580       -0.17133142720781        1.56339060898584
H            1.35032354896050        1.51035954423890       -0.22946499889511
H            1.94456271706620        0.36250767456060       -1.42860003803026
H           -0.44811139340822        0.45684943032410       -1.61436272281477
H           -0.02027725483692       -1.12205049742107       -0.95839503628671
H           -0.94314616184604        1.25693774378628        0.71390820958759
H           -0.64076190996291       -0.38919521543528        1.30755986699663
H           -2.67945340342830        0.25388622372862       -0.67284933869219
H           -2.93989790647604       -0.11411683514158        0.89995797877744
16
 energy: -17.084629138690 gnorm: 0.000132091308 xtb: 6.7.1 (edcfbbe)
C            2.12010470693513       -0.32298842742650        0.59381208646065
C            1.38432147605815        0.45131555442124       -0.49422358729469
C           -0.03764913154779       -0.05302250079931       -0.73843549209445
C           -0.97694508233442        0.18909371199090        0.44181987116560
N           -2.31933361319311       -0.27755098314488        0.11617136009293
H            2.11948816290968       -1.38655782079267        0.36755393004143
H            3.15156007216052        0.01435042171027        0.66250483220549
H            1.65043742636502       -0.17645169204231        1.56270327045498
H            1.35016215356620        1.51014399573095       -0.22619026475953
H            1.94408659071137        0.36489703764073       -1.42799906067361
H           -0.44766657274104        0.45643225101276       -1.61441544752019
H           -0.02055094799510       -1.12168038821404       -0.95602740522246
H           -0.94652004270239        1.26045303210121        0.71011898863020
H           -0.64022237888023       -0.38287591056750        1.30964131165845
H           -2.67913306852856        0.24642859269341       -0.67498219938679
H           -2.94065379675534       -0.11218786513444        0.89979993775659
16
 energy: -17.084630745706 gnorm: 0.000129561819 xtb: 6.7.1 (edcfbbe)
C            2.12084508352272       -0.32429273148295        0.59291523378212
C            1.38419367176269        0.45182587477967       -0.49324079477650
C           -0.03764585933960       -0.05280305542548       -0.73766640993991
C           -0.97755161764652        0.19094021504070        0.44171922919065
N           -2.31912571577808       -0.27887048904157        0.11719654760707
H            2.12149259063606       -1.38730121142481        0.36406012529055
H            3.15189721381527        0.01408728894004        0.66235441179632
H            1.65108610516432       -0.18070942089834        1.56219332191176
H            1.34963936018833        1.51013003596474       -0.22325930079444
H            1.94354516252770        0.36740795482844       -1.42743112351116
H           -0.44714804607188        0.45542885786156       -1.61461134159426
H           -0.02048658386017       -1.12179734604844       -0.95362991103964
H           -0.94900271842432        1.26307682641117        0.70693175306448
H           -0.64014171678414       -0.37794475156143        1.31130132759673
H           -2.67886863253080        0.24111641429861       -0.67653890616939
H           -2.94124234315350       -0.11049545306209        0.89955796910025
16
 energy: -17.084631898147 gnorm: 0.000085000640 xtb: 6.7.1 (edcfbbe)
C            2.12162427337037       -0.32526839297508        0.59213069352576
C            1.38405714529476        0.45216989011921       -0.49241916000053
C           -0.03761986619904       -0.05288065522078       -0.73695270205802
C           -0.97810792977179        0.19247758317654        0.44162207614687
N           -2.31908149494835       -0.27967199432934        0.11782990431027
H            2.12322157381773       -1.38780032379806        0.36113731799158
H            3.15236843125849        0.01393841002073        0.66214844826760
H            1.65178905506926       -0.18411260737874        1.56171623234190
H            1.34895189606421        1.50998605491997       -0.22062831407934
H            1.94314729322153        0.36964490988781       -1.42693078913940
H           -0.44680005977919        0.45415696832857       -1.61471159853554
H           -0.02018229920844       -1.12212413161926       -0.95155911230122
H           -0.95092731721560        1.26522557828399        0.70445191173467
H           -0.64021523071224       -0.37407292853511        1.31252486569701
H           -2.67892206971193        0.23744577476185       -0.67779821913050
H           -2.94181744652169       -0.10931512646249        0.89929057674350
16
 energy: -17.084632769319 gnorm: 0.000091112713 xtb: 6.7.1 (edcfbbe)
C            2.12231432407908       -0.32611932373163        0.59142861790839
C            1.38391896917545        0.45257338737786       -0.49167042931303
C           -0.03755582742353       -0.05301080089118       -0.73631795870120
C           -0.97862740966691        0.19365570896782        0.44149854605466
N           -2.31911239720704       -0.28023132111352        0.11817073693151
H            2.12490900559964       -1.38825050349771        0.35859755903615
H            3.15275180523724        0.01390017043312        0.66187016902711
H            1.65251637598731       -0.18711896406802        1.56134608979078
H            1.34827806550344        1.50998245093443       -0.21838769621854
H            1.94271700078455        0.37169129851276       -1.42648911831999
H           -0.44641415451296        0.45277959573729       -1.61495707186625
H           -0.01985022798097       -1.12255033912408       -0.94944301596716
H           -0.95251898883530        1.26696220316369        0.70217124456985
H           -0.64056207268841       -0.37084503027290        1.31369424734824
H           -2.67896765471207        0.23497911815537       -0.67865155189115
H           -2.94231085931146       -0.10859864140347        0.89899176312528
16
 energy: -17.084633426991 gnorm: 0.000058822274 xtb: 6.7.1 (edcfbbe)
C            2.12299535042958       -0.32681438910701        0.59083379667520
C            1.38380239642629        0.45281457648579       -0.49101658534848
C           -0.03750560993651       -0.05320088875246       -0.73573665721423
C           -0.97912478233591        0.19482072142756        0.44134956853846
N           -2.31915838301053       -0.28064918183159        0.11837100871756
H            2.12651986080819       -1.38857360179902        0.35630103351198
H            3.15314274270769        0.01401850923432        0.66172407149012
H            1.65313335617873       -0.18982053685252        1.56100812206329
H            1.34773277444044        1.50986095191649       -0.21641450246345
H            1.94233351657152        0.37338526302594       -1.42611480628684
H           -0.44611137482914        0.45150176287941       -1.61510521366984
H           -0.01955978369557       -1.12298516068798       -0.94760396016945
H           -0.95387516673052        1.26855872102692        0.70027205151807
H           -0.64093348511099       -0.36793155861920        1.31460576710047
H           -2.67918818169016        0.23309800777547       -0.67936015910754
H           -2.94271727619504       -0.10828418694229        0.89873859615930
16
 energy: -17.084633924145 gnorm: 0.000045102674 xtb: 6.7.1 (edcfbbe)
C            2.12357480889911       -0.32747748241811        0.59028303224074
C            1.38373158333143        0.45303804828200       -0.49048063265974
C           -0.03745779099172       -0.05331015425918       -0.73520454355749
C           -0.97955981719534        0.19582698422211        0.44125550689011
N           -2.31917656298706       -0.28100397159831        0.11853240074247
H            2.12810782609772       -1.38889786063302        0.35425862174063
H            3.15340468788828        0.01419015157879        0.66173685528667
H            1.65352524683197       -0.19232840239970        1.56061733615673
H            1.34728982878452        1.50978934109842       -0.21478164108313
H            1.94205573617565        0.37478724486206       -1.42580032700980
H           -0.44580641121251        0.45040800254948       -1.61525092912019
H           -0.01933138598803       -1.12330250709156       -0.94594118423077
H           -0.95517685733749        1.27002336010768        0.69844556213490
H           -0.64121657911485       -0.36529735272469        1.31552454921467
H           -2.67942439410201        0.23155944519719       -0.67989739350116
H           -2.94305396505159       -0.10820583759332        0.89855491826998
16
 energy: -17.084634321924 gnorm: 0.000045157106 xtb: 6.7.1 (edcfbbe)
C            2.12408995564567       -0.32809215683483        0.58983199692281
C            1.38368310927576        0.45320158874801       -0.48997231886062
C           -0.03741069465206       -0.05339424747953       -0.73477603526110
C           -0.97997037456438        0.19690003844728        0.44107490186339
N           -2.31916139173582       -0.28141502927471        0.11872728336066
H            2.12969456653237       -1.38916805635828        0.35224294266089
H            3.15358857499916        0.01444910690226        0.66191416946303
H            1.65376352147091       -0.19483186667673        1.56030389254903
H            1.34701176414075        1.50968701861771       -0.21329391792937
H            1.94177286423688        0.37598961078880       -1.42551556736768
H           -0.44550060191466        0.44947184754693       -1.61542794767335
H           -0.01921014513234       -1.12360576822345       -0.94444462999611
H           -0.95640035382989        1.27147844923979        0.69669445781845
H           -0.64148980464574       -0.36263866510552        1.31628977535709
H           -2.67969298875039        0.23004421927527       -0.68027469443952
H           -2.94328204704813       -0.10827708043316        0.89847782304700
16
 energy: -17.084634626972 gnorm: 0.000051684950 xtb: 6.7.1 (edcfbbe)
C            2.12448609438958       -0.32870031787623        0.58940856792558
C            1.38366767771400        0.45333721737742       -0.48956872096472
C           -0.03738364604869       -0.05336220021388       -0.73439398691906
C           -0.98029911291763        0.19786434450351        0.44096767551480
N           -2.31908805880971       -0.28183532444021        0.11900413924447
H            2.13110409543113       -1.38946136261727        0.35047550233355
H            3.15365534353016        0.01467949719358        0.66222461162688
H            1.65377724064900       -0.19713465840284        1.55991116274800
H            1.34681354025774        1.50959658456453       -0.21205455771478
H            1.94160892074680        0.37697707913172       -1.42526993528987
H           -0.44520751406829        0.44880072731618       -1.61556397837755
H           -0.01915070473739       -1.12372864922419       -0.94319922569207
H           -0.95755180144497        1.27283230683561        0.69503579894942
H           -0.64154676951317       -0.36016534276174        1.31705051616775
H           -2.67996792519980        0.22842234091575       -0.68066670177500
H           -2.94343142595068       -0.10832323312211        0.89849126373721
16
 energy: -17.084634741217 gnorm: 0.000029767634 xtb: 6.7.1 (edcfbbe)
C            2.12466779431065       -0.32892947572701        0.58927581977044
C            1.38369811054355        0.45341083913120       -0.48939773144624
C           -0.03738955766742       -0.05322980573835       -0.73419642308425
C           -0.98047771042202        0.19827392363650        0.44098334280438
N           -2.31903458727419       -0.28210469355662        0.11912220750133
H            2.13134872256988       -1.38959488185641        0.34991792329734
H            3.15383045662922        0.01446616179218        0.66209385514897
H            1.65404962694966       -0.19776968026483        1.55987726151777
H            1.34692692747691        1.50962237555105       -0.21167847675430
H            1.94152132844321        0.37719831301982       -1.42518281063742
H           -0.44515923103065        0.44881138366995       -1.61546186690497
H           -0.01917561919214       -1.12363689999256       -0.94282477599547
H           -0.95813384232582        1.27337332698545        0.69451929386353
H           -0.64164187886105       -0.35918709346091        1.31737935656239
H           -2.67995389770100        0.22740951268438       -0.68094845388566
H           -2.94359068842073       -0.10831429669400        0.89837360975678
16
 energy: -17.084634848327 gnorm: 0.000037107122 xtb: 6.7.1 (edcfbbe)
C            2.12475910847162       -0.32918267389833        0.58915361817451
C            1.38371657157556        0.45345450211986       -0.48926073435445
C           -0.03741060426778       -0.05306838124290       -0.73408665236734
C           -0.98057713946523        0.19867732090293        0.44098486322425
N           -2.31891656155896       -0.28241219236623        0.11933788973374
H            2.13159953100026       -1.38975598027503        0.34938835105914
H            3.15386886715896        0.01434113990893        0.66212114334465
H            1.65409899695721       -0.19845839658651        1.55979095681373
H            1.34701713526570        1.50959233980922       -0.21126435334426
H            1.94145212479832        0.37745532634776       -1.42511826529135
H           -0.44504886371677        0.44888654932623       -1.61546645465887