
                                 *****************
                                 * O   R   C   A *
                                 *****************

                                            #,                                       
                                            ###                                      
                                            ####                                     
                                            #####                                    
                                            ######                                   
                                           ########,                                 
                                     ,,################,,,,,                         
                               ,,#################################,,                 
                          ,,##########################################,,             
                       ,#########################################, ''#####,          
                    ,#############################################,,   '####,        
                  ,##################################################,,,,####,       
                ,###########''''           ''''###############################       
              ,#####''   ,,,,##########,,,,          '''####'''          '####       
            ,##' ,,,,###########################,,,                        '##       
           ' ,,###''''                  '''############,,,                           
         ,,##''                                '''############,,,,        ,,,,,,###''
      ,#''                                            '''#######################'''  
     '                                                          ''''####''''         
             ,#######,   #######,   ,#######,      ##                                
            ,#'     '#,  ##    ##  ,#'     '#,    #''#        ,####,   ,####,        
            ##       ##  ##   ,#'  ##            #'  '#       #'       #'  '#        
            ##       ##  #######   ##           ,######,      #####,   #    #        
            '#,     ,#'  ##    ##  '#,     ,#' ,#      #,     #,   #   #,  ,#        
             '#######'   ##     ##  '#######'  #'      '#     '####' # '####'        



                #########################################################
                #                        -***-                          #
                #          Department of theory and spectroscopy        #
                #                                                       #
                #                      Frank Neese                      #
                #                                                       #
                #     Directorship, Architecture, Infrastructure        #
                #                    SHARK, DRIVERS                     #
                #        Core code/Algorithms in most modules           #
                #                                                       #
                #        Max Planck Institute fuer Kohlenforschung      #
                #                Kaiser Wilhelm Platz 1                 #
                #                 D-45470 Muelheim/Ruhr                 #
                #                      Germany                          #
                #                                                       #
                #                  All rights reserved                  #
                #                        -***-                          #
                #########################################################


                         Program Version 6.0.0  -   RELEASE  -


 With contributions from (in alphabetic order):
   Daniel Aravena         : Magnetic Suceptibility
   Michael Atanasov       : Ab Initio Ligand Field Theory (pilot matlab implementation)
   Alexander A. Auer      : GIAO ZORA, VPT2 properties, NMR spectrum
   Ute Becker             : All parallelization in ORCA, NUMFREQ, NUMCALC
   Giovanni Bistoni       : ED, misc. LED, open-shell LED, HFLD
   Martin Brehm           : Molecular dynamics
   Dmytro Bykov           : pre 5.0 version of the SCF Hessian
   Marcos Casanova-Páez   : Triplet and SCS-CIS(D). UHF-(DLPNO)-IP/EA/STEOM-CCSD. UHF-CVS-IP/STEOM-CCSD
   Vijay G. Chilkuri      : MRCI spin determinant printing, contributions to CSF-ICE
   Pauline Colinet        : FMM embedding
   Dipayan Datta          : RHF DLPNO-CCSD density
   Achintya Kumar Dutta   : EOM-CC, STEOM-CC
   Nicolas Foglia         : Exact transition moments, OPA infrastructure, MCD improvements
   Dmitry Ganyushin       : Spin-Orbit,Spin-Spin,Magnetic field MRCI
   Miquel Garcia          : C-PCM and meta-GGA Hessian, CCSD/C-PCM, Gaussian charge scheme
   Tiago L. C. Gouveia    : GS-ROHF, GS-ROCIS
   Yang Guo               : DLPNO-NEVPT2, F12-NEVPT2, CIM, IAO-localization
   Andreas Hansen         : Spin unrestricted coupled pair/coupled cluster methods
   Ingolf Harden          : AUTO-CI MPn and infrastructure 
   Benjamin Helmich-Paris : MC-RPA, TRAH-(SCF,CASSCF), AVAS, COSX integrals, SCF dyn. polar.
   Lee Huntington         : MR-EOM, pCC
   Robert Izsak           : Overlap fitted RIJCOSX, COSX-SCS-MP3, EOM
   Riya Kayal             : Wick's Theorem for AUTO-CI, AUTO-CI UHF-CCSDT
   Emily Kempfer          : AUTO-CI, RHF CISDT and CCSDT
   Christian Kollmar      : KDIIS, OOCD, Brueckner-CCSD(T), CCSD density, CASPT2, CASPT2-K, improved NEVPT2
   Axel Koslowski         : Symmetry handling
   Simone Kossmann        : Meta GGA functionals, TD-DFT gradient, OOMP2, (MP2 Hessian; deprecated post 5.0)
   Lucas Lang             : DCDCAS
   Marvin Lechner         : AUTO-CI (C++ implementation), FIC-MRCC
   Spencer Leger          : CASSCF response
   Dagmar Lenk            : GEPOL surface, SMD, ORCA-2-JSON
   Dimitrios Liakos       : Extrapolation schemes; Compound Job, initial MDCI parallelization
   Dimitrios Manganas     : Further ROCIS development; embedding schemes. LFT, Crystal Embedding
   Dimitrios Pantazis     : SARC Basis sets
   Anastasios Papadopoulos: AUTO-CI, single reference methods and gradients
   Taras Petrenko         : pre 6.0 DFT Hessian and TD-DFT gradient, (ASA, deprecated), ECA, 1-Electron XAS/XES, NRVS
   Peter Pinski           : DLPNO-MP2, DLPNO-MP2 Gradient
   Christoph Reimann      : Effective Core Potentials
   Marius Retegan         : Local ZFS, SOC
   Christoph Riplinger    : Optimizer, TS searches, QM/MM, DLPNO-CCSD(T), (RO)-DLPNO pert. Triples
   Michael Roemelt        : Original ROCIS implementation
   Masaaki Saitow         : Open-shell DLPNO-CCSD energy and density
   Barbara Sandhoefer     : DKH picture change effects
   Kantharuban Sivalingam : CASSCF convergence/infrastructure, NEVPT2 and variants, FIC-MRCI
   Bernardo de Souza      : ESD, SOC TD-DFT
   Georgi Stoychev        : AutoAux, RI-MP2 NMR, DLPNO-MP2 response, X2C
   Van Anh Tran           : RI-MP2 g-tensors
   Willem Van den Heuvel  : Paramagnetic NMR
   Zikuan Wang            : NOTCH, Electric field optimization 
   Frank Wennmohs         : Technical directorship and infrastructure
   Hang Xu                : AUTO-CI-Response properties 


 We gratefully acknowledge several colleagues who have allowed us to
 interface, adapt or use parts of their codes:
   Stefan Grimme, W. Hujo, H. Kruse, P. Pracht,  : VdW corrections, initial TS optimization,
                  C. Bannwarth, S. Ehlert,         DFT functionals, gCP, sTDA/sTD-DF
                  L. Wittmann, M. Mueller
   Ed Valeev, F. Pavosevic, A. Kumar             : LibInt (2-el integral package), F12 methods
   Garnet Chan, S. Sharma, J. Yang, R. Olivares  : DMRG
   Ulf Ekstrom                                   : XCFun DFT Library
   Mihaly Kallay                                 : mrcc  (arbitrary order and MRCC methods)
   Frank Weinhold                                : gennbo (NPA and NBO analysis)
   Simon Mueller                                 : openCOSMO-RS
   Christopher J. Cramer and Donald G. Truhlar   : smd solvation model
   Lars Goerigk                                  : TD-DFT with DH, B97 family of functionals
   V. Asgeirsson, H. Jonsson                     : NEB implementation
   FAccTs GmbH                                   : IRC, NEB, NEB-TS, DLPNO-Multilevel, CI-OPT
                                                   MM, QMMM, 2- and 3-layer-ONIOM, Crystal-QMMM,
                                                   LR-CPCM, SF, NACMEs, symmetry and pop. for TD-DFT,
                                                   nearIR, NL-DFT gradient (VV10), updates on ESD,
                                                   ML-optimized integration grids, MBIS, APM,
                                                   GOAT, DOCKER, SOLVATOR, interface openCOSMO-RS
   S Lehtola, MJT Oliveira, MAL Marques          : LibXC Library
   Liviu Ungur et al                             : ANISO software


 Your calculation uses the libint2 library for the computation of 2-el integrals
 For citations please refer to: http://libint.valeyev.net

 Your ORCA version has been built with support for libXC version: 6.2.2
 For citations please refer to: https://libxc.gitlab.io

 This ORCA versions uses:
   CBLAS   interface :  Fast vector & matrix operations
   LAPACKE interface :  Fast linear algebra routines
   SCALAPACK package :  Parallel linear algebra routines
   Shared memory     :  Shared parallel matrices
   BLAS/LAPACK       :  OpenBLAS 0.3.27  USE64BITINT DYNAMIC_ARCH NO_AFFINITY SkylakeX SINGLE_THREADED
        Core in use  :  SkylakeX
   Copyright (c) 2011-2014, The OpenBLAS Project


Your calculation utilizes the geometrical counterpoise correction gCP
Please cite in your paper:
H.Kruse, S. Grimme J.Chem.Phys., 136, (2012), 154101 
   

Your calculation utilizes the atom-pairwise dispersion correction
based on EEQ partial charges (D4)


================================================================================

----- Orbital basis set information -----
Your calculation utilizes the basis: def2-SV(P)
   F. Weigend and R. Ahlrichs, Phys. Chem. Chem. Phys. 7, 3297 (2005).

----- AuxJ basis set information -----
Your calculation utilizes the auxiliary basis: def2/J
   F. Weigend, Phys. Chem. Chem. Phys. 8, 1057 (2006).

================================================================================
                                        WARNINGS
                       Please study these warnings very carefully!
================================================================================


================================================================================
                                       INPUT FILE
================================================================================
NAME = sp.inp
|  1> ! pbe def2-sv(p) def2/J RI DEFGRID1 loosescf d4 GCP(DFT/SV(P)) printgap
|  2> %output
|  3>     printlevel normal
|  4> end
|  5> * xyz 0 1
|  6> C -3.6331550411 0.007368956 1.8543215594
|  7> C -3.051863261 0.540778041 0.5444341348
|  8> H -3.1565004987 1.6288111254 0.5024536659
|  9> C -1.5839581782 0.193773808 0.3935537109
| 10> C -1.1721847788 -1.1525866538 0.3822180456
| 11> C 0.1481941308 -1.4802213167 0.2571122202
| 12> C 1.1357416528 -0.480961584 0.1349082966
| 13> C 2.5038594213 -0.7990049979 0.0062779856
| 14> C 3.4391123334 0.1981619488 -0.1138083675
| 15> C 3.0291966228 1.5525000865 -0.1087761134
| 16> C 1.7131297558 1.8792128067 0.0145797678
| 17> C 0.7261845295 0.8762261578 0.1397782894
| 18> C -0.6422325013 1.182309355 0.2670037517
| 19> O 4.7835422035 0.0103695789 -0.2432140267
| 20> C 5.2816595033 -1.313478346 -0.2563426675
| 21> C -3.7578756874 -0.0125329085 -0.6743249883
| 22> O -3.9510859258 0.6318095942 -1.6856830282
| 23> O -4.1167373845 -1.2775481189 -0.5612162454
| 24> H -3.0701729427 0.4154555375 2.6891688887
| 25> H -4.6736656174 0.3067724996 1.9508615008
| 26> H -3.5782472667 -1.0760188646 1.8892725246
| 27> H -1.9144893288 -1.9313464636 0.4666537131
| 28> H 0.452522139 -2.5164656596 0.2484168825
| 29> H 2.7838481747 -1.8405304732 0.005626457
| 30> H 3.7948695724 2.3059005083 -0.205782721
| 31> H 1.4068733176 2.9144679976 0.0172668849
| 32> H -0.939290396 2.2212893188 0.2651908252
| 33> H 5.0525425025 -1.8291475031 0.6798289171
| 34> H 6.3590233335 -1.2140311182 -0.3663997694
| 35> H 4.8754896552 -1.8783127053 -1.0994817685
| 36> H -4.5439771434 -1.6204758324 -1.3700519498
| 37> *
| 38> 
| 39>                          ****END OF INPUT****
================================================================================

                       ****************************
                       * Single Point Calculation *
                       ****************************

---------------------------------
CARTESIAN COORDINATES (ANGSTROEM)
---------------------------------
  C     -3.633155    0.007369    1.854322
  C     -3.051863    0.540778    0.544434
  H     -3.156500    1.628811    0.502454
  C     -1.583958    0.193774    0.393554
  C     -1.172185   -1.152587    0.382218
  C      0.148194   -1.480221    0.257112
  C      1.135742   -0.480962    0.134908
  C      2.503859   -0.799005    0.006278
  C      3.439112    0.198162   -0.113808
  C      3.029197    1.552500   -0.108776
  C      1.713130    1.879213    0.014580
  C      0.726185    0.876226    0.139778
  C     -0.642233    1.182309    0.267004
  O      4.783542    0.010370   -0.243214
  C      5.281660   -1.313478   -0.256343
  C     -3.757876   -0.012533   -0.674325
  O     -3.951086    0.631810   -1.685683
  O     -4.116737   -1.277548   -0.561216
  H     -3.070173    0.415456    2.689169
  H     -4.673666    0.306772    1.950862
  H     -3.578247   -1.076019    1.889273
  H     -1.914489   -1.931346    0.466654
  H      0.452522   -2.516466    0.248417
  H      2.783848   -1.840530    0.005626
  H      3.794870    2.305901   -0.205783
  H      1.406873    2.914468    0.017267
  H     -0.939290    2.221289    0.265191
  H      5.052543   -1.829148    0.679829
  H      6.359023   -1.214031   -0.366400
  H      4.875490   -1.878313   -1.099482
  H     -4.543977   -1.620476   -1.370052

----------------------------
CARTESIAN COORDINATES (A.U.)
----------------------------
  NO LB      ZA    FRAG     MASS         X           Y           Z
   0 C     6.0000    0    12.011   -6.865668    0.013925    3.504160
   1 C     6.0000    0    12.011   -5.767186    1.021922    1.028831
   2 H     1.0000    0     1.008   -5.964921    3.078007    0.949500
   3 C     6.0000    0    12.011   -2.993247    0.366179    0.743709
   4 C     6.0000    0    12.011   -2.215108   -2.178073    0.722287
   5 C     6.0000    0    12.011    0.280046   -2.797213    0.485872
   6 C     6.0000    0    12.011    2.146241   -0.908886    0.254940
   7 C     6.0000    0    12.011    4.731609   -1.509901    0.011864
   8 C     6.0000    0    12.011    6.498980    0.374472   -0.215067
   9 C     6.0000    0    12.011    5.724352    2.933800   -0.205557
  10 C     6.0000    0    12.011    3.237346    3.551198    0.027552
  11 C     6.0000    0    12.011    1.372290    1.655827    0.264143
  12 C     6.0000    0    12.011   -1.213644    2.234241    0.504564
  13 O     8.0000    0    15.999    9.039585    0.019596   -0.459608
  14 C     6.0000    0    12.011    9.980890   -2.482114   -0.484417
  15 C     6.0000    0    12.011   -7.101356   -0.023684   -1.274290
  16 O     8.0000    0    15.999   -7.466470    1.193947   -3.185479
  17 O     8.0000    0    15.999   -7.779506   -2.414216   -1.060545
  18 H     1.0000    0     1.008   -5.801786    0.785097    5.081793
  19 H     1.0000    0     1.008   -8.831948    0.579716    3.686594
  20 H     1.0000    0     1.008   -6.761907   -2.033381    3.570208
  21 H     1.0000    0     1.008   -3.617861   -3.649716    0.881848
  22 H     1.0000    0     1.008    0.855143   -4.755431    0.469440
  23 H     1.0000    0     1.008    5.260711   -3.478099    0.010632
  24 H     1.0000    0     1.008    7.171264    4.357520   -0.388873
  25 H     1.0000    0     1.008    2.658605    5.507546    0.032630
  26 H     1.0000    0     1.008   -1.775002    4.197628    0.501138
  27 H     1.0000    0     1.008    9.547922   -3.456588    1.284690
  28 H     1.0000    0     1.008   12.016813   -2.294186   -0.692395
  29 H     1.0000    0     1.008    9.213340   -3.549497   -2.077719
  30 H     1.0000    0     1.008   -8.586872   -3.062256   -2.589023

--------------------------------
INTERNAL COORDINATES (ANGSTROEM)
--------------------------------
 C      0   0   0     0.000000000000     0.00000000     0.00000000
 C      1   0   0     1.529127349405     0.00000000     0.00000000
 H      2   1   0     1.093858904993   110.08940093     0.00000000
 C      2   1   3     1.515889894467   111.93306063   120.70205684
 C      4   2   1     1.407967443821   120.19192525    59.79793726
 C      5   4   2     1.366161192832   120.84542544   180.49647213
 C      6   5   4     1.410214139961   120.98512556   359.95515246
 C      7   6   5     1.410476372903   121.82842475   179.92903850
 C      8   7   6     1.372392313219   120.34158568   179.84891420
 C      9   8   7     1.415022262937   119.84814482     0.00000000
 C     10   9   8     1.361612967543   120.66221465     0.00000000
 C     11  10   9     1.412698753238   120.85903486   359.97293832
 C      4   2   1     1.371154502742   120.61215174   239.81221904
 O      9   8   7     1.363636122447   125.45896530   179.98461199
 C     14   9   8     1.414519895170   118.48662526   359.93673502
 C      2   1   3     1.513268103545   112.64413675   240.98612736
 O     16   2   1     1.214640910672   123.42474844   144.32997687
 O     16   2   1     1.319787402542   114.09814171   322.49437352
 H      1   2   3     1.086486798980   109.28221152   297.40114802
 H      1   2   3     1.087025621408   110.11324303    57.00521084
 H      1   2   3     1.085341238267   110.88898811   177.34270415
 H      5   4   2     1.079172029037   119.22592129     0.93952135
 H      6   5   4     1.080043278607   120.20957526   180.07535358
 H      8   7   6     1.078503334357   118.00980930   359.85947638
 H     10   9   8     1.078553449411   117.55500186   180.02189045
 H     11  10   9     1.079608047776   120.29804346   180.02743754
 H     13   4   2     1.080613735191   120.29992313   359.47830219
 H     15  14   9     1.093081202588   111.08522667   298.75788885
 H     15  14   9     1.087527075258   105.32015651   180.03153745
 H     15  14   9     1.093112685219   111.09468190    61.31230584
 H     18  16   2     0.976907582622   112.60801204   181.87219374

---------------------------
INTERNAL COORDINATES (A.U.)
---------------------------
 C      0   0   0     0.000000000000     0.00000000     0.00000000
 C      1   0   0     2.889631914264     0.00000000     0.00000000
 H      2   1   0     2.067093759587   110.08940093     0.00000000
 C      2   1   3     2.864616749721   111.93306063   120.70205684
 C      4   2   1     2.660672874299   120.19192525    59.79793726
 C      5   4   2     2.581670509243   120.84542544   180.49647213
 C      6   5   4     2.664918514710   120.98512556   359.95515246
 C      7   6   5     2.665414063154   121.82842475   179.92903850
 C      8   7   6     2.593445620283   120.34158568   179.84891420
 C      9   8   7     2.674004550352   119.84814482     0.00000000
 C     10   9   8     2.573075609053   120.66221465     0.00000000
 C     11  10   9     2.669613753351   120.85903486   359.97293832
 C      4   2   1     2.591106497475   120.61215174   239.81221904
 O      9   8   7     2.576898817747   125.45896530   179.98461199
 C     14   9   8     2.673055212854   118.48662526   359.93673502
 C      2   1   3     2.859662282899   112.64413675   240.98612736
 O     16   2   1     2.295338672227   123.42474844   144.32997687
 O     16   2   1     2.494036745804   114.09814171   322.49437352
 H      1   2   3     2.053162498194   109.28221152   297.40114802
 H      1   2   3     2.054180725017   110.11324303    57.00521084
 H      1   2   3     2.050997702175   110.88898811   177.34270415
 H      5   4   2     2.039339586269   119.22592129     0.93952135
 H      6   5   4     2.040986009350   120.20957526   180.07535358
 H      8   7   6     2.038075936455   118.00980930   359.85947638
 H     10   9   8     2.038170640182   117.55500186   180.02189045
 H     11  10   9     2.040163542274   120.29804346   180.02743754
 H     13   4   2     2.042064016065   120.29992313   359.47830219
 H     15  14   9     2.065624115030   111.08522667   298.75788885
 H     15  14   9     2.055128335462   105.32015651   180.03153745
 H     15  14   9     2.065683608579   111.09468190    61.31230584
 H     18  16   2     1.846087789306   112.60801204   181.87219374

---------------------
BASIS SET INFORMATION
---------------------
There are 3 groups of distinct atoms

 Group   1 Type C   : 7s4p1d contracted to 3s2p1d pattern {511/31/1}
 Group   2 Type H   : 4s contracted to 2s pattern {31}
 Group   3 Type O   : 7s4p1d contracted to 3s2p1d pattern {511/31/1}

Atom   0C    basis set group =>   1
Atom   1C    basis set group =>   1
Atom   2H    basis set group =>   2
Atom   3C    basis set group =>   1
Atom   4C    basis set group =>   1
Atom   5C    basis set group =>   1
Atom   6C    basis set group =>   1
Atom   7C    basis set group =>   1
Atom   8C    basis set group =>   1
Atom   9C    basis set group =>   1
Atom  10C    basis set group =>   1
Atom  11C    basis set group =>   1
Atom  12C    basis set group =>   1
Atom  13O    basis set group =>   3
Atom  14C    basis set group =>   1
Atom  15C    basis set group =>   1
Atom  16O    basis set group =>   3
Atom  17O    basis set group =>   3
Atom  18H    basis set group =>   2
Atom  19H    basis set group =>   2
Atom  20H    basis set group =>   2
Atom  21H    basis set group =>   2
Atom  22H    basis set group =>   2
Atom  23H    basis set group =>   2
Atom  24H    basis set group =>   2
Atom  25H    basis set group =>   2
Atom  26H    basis set group =>   2
Atom  27H    basis set group =>   2
Atom  28H    basis set group =>   2
Atom  29H    basis set group =>   2
Atom  30H    basis set group =>   2
---------------------------------
AUXILIARY/J BASIS SET INFORMATION
---------------------------------
There are 3 groups of distinct atoms

 Group   1 Type C   : 12s5p4d2f1g contracted to 6s4p3d1f1g pattern {711111/2111/211/2/1}
 Group   2 Type H   : 5s2p1d contracted to 3s1p1d pattern {311/2/1}
 Group   3 Type O   : 12s5p4d2f1g contracted to 6s4p3d1f1g pattern {711111/2111/211/2/1}

Atom   0C    basis set group =>   1
Atom   1C    basis set group =>   1
Atom   2H    basis set group =>   2
Atom   3C    basis set group =>   1
Atom   4C    basis set group =>   1
Atom   5C    basis set group =>   1
Atom   6C    basis set group =>   1
Atom   7C    basis set group =>   1
Atom   8C    basis set group =>   1
Atom   9C    basis set group =>   1
Atom  10C    basis set group =>   1
Atom  11C    basis set group =>   1
Atom  12C    basis set group =>   1
Atom  13O    basis set group =>   3
Atom  14C    basis set group =>   1
Atom  15C    basis set group =>   1
Atom  16O    basis set group =>   3
Atom  17O    basis set group =>   3
Atom  18H    basis set group =>   2
Atom  19H    basis set group =>   2
Atom  20H    basis set group =>   2
Atom  21H    basis set group =>   2
Atom  22H    basis set group =>   2
Atom  23H    basis set group =>   2
Atom  24H    basis set group =>   2
Atom  25H    basis set group =>   2
Atom  26H    basis set group =>   2
Atom  27H    basis set group =>   2
Atom  28H    basis set group =>   2
Atom  29H    basis set group =>   2
Atom  30H    basis set group =>   2
------------------------------------------------------------------------------
                             ORCA STARTUP CALCULATIONS
                           -- RI-GTO INTEGRALS CHOSEN --
------------------------------------------------------------------------------
------------------------------------------------------------------------------
                   ___                                                        
                  /   \      - P O W E R E D   B Y -                         
                 /     \                                                     
                 |  |  |   _    _      __       _____    __    __             
                 |  |  |  | |  | |    /  \     |  _  \  |  |  /  |          
                  \  \/   | |  | |   /    \    | | | |  |  | /  /          
                 / \  \   | |__| |  /  /\  \   | |_| |  |  |/  /          
                |  |  |   |  __  | /  /__\  \  |    /   |      \           
                |  |  |   | |  | | |   __   |  |    \   |  |\   \          
                \     /   | |  | | |  |  |  |  | |\  \  |  | \   \       
                 \___/    |_|  |_| |__|  |__|  |_| \__\ |__|  \__/        
                                                                              
                      - O R C A' S   B I G   F R I E N D -                    
                                      &                                       
                       - I N T E G R A L  F E E D E R -                       
                                                                              
 v1 FN, 2020, v2 2021, v3 2022-2024                                           
------------------------------------------------------------------------------


----------------------
SHARK INTEGRAL PACKAGE
----------------------

Number of atoms                             ...     31
Number of basis functions                   ...    266
Number of shells                            ...    130
Maximum angular momentum                    ...      2
Integral batch strategy                     ... SHARK/LIBINT Hybrid
RI-J (if used) integral strategy            ... SPLIT-RIJ (Revised 2003 algorithm where possible)
Printlevel                                  ...      1
Contraction scheme used                     ... SEGMENTED contraction
Prescreening option                         ... SCHWARTZ
   Thresh                                   ... 1.000e-09
   Tcut                                     ... 1.000e-10
   Tpresel                                  ... 1.000e-10 
Coulomb Range Separation                    ... NOT USED
Exchange Range Separation                   ... NOT USED
Multipole approximations                    ... NOT USED
Finite Nucleus Model                        ... NOT USED
CABS basis                                  ... NOT available
Auxiliary Coulomb fitting basis             ... AVAILABLE
   # of basis functions in Aux-J            ...    987
   # of shells in Aux-J                     ...    325
   Maximum angular momentum in Aux-J        ...      4
Auxiliary J/K fitting basis                 ... NOT available
Auxiliary Correlation fitting basis         ... NOT available
Auxiliary 'external' fitting basis          ... NOT available

Checking pre-screening integrals            ... done (  0.0 sec) Dimension = 130
Check shell pair data                       ... done (  0.0 sec)
Shell pair information
Shell pair cut-off parameter TPreSel        ...   1.0e-10
Total number of shell pairs                 ...      8515
Shell pairs after pre-screening             ...      6492
Total number of primitive shell pairs       ...     34193
Primitive shell pairs kept                  ...     16621
          la=0 lb=0:   2332 shell pairs
          la=1 lb=0:   2169 shell pairs
          la=1 lb=1:    519 shell pairs
          la=2 lb=0:    927 shell pairs
          la=2 lb=1:    448 shell pairs
          la=2 lb=2:     97 shell pairs

Calculating one electron integrals          ... done (  0.0 sec)
Calculating RI/J V-Matrix + Cholesky decomp.... done (  0.2 sec)
Calculating Nuclear repulsion               ... done (  0.0 sec) ENN=   1136.848496159026 Eh

Diagonalization of the overlap matrix:
Smallest eigenvalue                        ... 2.247e-04
Time for diagonalization                   ...    0.013 sec
Threshold for overlap eigenvalues          ... 1.000e-07
Number of eigenvalues below threshold      ... 0
Time for construction of square roots      ...    0.018 sec
Total time needed                          ...    0.041 sec

-------------------
DFT GRID GENERATION
-------------------

General Integration Accuracy     IntAcc      ... 4.159
Radial Grid Type                 RadialGrid  ... OptM3 with GC (2021)
Angular Grid (max. ang.)         AngularGrid ... 3 (Lebedev-194)
Angular grid pruning method      GridPruning ... 4 (adaptive)
Weight generation scheme         WeightScheme... mBecke (2022)
Basis function cutoff            BFCut       ... 1.0000e-10
Integration weight cutoff        WCut        ... 1.0000e-14
Partially contracted basis set               ... off
Rotationally invariant grid construction     ... off
Angular grids for H and He will be reduced by one unit

Total number of grid points                  ...    74648
Total number of batches                      ...     1182
Average number of points per batch           ...       63
Average number of grid points per atom       ...     2408
Initializing property integral containers    ... done (  0.1 sec)

SHARK setup successfully completed in   1.6 seconds

Maximum memory used throughout the entire STARTUP-calculation: 38.2 MB
-------------------------------------------------------------------------------
                                 ORCA GUESS
                   Start orbitals & Density for SCF / CASSCF
-------------------------------------------------------------------------------

------------
SCF SETTINGS
------------
Hamiltonian:
 Density Functional     Method          .... DFT(GTOs)
 Exchange Functional    Exchange        .... PBE
   PBE kappa parameter   XKappa         ....  0.804000
   PBE mue parameter    XMuePBE         ....  0.219520
 Correlation Functional Correlation     .... PBE
   PBE beta parameter  CBetaPBE         ....  0.066725
 LDA part of GGA corr.  LDAOpt          .... PW91-LDA
 Gradients option       PostSCFGGA      .... off
   NL short-range parameter             ....  6.400000
 RI-approximation to the Coulomb term is turned on
   Number of AuxJ basis functions       .... 987


General Settings:
 Integral files         IntName         .... sp
 Hartree-Fock type      HFTyp           .... RHF
 Total Charge           Charge          ....    0
 Multiplicity           Mult            ....    1
 Number of Electrons    NEL             ....  122
 Basis Dimension        Dim             ....  266
 Nuclear Repulsion      ENuc            ....   1136.8484961590 Eh

Convergence Acceleration:
 AO-DIIS                CNVDIIS         .... on
   Start iteration      DIISMaxIt       ....    12
   Startup error        DIISStart       ....  0.200000
   # of expansion vecs  DIISMaxEq       ....     5
   Bias factor          DIISBfac        ....   1.050
   Max. coefficient     DIISMaxC        ....  10.000
 MO-DIIS                CNVKDIIS        .... off
 Trust-Rad. Augm. Hess. CNVTRAH         .... auto
   Auto Start mean grad. ratio tolernc. ....  1.125000
   Auto Start start iteration           ....    50
   Auto Start num. interpolation iter.  ....    10
   Max. Number of Micro iterations      ....    24
   Max. Number of Macro iterations      .... Maxiter - #DIIS iter
   Number of Davidson start vectors     ....     2
   Converg. threshold    (grad. norm)   ....   1.000e-04
   Grad. Scal. Fac. for Micro threshold ....   0.100
   Minimum threshold for Micro iter.    ....   1.000e-02
   NR start threshold (gradient norm)   ....   1.000e-04
   Initial trust radius                 ....   0.400
   Minimum AH scaling param. (alpha)    ....   1.000
   Maximum AH scaling param. (alpha)    .... 1000.000
   Quad. conv. algorithm                .... NR
   White noise on init. David. guess    .... on
   Maximum white noise                  ....   0.010
   Pseudo random numbers                .... off
   Inactive MOs                         .... canonical
   Orbital update algorithm             .... Taylor
   Preconditioner                       .... Diag
   Full preconditioner red. dimension   ....   250
 SOSCF                  CNVSOSCF        .... on
   Start iteration      SOSCFMaxIt      ....   150
   Startup grad/error   SOSCFStart      ....  0.003300
   Hessian update       SOSCFHessUp     .... L-BFGS
 Level Shifting         CNVShift        .... on
   Level shift para.    LevelShift      ....    0.2500
   Turn off err/grad.   ShiftErr        ....    0.0010
 Zerner damping         CNVZerner       .... off
 Static damping         CNVDamp         .... on
   Fraction old density DampFac         ....    0.7000
   Max. Damping (<1)    DampMax         ....    0.9800
   Min. Damping (>=0)   DampMin         ....    0.0000
   Turn off err/grad.   DampErr         ....    0.1000

SCF Procedure:
 Maximum # iterations   MaxIter         ....   125
 SCF integral mode      SCFMode         .... Direct
   Integral package                     .... SHARK and LIBINT hybrid scheme
 Reset frequency        DirectResetFreq ....    20
 Integral Threshold     Thresh          ....  1.000e-09 Eh
 Primitive CutOff       TCut            ....  1.000e-10 Eh

Convergence Tolerance:
 Convergence Check Mode ConvCheckMode   .... Total+1el-Energy
 Convergence forced     ConvForced      .... 0
 Energy Change          TolE            ....  1.000e-05 Eh
 1-El. energy change                    ....  1.000e-02 Eh
 Orbital Gradient       TolG            ....  1.000e-04
 Orbital Rotation angle TolX            ....  1.000e-04
 DIIS Error             TolErr          ....  5.000e-04

------------------------------
INITIAL GUESS: MODEL POTENTIAL
------------------------------
Loading Hartree-Fock densities                     ... done
Calculating cut-offs                               ... done
Initializing the effective Hamiltonian             ... done
Setting up the integral package (SHARK)            ... done
Starting the Coulomb interaction                   ... done (   0.6 sec)
Making the grid                                    ... done (   0.5 sec)
Mapping shells                                     ... done
Starting the XC term evaluation                    ... done (   0.5 sec)
  promolecular density results
     # of electrons  =    121.993436738
     EX              =   -100.279392178
     EC              =     -4.096081022
     EX+EC           =   -104.375473200
Transforming the Hamiltonian                       ... done (   0.0 sec)
Diagonalizing the Hamiltonian                      ... done (   0.0 sec)
Back transforming the eigenvectors                 ... done (   0.0 sec)
Now organizing SCF variables                       ... done
                      ------------------
                      INITIAL GUESS DONE (   1.6 sec)
                      ------------------
             **** ENERGY FILE WAS UPDATED (sp.en.tmp) ****
Finished Guess after   1.9 sec
Maximum memory used throughout the entire GUESS-calculation: 30.1 MB

-------------------------------------------------------------------------------------------
                                      ORCA LEAN-SCF
                              memory conserving SCF solver
-------------------------------------------------------------------------------------------

----------------------------------------D-I-I-S--------------------------------------------
Iteration    Energy (Eh)           Delta-E    RMSDP     MaxDP     DIISErr   Damp  Time(sec)
-------------------------------------------------------------------------------------------
               ***  Starting incremental Fock matrix formation  ***
    1    -765.7404154569007915     0.00e+00  3.44e-03  1.70e-01  2.50e-01  0.700   2.5
    2    -765.9103828874324336    -1.70e-01  2.23e-03  1.00e-01  7.69e-02  0.700   2.4
                               ***Turning on AO-DIIS***
    3    -765.9683835467596964    -5.80e-02  9.03e-04  1.41e-02  2.61e-02  0.700   2.3
    4    -766.0048690434450691    -3.65e-02  1.51e-03  3.56e-02  1.18e-02  0.000   2.3
    5    -766.0866434987810862    -8.18e-02  3.80e-04  1.03e-02  6.23e-03  0.000   2.2
    6    -766.0873823396941589    -7.39e-04  1.43e-04  3.18e-03  3.39e-03  0.000   2.2
                              *** Initializing SOSCF ***
---------------------------------------S-O-S-C-F--------------------------------------
Iteration    Energy (Eh)           Delta-E    RMSDP     MaxDP     MaxGrad    Time(sec)
--------------------------------------------------------------------------------------
    7    -766.0874436517378854    -6.13e-05  5.60e-05  1.77e-03  1.36e-03     1.9
               *** Restarting incremental Fock matrix formation ***
    8    -766.0874516200278777    -7.97e-06  3.63e-05  1.18e-03  1.08e-04     2.4
    9    -766.0874495700027182     2.05e-06  1.69e-05  6.36e-04  3.42e-04     2.1
                 **** Energy Check signals convergence ****

               *****************************************************
               *                     SUCCESS                       *
               *           SCF CONVERGED AFTER   9 CYCLES          *
               *****************************************************

             **** ENERGY FILE WAS UPDATED (sp.en.tmp) ****

----------------
TOTAL SCF ENERGY
----------------

Total Energy       :       -766.08744957000272 Eh          -20846.29931 eV

Components:
Nuclear Repulsion  :       1136.84849615902635 Eh           30935.22030 eV
Electronic Energy  :      -1902.93594572902907 Eh          -51781.51960 eV
One Electron Energy:      -3298.59102966621640 Eh          -89759.22519 eV
Two Electron Energy:       1395.65508393718733 Eh           37977.70558 eV

Virial components:
Potential Energy   :      -1525.93463938343575 Eh          -41522.79252 eV
Kinetic Energy     :        759.84718981343303 Eh           20676.49321 eV
Virial Ratio       :          2.00821251935945

DFT components:
N(Alpha)           :       61.000250875015 electrons
N(Beta)            :       61.000250875015 electrons
N(Total)           :      122.000501750029 electrons
E(X)               :     -101.943583879125 Eh       
E(C)               :       -4.112796729408 Eh       
E(XC)              :     -106.056380608533 Eh       

---------------
SCF CONVERGENCE
---------------

  Last Energy change         ...   -2.0500e-06  Tolerance :   1.0000e-05
  Last MAX-Density change    ...    6.3575e-04  Tolerance :   1.0000e-03
  Last RMS-Density change    ...    1.6886e-05  Tolerance :   1.0000e-04
  Last DIIS Error            ...    1.3567e-03  Tolerance :   5.0000e-04
  Last Orbital Gradient      ...    3.4184e-04  Tolerance :   1.0000e-04
  Last Orbital Rotation      ...    4.6890e-04  Tolerance :   1.0000e-04


----------------
ORBITAL ENERGIES
----------------

  NO   OCC          E(Eh)            E(eV) 
   0   2.0000     -18.804047      -511.6841 
   1   2.0000     -18.792177      -511.3611 
   2   2.0000     -18.734418      -509.7894 
   3   2.0000     -10.009914      -272.3836 
   4   2.0000      -9.952235      -270.8141 
   5   2.0000      -9.943013      -270.5631 
   6   2.0000      -9.912020      -269.7198 
   7   2.0000      -9.904046      -269.5028 
   8   2.0000      -9.903009      -269.4746 
   9   2.0000      -9.898589      -269.3543 
  10   2.0000      -9.895275      -269.2641 
  11   2.0000      -9.891434      -269.1596 
  12   2.0000      -9.891325      -269.1566 
  13   2.0000      -9.891111      -269.1508 
  14   2.0000      -9.890679      -269.1391 
  15   2.0000      -9.889304      -269.1016 
  16   2.0000      -9.884083      -268.9596 
  17   2.0000      -1.011739       -27.5308 
  18   2.0000      -0.971675       -26.4406 
  19   2.0000      -0.908188       -24.7131 
  20   2.0000      -0.795959       -21.6592 
  21   2.0000      -0.757542       -20.6138 
  22   2.0000      -0.719595       -19.5812 
  23   2.0000      -0.695233       -18.9182 
  24   2.0000      -0.672641       -18.3035 
  25   2.0000      -0.648344       -17.6423 
  26   2.0000      -0.627547       -17.0764 
  27   2.0000      -0.603759       -16.4291 
  28   2.0000      -0.566072       -15.4036 
  29   2.0000      -0.558916       -15.2089 
  30   2.0000      -0.541061       -14.7230 
  31   2.0000      -0.524768       -14.2797 
  32   2.0000      -0.483525       -13.1574 
  33   2.0000      -0.466912       -12.7053 
  34   2.0000      -0.458554       -12.4779 
  35   2.0000      -0.427251       -11.6261 
  36   2.0000      -0.423836       -11.5332 
  37   2.0000      -0.420653       -11.4466 
  38   2.0000      -0.416673       -11.3383 
  39   2.0000      -0.410571       -11.1722 
  40   2.0000      -0.399945       -10.8831 
  41   2.0000      -0.392224       -10.6730 
  42   2.0000      -0.380170       -10.3449 
  43   2.0000      -0.370521       -10.0824 
  44   2.0000      -0.362925        -9.8757 
  45   2.0000      -0.358316        -9.7503 
  46   2.0000      -0.355774        -9.6811 
  47   2.0000      -0.346630        -9.4323 
  48   2.0000      -0.336555        -9.1581 
  49   2.0000      -0.329564        -8.9679 
  50   2.0000      -0.314315        -8.5530 
  51   2.0000      -0.313520        -8.5313 
  52   2.0000      -0.302336        -8.2270 
  53   2.0000      -0.294310        -8.0086 
  54   2.0000      -0.281856        -7.6697 
  55   2.0000      -0.270278        -7.3546 
  56   2.0000      -0.268748        -7.3130 
  57   2.0000      -0.252422        -6.8688 
  58   2.0000      -0.217624        -5.9219 
  59   2.0000      -0.208395        -5.6707 
  60   2.0000      -0.185584        -5.0500 
  61   0.0000      -0.064739        -1.7616 
  62   0.0000      -0.039386        -1.0717 
  63   0.0000      -0.013354        -0.3634 
  64   0.0000      -0.001273        -0.0346 
  65   0.0000       0.020877         0.5681 
  66   0.0000       0.042944         1.1686 
  67   0.0000       0.054187         1.4745 
  68   0.0000       0.059786         1.6269 
  69   0.0000       0.062911         1.7119 
  70   0.0000       0.067149         1.8272 
  71   0.0000       0.083098         2.2612 
*Only the first 10 virtual orbitals were printed.

                    ********************************
                    * MULLIKEN POPULATION ANALYSIS *
                    ********************************

-----------------------
MULLIKEN ATOMIC CHARGES
-----------------------
   0 C :   -0.223729
   1 C :   -0.129927
   2 H :    0.081387
   3 C :    0.119431
   4 C :   -0.107127
   5 C :   -0.126616
   6 C :    0.171777
   7 C :   -0.300460
   8 C :    0.294266
   9 C :   -0.092890
  10 C :   -0.128013
  11 C :    0.176172
  12 C :   -0.214506
  13 O :   -0.267746
  14 C :   -0.114076
  15 C :    0.111610
  16 O :   -0.186969
  17 O :   -0.287728
  18 H :    0.108142
  19 H :    0.106312
  20 H :    0.119402
  21 H :    0.051139
  22 H :    0.031314
  23 H :    0.023735
  24 H :    0.046856
  25 H :    0.042032
  26 H :    0.027884
  27 H :    0.111809
  28 H :    0.126914
  29 H :    0.112319
  30 H :    0.317288
Sum of atomic charges:   -0.0000000

--------------------------------
MULLIKEN REDUCED ORBITAL CHARGES
--------------------------------
  0 C s       :     3.074032  s :     3.074032
      pz      :     1.005320  p :     3.120850
      px      :     1.038732
      py      :     1.076798
      dz2     :     0.007372  d :     0.028847
      dxz     :     0.005756
      dyz     :     0.004256
      dx2y2   :     0.009013
      dxy     :     0.002450

  1 C s       :     3.080331  s :     3.080331
      pz      :     0.980587  p :     3.008869
      px      :     1.009555
      py      :     1.018727
      dz2     :     0.009541  d :     0.040727
      dxz     :     0.010450
      dyz     :     0.005655
      dx2y2   :     0.010328
      dxy     :     0.004752

  2 H s       :     0.918613  s :     0.918613

  3 C s       :     2.974083  s :     2.974083
      pz      :     0.988198  p :     2.865157
      px      :     0.928177
      py      :     0.948783
      dz2     :     0.002830  d :     0.041328
      dxz     :     0.006054
      dyz     :     0.006681
      dx2y2   :     0.013125
      dxy     :     0.012639

  4 C s       :     3.257354  s :     3.257354
      pz      :     0.997032  p :     2.815075
      px      :     0.884185
      py      :     0.933858
      dz2     :     0.003112  d :     0.034697
      dxz     :     0.004689
      dyz     :     0.004339
      dx2y2   :     0.008895
      dxy     :     0.013662

  5 C s       :     3.283866  s :     3.283866
      pz      :     1.010886  p :     2.808075
      px      :     0.965621
      py      :     0.831568
      dz2     :     0.003246  d :     0.034675
      dxz     :     0.006568
      dyz     :     0.002074
      dx2y2   :     0.011891
      dxy     :     0.010896

  6 C s       :     3.012402  s :     3.012402
      pz      :     0.961822  p :     2.774003
      px      :     0.831569
      py      :     0.980613
      dz2     :     0.002939  d :     0.041819
      dxz     :     0.007747
      dyz     :     0.005856
      dx2y2   :     0.012755
      dxy     :     0.012521

  7 C s       :     3.404591  s :     3.404591
      pz      :     1.096922  p :     2.863743
      px      :     1.009598
      py      :     0.757223
      dz2     :     0.003485  d :     0.032125
      dxz     :     0.005909
      dyz     :     0.002503
      dx2y2   :     0.010122
      dxy     :     0.010107

  8 C s       :     2.891718  s :     2.891718
      pz      :     0.983596  p :     2.741846
      px      :     0.806215
      py      :     0.952034
      dz2     :     0.005186  d :     0.072170
      dxz     :     0.016733
      dyz     :     0.007206
      dx2y2   :     0.024191
      dxy     :     0.018854

  9 C s       :     3.281711  s :     3.281711
      pz      :     1.019058  p :     2.778532
      px      :     0.835034
      py      :     0.924440
      dz2     :     0.003178  d :     0.032647
      dxz     :     0.004603
      dyz     :     0.004000
      dx2y2   :     0.008470
      dxy     :     0.012396

 10 C s       :     3.291436  s :     3.291436
      pz      :     0.994035  p :     2.801419
      px      :     0.958584
      py      :     0.848800
      dz2     :     0.003277  d :     0.035158
      dxz     :     0.007116
      dyz     :     0.002104
      dx2y2   :     0.011952
      dxy     :     0.010709

 11 C s       :     3.010558  s :     3.010558
      pz      :     0.982439  p :     2.772445
      px      :     0.826273
      py      :     0.963733
      dz2     :     0.002912  d :     0.040826
      dxz     :     0.006862
      dyz     :     0.005724
      dx2y2   :     0.012638
      dxy     :     0.012689

 12 C s       :     3.377656  s :     3.377656
      pz      :     1.009758  p :     2.802307
      px      :     0.994059
      py      :     0.798489
      dz2     :     0.003325  d :     0.034544
      dxz     :     0.006437
      dyz     :     0.002459
      dx2y2   :     0.012485
      dxy     :     0.009837

 13 O s       :     3.737119  s :     3.737119
      pz      :     1.762324  p :     4.514042
      px      :     1.336401
      py      :     1.415316
      dz2     :     0.002246  d :     0.016586
      dxz     :     0.002676
      dyz     :     0.001943
      dx2y2   :     0.006651
      dxy     :     0.003070

 14 C s       :     3.129075  s :     3.129075
      pz      :     1.084633  p :     2.930717
      px      :     1.056613
      py      :     0.789470
      dz2     :     0.008426  d :     0.054284
      dxz     :     0.002934
      dyz     :     0.016617
      dx2y2   :     0.015918
      dxy     :     0.010389

 15 C s       :     3.034768  s :     3.034768
      pz      :     0.986262  p :     2.722727
      px      :     0.871533
      py      :     0.864932
      dz2     :     0.033552  d :     0.130895
      dxz     :     0.018843
      dyz     :     0.031139
      dx2y2   :     0.025172
      dxy     :     0.022189

 16 O s       :     3.727702  s :     3.727702
      pz      :     1.399004  p :     4.441827
      px      :     1.447296
      py      :     1.595527
      dz2     :     0.005144  d :     0.017440
      dxz     :     0.003655
      dyz     :     0.005471
      dx2y2   :     0.001377
      dxy     :     0.001793

 17 O s       :     3.730125  s :     3.730125
      pz      :     1.520665  p :     4.541948
      px      :     1.651279
      py      :     1.370004
      dz2     :     0.003892  d :     0.015656
      dxz     :     0.003075
      dyz     :     0.003401
      dx2y2   :     0.002897
      dxy     :     0.002390

 18 H s       :     0.891858  s :     0.891858

 19 H s       :     0.893688  s :     0.893688

 20 H s       :     0.880598  s :     0.880598

 21 H s       :     0.948861  s :     0.948861

 22 H s       :     0.968686  s :     0.968686

 23 H s       :     0.976265  s :     0.976265

 24 H s       :     0.953144  s :     0.953144

 25 H s       :     0.957968  s :     0.957968

 26 H s       :     0.972116  s :     0.972116

 27 H s       :     0.888191  s :     0.888191

 28 H s       :     0.873086  s :     0.873086

 29 H s       :     0.887681  s :     0.887681

 30 H s       :     0.682712  s :     0.682712


------------------------
MULLIKEN OVERLAP CHARGES
------------------------
B(  0-C ,  1-C ) :   0.5793 B(  0-C ,  3-C ) :  -0.0990 B(  0-C , 18-H ) :   0.7143 
B(  0-C , 19-H ) :   0.7409 B(  0-C , 20-H ) :   0.7301 B(  1-C ,  2-H ) :   0.6050 
B(  1-C ,  3-C ) :   0.7235 B(  1-C ,  4-C ) :  -0.2428 B(  1-C , 12-C ) :  -0.1983 
B(  1-C , 15-C ) :   0.3425 B(  1-C , 16-O ) :  -0.2161 B(  1-C , 17-O ) :  -0.2877 
B(  1-C , 19-H ) :  -0.0549 B(  3-C ,  4-C ) :   0.0908 B(  3-C ,  5-C ) :   0.3579 
B(  3-C ,  6-C ) :  -0.3824 B(  3-C , 11-C ) :   0.3392 B(  3-C , 12-C ) :   0.3877 
B(  3-C , 21-H ) :  -0.1763 B(  3-C , 26-H ) :  -0.1736 B(  4-C ,  5-C ) :   0.3430 
B(  4-C ,  6-C ) :   0.3424 B(  4-C , 11-C ) :  -0.3166 B(  4-C , 12-C ) :   0.2037 
B(  4-C , 21-H ) :   0.8641 B(  4-C , 22-H ) :  -0.1916 B(  5-C ,  6-C ) :   0.3659 
B(  5-C ,  7-C ) :  -0.3149 B(  5-C , 10-C ) :   0.0570 B(  5-C , 11-C ) :   0.0871 
B(  5-C , 12-C ) :  -0.3264 B(  5-C , 21-H ) :  -0.1600 B(  5-C , 22-H ) :   0.8852 
B(  6-C ,  7-C ) :   0.2653 B(  6-C ,  8-C ) :   0.4464 B(  6-C ,  9-C ) :  -0.3203 
B(  6-C , 10-C ) :   0.1115 B(  6-C , 11-C ) :  -0.1727 B(  6-C , 12-C ) :   0.1023 
B(  6-C , 22-H ) :  -0.1704 B(  6-C , 23-H ) :  -0.1386 B(  7-C ,  9-C ) :   0.1932 
B(  7-C , 10-C ) :  -0.3483 B(  7-C , 11-C ) :   0.0989 B(  7-C , 13-O ) :  -0.1942 
B(  7-C , 22-H ) :  -0.0520 B(  7-C , 23-H ) :   0.8754 B(  7-C , 24-H ) :   0.0516 
B(  8-C ,  9-C ) :   0.2043 B(  8-C , 10-C ) :   0.4291 B(  8-C , 11-C ) :  -0.4099 
B(  8-C , 13-O ) :   0.8395 B(  8-C , 14-C ) :  -0.1310 B(  8-C , 23-H ) :  -0.2314 
B(  8-C , 24-H ) :  -0.1653 B(  9-C , 10-C ) :   0.2608 B(  9-C , 11-C ) :   0.3812 
B(  9-C , 13-O ) :  -0.1576 B(  9-C , 24-H ) :   0.8466 B(  9-C , 25-H ) :  -0.1976 
B( 10-C , 11-C ) :   0.2927 B( 10-C , 12-C ) :  -0.3238 B( 10-C , 24-H ) :  -0.1852 
B( 10-C , 25-H ) :   0.8976 B( 11-C , 12-C ) :   0.3892 B( 11-C , 25-H ) :  -0.1651 
B( 11-C , 26-H ) :  -0.1567 B( 12-C , 26-H ) :   0.8555 B( 13-O , 14-C ) :   0.6285 
B( 13-O , 27-H ) :  -0.0620 B( 13-O , 28-H ) :  -0.0510 B( 13-O , 29-H ) :  -0.0619 
B( 14-C , 27-H ) :   0.7522 B( 14-C , 28-H ) :   0.7674 B( 14-C , 29-H ) :   0.7527 
B( 15-C , 16-O ) :   1.4665 B( 15-C , 17-O ) :   0.7628 B( 16-O , 17-O ) :  -0.1886 
B( 17-O , 30-H ) :   0.4735 B( 27-H , 29-H ) :  -0.0956 


                     *******************************
                     * LOEWDIN POPULATION ANALYSIS *
                     *******************************

----------------------
LOEWDIN ATOMIC CHARGES
----------------------
   0 C :   -0.322111
   1 C :   -0.149281
   2 H :    0.137026
   3 C :   -0.035505
   4 C :   -0.121749
   5 C :   -0.114805
   6 C :   -0.017445
   7 C :   -0.174104
   8 C :    0.029614
   9 C :   -0.132550
  10 C :   -0.104268
  11 C :   -0.034236
  12 C :   -0.107249
  13 O :   -0.088801
  14 C :   -0.202006
  15 C :    0.033698
  16 O :   -0.170441
  17 O :   -0.195717
  18 H :    0.125483
  19 H :    0.122673
  20 H :    0.124104
  21 H :    0.124283
  22 H :    0.121693
  23 H :    0.125598
  24 H :    0.131599
  25 H :    0.126303
  26 H :    0.123507
  27 H :    0.110582
  28 H :    0.123177
  29 H :    0.110781
  30 H :    0.300148

-------------------------------
LOEWDIN REDUCED ORBITAL CHARGES
-------------------------------
  0 C s       :     2.946101  s :     2.946101
      pz      :     1.067088  p :     3.305126
      px      :     1.109447
      py      :     1.128591
      dz2     :     0.018720  d :     0.070884
      dxz     :     0.014539
      dyz     :     0.010077
      dx2y2   :     0.021574
      dxy     :     0.005974

  1 C s       :     2.879468  s :     2.879468
      pz      :     1.039551  p :     3.167427
      px      :     1.043700
      py      :     1.084176
      dz2     :     0.025353  d :     0.102386
      dxz     :     0.025969
      dyz     :     0.013952
      dx2y2   :     0.026460
      dxy     :     0.010652

  2 H s       :     0.862974  s :     0.862974

  3 C s       :     2.848002  s :     2.848002
      pz      :     0.971718  p :     3.077267
      px      :     1.018001
      py      :     1.087548
      dz2     :     0.007488  d :     0.110236
      dxz     :     0.011909
      dyz     :     0.014658
      dx2y2   :     0.039181
      dxy     :     0.037000

  4 C s       :     2.889334  s :     2.889334
      pz      :     0.991822  p :     3.140456
      px      :     1.083155
      py      :     1.065479
      dz2     :     0.007127  d :     0.091958
      dxz     :     0.009902
      dyz     :     0.008979
      dx2y2   :     0.027701
      dxy     :     0.038249

  5 C s       :     2.889493  s :     2.889493
      pz      :     0.998710  p :     3.133797
      px      :     1.079886
      py      :     1.055202
      dz2     :     0.007255  d :     0.091515
      dxz     :     0.014218
      dyz     :     0.003693
      dx2y2   :     0.034046
      dxy     :     0.032303

  6 C s       :     2.834274  s :     2.834274
      pz      :     0.957458  p :     3.069180
      px      :     1.047434
      py      :     1.064288
      dz2     :     0.007718  d :     0.113991
      dxz     :     0.016260
      dyz     :     0.012149
      dx2y2   :     0.038977
      dxy     :     0.038887

  7 C s       :     2.889204  s :     2.889204
      pz      :     1.078449  p :     3.197996
      px      :     1.060272
      py      :     1.059275
      dz2     :     0.007692  d :     0.086903
      dxz     :     0.012682
      dyz     :     0.004451
      dx2y2   :     0.031208
      dxy     :     0.030871

  8 C s       :     2.836949  s :     2.836949
      pz      :     0.973780  p :     2.960698
      px      :     0.890984
      py      :     1.095934
      dz2     :     0.011832  d :     0.172740
      dxz     :     0.033452
      dyz     :     0.014931
      dx2y2   :     0.062873
      dxy     :     0.049652

  9 C s       :     2.895659  s :     2.895659
      pz      :     1.011512  p :     3.149172
      px      :     1.085526
      py      :     1.052135
      dz2     :     0.007260  d :     0.087720
      dxz     :     0.009594
      dyz     :     0.008200
      dx2y2   :     0.027448
      dxy     :     0.035217

 10 C s       :     2.889909  s :     2.889909
      pz      :     0.983421  p :     3.122128
      px      :     1.079394
      py      :     1.059313
      dz2     :     0.007276  d :     0.092231
      dxz     :     0.015416
      dyz     :     0.003738
      dx2y2   :     0.034126
      dxy     :     0.031676

 11 C s       :     2.834452  s :     2.834452
      pz      :     0.976364  p :     3.087781
      px      :     1.051918
      py      :     1.059500
      dz2     :     0.007732  d :     0.112002
      dxz     :     0.014188
      dyz     :     0.011832
      dx2y2   :     0.038857
      dxy     :     0.039392

 12 C s       :     2.891315  s :     2.891315
      pz      :     1.001620  p :     3.124580
      px      :     1.060450
      py      :     1.062510
      dz2     :     0.007306  d :     0.091354
      dxz     :     0.013959
      dyz     :     0.004530
      dx2y2   :     0.035758
      dxy     :     0.029800

 13 O s       :     3.444524  s :     3.444524
      pz      :     1.753027  p :     4.612353
      px      :     1.391215
      py      :     1.468112
      dz2     :     0.003985  d :     0.031923
      dxz     :     0.004383
      dyz     :     0.002926
      dx2y2   :     0.013804
      dxy     :     0.006824

 14 C s       :     2.961459  s :     2.961459
      pz      :     1.142227  p :     3.121203
      px      :     1.100379
      py      :     0.878597
      dz2     :     0.018975  d :     0.119344
      dxz     :     0.005851
      dyz     :     0.038089
      dx2y2   :     0.036088
      dxy     :     0.020340

 15 C s       :     2.848066  s :     2.848066
      pz      :     1.033844  p :     2.821536
      px      :     0.857174
      py      :     0.930518
      dz2     :     0.077376  d :     0.296701
      dxz     :     0.039776
      dyz     :     0.074349
      dx2y2   :     0.058725
      dxy     :     0.046475

 16 O s       :     3.552969  s :     3.552969
      pz      :     1.496840  p :     4.586619
      px      :     1.451271
      py      :     1.638508
      dz2     :     0.009239  d :     0.030853
      dxz     :     0.005216
      dyz     :     0.011503
      dx2y2   :     0.002467
      dxy     :     0.002428

 17 O s       :     3.499846  s :     3.499846
      pz      :     1.568950  p :     4.666151
      px      :     1.651398
      py      :     1.445802
      dz2     :     0.006959  d :     0.029720
      dxz     :     0.004930
      dyz     :     0.006483
      dx2y2   :     0.006653
      dxy     :     0.004695

 18 H s       :     0.874517  s :     0.874517

 19 H s       :     0.877327  s :     0.877327

 20 H s       :     0.875896  s :     0.875896

 21 H s       :     0.875717  s :     0.875717

 22 H s       :     0.878307  s :     0.878307

 23 H s       :     0.874402  s :     0.874402

 24 H s       :     0.868401  s :     0.868401

 25 H s       :     0.873697  s :     0.873697

 26 H s       :     0.876493  s :     0.876493

 27 H s       :     0.889418  s :     0.889418

 28 H s       :     0.876823  s :     0.876823

 29 H s       :     0.889219  s :     0.889219

 30 H s       :     0.699852  s :     0.699852


---------------------------------
LOEWDIN BOND ORDERS (THRESH 0.050000)
---------------------------------
B(  0-C ,  1-C ) :   1.0774 B(  0-C ,  3-C ) :   0.0549 B(  0-C , 15-C ) :   0.0572 
B(  0-C , 18-H ) :   0.9319 B(  0-C , 19-H ) :   0.9340 B(  0-C , 20-H ) :   0.9326 
B(  1-C ,  2-H ) :   0.8577 B(  1-C ,  3-C ) :   1.0021 B(  1-C ,  4-C ) :   0.0630 
B(  1-C , 12-C ) :   0.0800 B(  1-C , 15-C ) :   1.0011 B(  1-C , 16-O ) :   0.0944 
B(  1-C , 17-O ) :   0.0629 B(  3-C ,  4-C ) :   1.3180 B(  3-C ,  5-C ) :   0.0867 
B(  3-C ,  6-C ) :   0.0651 B(  3-C , 11-C ) :   0.0879 B(  3-C , 12-C ) :   1.5292 
B(  3-C , 15-C ) :   0.0759 B(  4-C ,  5-C ) :   1.6143 B(  4-C ,  6-C ) :   0.0867 
B(  4-C , 11-C ) :   0.0696 B(  4-C , 12-C ) :   0.0824 B(  4-C , 21-H ) :   0.8752 
B(  5-C ,  6-C ) :   1.3110 B(  5-C ,  7-C ) :   0.0824 B(  5-C , 11-C ) :   0.0750 
B(  5-C , 12-C ) :   0.1160 B(  5-C , 22-H ) :   0.8815 B(  6-C ,  7-C ) :   1.3088 
B(  6-C ,  8-C ) :   0.0912 B(  6-C ,  9-C ) :   0.0670 B(  6-C , 10-C ) :   0.0745 
B(  6-C , 11-C ) :   1.2394 B(  6-C , 12-C ) :   0.0743 B(  7-C ,  8-C ) :   1.5049 
B(  7-C ,  9-C ) :   0.0843 B(  7-C , 10-C ) :   0.1063 B(  7-C , 11-C ) :   0.0746 
B(  7-C , 13-O ) :   0.1237 B(  7-C , 23-H ) :   0.8696 B(  8-C ,  9-C ) :   1.2894 
B(  8-C , 10-C ) :   0.0883 B(  8-C , 11-C ) :   0.0582 B(  8-C , 13-O ) :   1.2824 
B(  8-C , 14-C ) :   0.0684 B(  9-C , 10-C ) :   1.6441 B(  9-C , 11-C ) :   0.0874 
B(  9-C , 13-O ) :   0.0824 B(  9-C , 24-H ) :   0.8800 B( 10-C , 11-C ) :   1.2948 
B( 10-C , 12-C ) :   0.0819 B( 10-C , 25-H ) :   0.8808 B( 11-C , 12-C ) :   1.3239 
B( 12-C , 26-H ) :   0.8755 B( 13-O , 14-C ) :   1.1561 B( 14-C , 27-H ) :   0.9407 
B( 14-C , 28-H ) :   0.9495 B( 14-C , 29-H ) :   0.9406 B( 15-C , 16-O ) :   2.2311 
B( 15-C , 17-O ) :   1.4476 B( 16-O , 17-O ) :   0.2133 B( 17-O , 30-H ) :   0.8455 


------------------------------------------
LOEWDIN REDUCED ORBITAL POPULATIONS PER MO
-------------------------------------------
THRESHOLD FOR PRINTING IS 0.1%%
                      0         1         2         3         4         5   
                 -18.80405 -18.79218 -18.73442 -10.00991  -9.95223  -9.94301
                   2.00000   2.00000   2.00000   2.00000   2.00000   2.00000
                  --------  --------  --------  --------  --------  --------
 8 C  s               0.0       0.0       0.0       0.0      99.5       0.0
 9 C  py              0.0       0.0       0.0       0.0       0.1       0.0
13 O  s               0.0      99.9       0.0       0.0       0.0       0.0
13 O  px              0.0       0.0       0.0       0.0       0.1       0.0
13 O  py              0.0       0.0       0.0       0.0       0.0       0.1
14 C  s               0.0       0.0       0.0       0.0       0.0      99.7
15 C  s               0.0       0.0       0.0      99.3       0.0       0.0
16 O  s               0.0       0.0      99.9       0.0       0.0       0.0
16 O  pz              0.0       0.0       0.0       0.2       0.0       0.0
17 O  s              99.9       0.0       0.0       0.0       0.0       0.0
17 O  py              0.0       0.0       0.0       0.2       0.0       0.0

                      6         7         8         9        10        11   
                  -9.91202  -9.90405  -9.90301  -9.89859  -9.89528  -9.89143
                   2.00000   2.00000   2.00000   2.00000   2.00000   2.00000
                  --------  --------  --------  --------  --------  --------
 1 C  s              99.6       0.0       0.0       0.0       0.0       0.0
 3 C  s               0.0      99.5       0.0       0.0       0.0       0.0
 3 C  px              0.1       0.0       0.0       0.0       0.0       0.0
 4 C  s               0.0       0.0       0.0       0.0       0.0       5.3
 4 C  px              0.0       0.0       0.0       0.0       0.0       0.1
 4 C  py              0.0       0.1       0.0       0.0       0.0       0.0
 5 C  s               0.0       0.0       0.0       0.0       0.0      91.0
 6 C  s               0.0       0.0      99.5       0.0       0.0       0.0
 6 C  py              0.0       0.0       0.0       0.1       0.0       0.1
 7 C  px              0.0       0.0       0.1       0.0       0.0       0.0
 9 C  s               0.0       0.0       0.0       0.0       0.2       0.0
 9 C  px              0.0       0.0       0.0       0.0       0.1       0.0
10 C  s               0.0       0.0       0.0       0.1      99.3       0.0
11 C  s               0.0       0.0       0.0      99.4       0.1       0.0
11 C  py              0.0       0.0       0.1       0.0       0.1       0.0
12 C  s               0.0       0.0       0.0       0.0       0.0       3.3
12 C  px              0.0       0.1       0.0       0.1       0.0       0.0

                     12        13        14        15        16        17   
                  -9.89133  -9.89111  -9.89068  -9.88930  -9.88408  -1.01174
                   2.00000   2.00000   2.00000   2.00000   2.00000   2.00000
                  --------  --------  --------  --------  --------  --------
 0 C  s               0.0       0.0       0.0       0.0      99.7       0.1
 0 C  pz              0.0       0.0       0.0       0.0       0.0       0.2
 1 C  s               0.0       0.0       0.0       0.0       0.0       1.0
 1 C  pz              0.0       0.0       0.0       0.0       0.1       1.0
 1 C  px              0.0       0.0       0.0       0.0       0.0       0.4
 1 C  py              0.0       0.0       0.0       0.0       0.0       0.4
 2 H  s               0.0       0.0       0.0       0.0       0.0       0.2
 3 C  px              0.0       0.1       0.0       0.0       0.0       0.1
 3 C  py              0.0       0.1       0.1       0.0       0.0       0.0
 4 C  s               0.0       0.2      94.1       0.0       0.0       0.0
 5 C  s               0.0       3.1       5.5       0.0       0.0       0.0
 5 C  px              0.0       0.0       0.1       0.0       0.0       0.0
 6 C  px              0.0       0.0       0.0       0.1       0.0       0.0
 7 C  s               0.0       0.0       0.0      99.5       0.0       0.0
 8 C  py              0.1       0.0       0.0       0.1       0.0       0.0
 9 C  s              99.0       0.3       0.0       0.0       0.0       0.0
10 C  s               0.2       0.0       0.0       0.0       0.0       0.0
10 C  px              0.1       0.0       0.0       0.0       0.0       0.0
11 C  px              0.0       0.1       0.0       0.0       0.0       0.0
12 C  s               0.3      96.0       0.0       0.0       0.0       0.0
15 C  s               0.0       0.0       0.0       0.0       0.0      19.1
15 C  pz              0.0       0.0       0.0       0.0       0.0       1.1
15 C  px              0.0       0.0       0.0       0.0       0.0       1.0
15 C  py              0.0       0.0       0.0       0.0       0.0       4.0
15 C  dyz             0.0       0.0       0.0       0.0       0.0       0.2
15 C  dx2y2           0.0       0.0       0.0       0.0       0.0       0.7
15 C  dxy             0.0       0.0       0.0       0.0       0.0       0.2
16 O  s               0.0       0.0       0.0       0.0       0.0      10.3
16 O  pz              0.0       0.0       0.0       0.0       0.0       1.5
16 O  py              0.0       0.0       0.0       0.0       0.0       1.2
17 O  s               0.0       0.0       0.0       0.0       0.0      45.2
17 O  pz              0.0       0.0       0.0       0.0       0.0       1.4
17 O  py              0.0       0.0       0.0       0.0       0.0       2.3
30 H  s               0.0       0.0       0.0       0.0       0.0       8.1

                     18        19        20        21        22        23   
                  -0.97168  -0.90819  -0.79596  -0.75754  -0.71960  -0.69523
                   2.00000   2.00000   2.00000   2.00000   2.00000   2.00000
                  --------  --------  --------  --------  --------  --------
 0 C  s               0.0       0.0       0.4       3.4       7.7       0.8
 0 C  pz              0.0       0.0       0.1       0.9       1.2       0.1
 0 C  px              0.0       0.0       0.1       0.3       0.2       0.0
 0 C  py              0.0       0.0       0.0       0.1       0.2       0.0
 1 C  s               0.0       0.3       1.8      10.5      13.2       0.6
 1 C  pz              0.0       0.5       0.0       0.0       0.2       0.0
 1 C  px              0.0       0.0       0.6       0.7       0.2       0.3
 1 C  py              0.0       0.0       0.1       0.4       0.3       0.1
 2 H  s               0.0       0.1       0.3       1.8       2.4       0.1
 3 C  s               0.0       0.0       7.4      12.8       0.4       0.3
 3 C  px              0.0       0.0       0.7       0.3       5.3       1.2
 3 C  py              0.0       0.0       0.0       0.0       0.6       2.4
 3 C  dz2             0.0       0.0       0.1       0.1       0.0       0.0
 4 C  s               0.0       0.0       5.9       6.0       2.3       2.1
 4 C  px              0.0       0.0       0.6       0.1       2.7       0.7
 4 C  py              0.0       0.0       0.9       1.5       0.2       0.5
 5 C  s               0.0       0.0       7.0       0.8       7.7       6.5
 5 C  px              0.0       0.0       0.0       1.8       0.0       0.1
 5 C  py              0.0       0.0       1.8       0.0       0.6       0.0
 6 C  s               0.0       0.0      13.6       1.2       4.0       3.6
 6 C  px              0.1       0.0       0.1       2.5       2.2       1.1
 6 C  py              0.0       0.0       0.5       0.4       0.5       6.3
 6 C  dz2             0.0       0.0       0.2       0.0       0.0       0.0
 6 C  dx2y2           0.0       0.0       0.0       0.0       0.0       0.1
 7 C  s               0.8       0.0       5.6       4.6       0.1      10.0
 7 C  px              0.9       0.0       1.0       0.0       1.7       0.0
 7 C  py              0.4       0.0       0.8       1.2       0.7       0.1
 8 C  s               9.5       0.0       2.8       5.5       4.3       3.5
 8 C  px              8.2       0.0       2.2       2.3       0.3       0.7
 8 C  py              0.3       0.0       0.0       0.3       1.3       1.8
 8 C  dz2             0.3       0.0       0.0       0.1       0.0       0.0
 8 C  dx2y2           0.6       0.0       0.0       0.0       0.0       0.0
 8 C  dxy             0.1       0.0       0.0       0.0       0.0       0.1
 9 C  s               0.7       0.0       3.8       7.0       6.7       0.7
 9 C  px              0.3       0.0       0.9       0.5       0.0       2.2
 9 C  py              0.9       0.0       0.4       0.7       0.4       1.6
 9 C  dx2y2           0.0       0.0       0.0       0.0       0.0       0.1
10 C  s               0.1       0.0       6.1       4.6       2.1       9.8
10 C  px              0.1       0.0       0.1       0.8       1.7       0.9
10 C  py              0.0       0.0       1.7       0.6       0.0       0.2
11 C  s               0.0       0.0      14.0       0.8       0.6       9.3
11 C  px              0.0       0.0       0.0       3.8       0.8       0.5
11 C  py              0.0       0.0       0.5       0.0       1.8       5.1
11 C  dz2             0.0       0.0       0.2       0.0       0.0       0.1
12 C  s               0.0       0.0       8.1       2.8       0.3       9.1
12 C  px              0.0       0.0       0.5       2.1       0.7       1.3
12 C  py              0.0       0.0       1.3       1.1       0.2       0.0
13 O  s              54.9       0.0       0.4       0.6       0.2       0.3
13 O  px              1.4       0.0       0.3       1.0       1.6       1.6
13 O  py              1.5       0.0       0.2       0.6       1.2       0.5
14 C  s               7.6       0.0       0.3       0.9       1.9       1.5
14 C  px              1.3       0.0       0.0       0.0       0.0       0.1
14 C  py              6.2       0.0       0.1       0.2       0.1       0.1
14 C  dz2             0.2       0.0       0.0       0.0       0.0       0.0
14 C  dx2y2           0.3       0.0       0.0       0.0       0.0       0.0
14 C  dxy             0.3       0.0       0.0       0.0       0.0       0.0
15 C  s               0.0       5.1       0.1       0.7       1.4       0.1
15 C  pz              0.0       9.8       0.4       2.6       4.3       0.3
15 C  px              0.0       0.0       0.2       1.0       0.9       0.0
15 C  py              0.0      15.2       0.0       0.2       0.3       0.0
15 C  dz2             0.0       1.0       0.0       0.0       0.0       0.0
15 C  dxz             0.0       0.1       0.0       0.0       0.0       0.0
15 C  dyz             0.0       0.8       0.0       0.0       0.0       0.0
15 C  dxy             0.0       0.2       0.0       0.0       0.0       0.0
16 O  s               0.0      43.0       0.1       0.4       0.6       0.0
16 O  pz              0.0       3.3       0.0       0.0       0.1       0.0
16 O  px              0.0       0.2       0.0       0.0       0.0       0.0
16 O  py              0.0       1.0       0.0       0.0       0.0       0.0
17 O  s               0.0      15.7       0.0       0.2       0.3       0.0
17 O  pz              0.0       0.2       0.0       0.3       0.6       0.1
17 O  px              0.0       0.1       0.0       0.1       0.3       0.0
17 O  py              0.0       0.3       0.0       0.2       0.6       0.1
18 H  s               0.0       0.0       0.1       0.6       1.4       0.1
19 H  s               0.0       0.0       0.0       0.5       1.4       0.2
20 H  s               0.0       0.0       0.1       0.7       1.4       0.2
21 H  s               0.0       0.0       0.8       1.0       0.2       0.5
22 H  s               0.0       0.0       0.9       0.1       1.2       1.5
23 H  s               0.1       0.0       0.7       0.5       0.0       2.1
24 H  s               0.2       0.0       0.4       0.9       1.1       0.1
25 H  s               0.0       0.0       0.8       0.6       0.3       2.2
26 H  s               0.0       0.0       1.1       0.4       0.0       2.0
27 H  s               0.9       0.0       0.0       0.1       0.3       0.2
28 H  s               0.9       0.0       0.0       0.2       0.4       0.4
29 H  s               0.9       0.0       0.0       0.1       0.3       0.2
30 H  s               0.0       2.7       0.0       0.2       0.5       0.1

                     24        25        26        27        28        29   
                  -0.67264  -0.64834  -0.62755  -0.60376  -0.56607  -0.55892
                   2.00000   2.00000   2.00000   2.00000   2.00000   2.00000
                  --------  --------  --------  --------  --------  --------
 0 C  s               4.2       0.5       6.5      16.6       3.3       1.4
 0 C  pz              0.2       0.0       0.0       1.2       0.7       0.3
 0 C  px              0.0       0.0       0.1       0.0       0.3       0.4
 0 C  py              0.0       0.0       0.0       0.0       0.8       0.0
 1 C  s               2.3       0.0       0.1       0.4       4.8       1.0
 1 C  pz              0.3       0.1       1.2      10.0       0.9       0.3
 1 C  px              1.8       0.5       3.5       0.1       1.3       1.2
 1 C  py              0.0       0.3       0.0       0.2       3.1       0.0
 1 C  dxz             0.0       0.0       0.0       0.2       0.0       0.0
 1 C  dyz             0.0       0.0       0.0       0.2       0.0       0.0
 2 H  s               0.5       0.0       0.0       0.0       3.4       0.2
 3 C  s               3.4       0.8       6.0       0.1       0.4       0.6
 3 C  pz              0.0       0.0       0.0       0.4       0.0       0.0
 3 C  px              1.6       0.5       0.0       0.5       2.2       3.6
 3 C  py              0.8       6.2       0.0       0.0       5.0       4.0
 3 C  dxy             0.0       0.1       0.0       0.0       0.0       0.1
 4 C  s               6.2       7.0       1.0       0.1       4.8       2.7
 4 C  px              0.0       0.8       1.7       0.0       0.6       3.1
 4 C  py              0.3       1.3       1.3       0.0       0.2       0.0
 5 C  s               0.3       6.4       2.1       0.0       1.0       1.2
 5 C  px              4.2       2.3       0.8       0.2       6.2       0.9
 5 C  py              0.1       0.2       0.2       0.0       0.1       0.1
 6 C  s               5.2       0.3       1.9       0.2       3.2       0.0
 6 C  px              1.2       1.9       3.9       0.0       0.3       2.5
 6 C  py              0.2       0.7       0.1       0.0       2.0       0.9
 6 C  dx2y2           0.0       0.0       0.1       0.0       0.0       0.0
 6 C  dxy             0.0       0.1       0.0       0.0       0.0       0.0
 7 C  s               2.8       4.7       4.9       0.1       0.9       1.1
 7 C  px              2.0       0.2       1.9       0.3       4.9       0.0
 7 C  py              0.2       0.1       0.2       0.0       0.3       0.1
 8 C  s               3.3       1.3       1.2       0.2       1.2       1.2
 8 C  px              2.0       0.1       6.7       0.2       0.5       0.1
 8 C  py              3.1       4.4       0.6       0.0       3.6       5.9
 8 C  dx2y2           0.0       0.1       0.3       0.0       0.0       0.2
 8 C  dxy             0.0       0.1       0.0       0.0       0.0       0.0
 9 C  s               2.9       7.7       1.3       0.1       2.3       5.5
 9 C  px              1.2       1.8       0.1       0.0       0.1       4.8
 9 C  py              0.3       1.5       0.2       0.0       0.8       0.5
 9 C  dx2y2           0.0       0.1       0.0       0.0       0.0       0.1
10 C  s               0.1       7.7       0.1       0.1       0.0       4.3
10 C  px              1.2       3.4       2.0       0.1       2.8       3.0
10 C  py              0.3       0.1       0.1       0.0       0.1       0.1
11 C  s               1.9       0.9       3.6       0.1       1.2       0.5
11 C  px              1.2       4.5       0.0       0.2       0.2       6.6
11 C  py              0.5       0.5       0.2       0.0       1.7       1.2
11 C  dxy             0.0       0.1       0.0       0.0       0.0       0.1
12 C  s               0.7       9.0       0.3       0.3       0.1       4.7
12 C  px              1.2       0.0       4.1       0.1       3.0       0.0
12 C  py              0.4       0.1       0.3       0.0       0.0       0.1
12 C  dxy             0.0       0.0       0.1       0.0       0.0       0.0
13 O  s               0.2       0.0       3.2       0.2       0.6       1.2
13 O  px              5.9       2.4       1.4       0.0       0.8       0.1
13 O  py              5.9       0.8       3.5       0.1       0.2       0.2
13 O  dx2y2           0.1       0.0       0.0       0.0       0.0       0.0
14 C  s              11.6       3.8      11.7       0.4       0.1       3.7
14 C  px              0.0       0.2       0.1       0.0       0.2       0.5
14 C  py              0.1       0.0       1.1       0.1       0.4       2.2
15 C  s               0.5       0.0       0.1       7.2       0.4       0.4
15 C  pz              1.2       0.1       0.2       5.0       0.1       0.0
15 C  px              0.0       0.0       0.1       0.8       0.7       0.7
15 C  py              0.1       0.0       0.0       1.5       2.9       1.2
15 C  dyz             0.0       0.0       0.0       0.0       0.1       0.0
16 O  s               0.1       0.0       0.0       1.8       0.0       0.0
16 O  pz              0.0       0.0       0.0       0.6       0.0       0.0
16 O  py              0.0       0.0       0.0       0.1       0.2       0.1
17 O  s               0.1       0.0       0.0       0.6       0.2       0.1
17 O  pz              0.3       0.1       0.2       5.7       2.3       1.3
17 O  px              0.1       0.1       0.0       5.4       2.0       0.7
17 O  py              0.4       0.1       0.2      15.0       7.0       5.0
17 O  dz2             0.0       0.0       0.0       0.2       0.1       0.0
18 H  s               0.8       0.1       1.5       5.6       1.0       0.4
19 H  s               1.0       0.1       1.9       4.5       1.3       0.8
20 H  s               0.8       0.2       1.5       4.2       1.9       0.4
21 H  s               1.1       1.9       0.3       0.0       2.3       1.8
22 H  s               0.0       1.5       0.4       0.0       0.5       0.3
23 H  s               0.8       1.0       1.5       0.0       0.3       0.3
24 H  s               0.9       1.7       0.1       0.0       1.3       2.8
25 H  s               0.0       1.6       0.0       0.0       0.0       1.5
26 H  s               0.1       2.1       0.1       0.1       0.0       1.2
27 H  s               2.6       0.8       3.7       0.1       0.1       1.7
28 H  s               3.0       1.2       3.5       0.1       0.0       1.8
29 H  s               2.6       0.8       3.7       0.1       0.1       1.7
30 H  s               0.3       0.1       0.1       7.6       3.6       1.9

                     30        31        32        33        34        35   
                  -0.54106  -0.52477  -0.48352  -0.46691  -0.45855  -0.42725
                   2.00000   2.00000   2.00000   2.00000   2.00000   2.00000
                  --------  --------  --------  --------  --------  --------
[...]
14 C  dxy             0.0       1.0       0.0       0.0       0.3       0.0
15 C  s               0.0       0.2       3.8       0.0       0.0       0.1
15 C  pz              0.0       0.0       0.3       0.0       0.0       0.9
15 C  px              0.3       0.0       0.4       0.0       0.0       0.1
15 C  py              0.0       0.1       2.2       0.0       0.0       3.0
15 C  dz2             4.1       0.0       0.3       0.0       0.0       9.6
15 C  dxz             8.2       0.4       1.8       0.0       0.0       2.7
15 C  dyz             0.0       0.2       6.1       0.0       0.0       1.4
15 C  dx2y2           0.3       0.0       0.0       0.0       0.0       6.6
15 C  dxy             8.0       0.0       2.1       0.0       0.0       1.2
16 O  s               0.0       0.0       0.6       0.0       0.0       0.9
16 O  pz              0.1       0.0       0.1       0.0       0.0       0.1
16 O  px              0.8       0.0       0.0       0.0       0.0       0.1
16 O  py              0.1       0.0       0.5       0.0       0.0       1.1
16 O  dz2            16.5       0.0       3.8       0.0       0.0       1.8
16 O  dxz            30.9       0.5       0.5       0.0       0.0       2.3
16 O  dyz             0.2       0.2       9.2       0.0       0.1      19.6
16 O  dx2y2           0.1       0.3       9.2       0.0       0.0       8.3
16 O  dxy            14.0       0.3       0.3       0.0       0.0       0.0
17 O  s               0.0       0.1       2.7       0.0       0.0       1.7
17 O  pz              0.0       0.0       0.1       0.0       0.0       0.2
17 O  px              0.1       0.0       0.1       0.0       0.0       0.4
17 O  py              0.0       0.1       1.9       0.0       0.0       2.5
17 O  dz2             0.3       0.3       4.6       0.0       0.0      10.5
17 O  dxz             0.0       0.0       1.2       0.0       0.0       0.2
17 O  dyz             1.8       1.1      18.4       0.0       0.0       0.0
17 O  dx2y2           2.9       0.6      21.1       0.0       0.0      13.8
17 O  dxy             6.0       0.2       1.3       0.0       0.0       7.4
21 H  s               0.0       0.1       0.0       0.1       0.3       0.0
22 H  s               0.0       0.0       0.0       0.1       0.3       0.0
23 H  s               0.0       0.1       0.0       0.0       0.0       0.0
24 H  s               0.0       0.1       0.0       0.0       0.0       0.0
25 H  s               0.0       0.3       0.0       0.0       0.0       0.0
26 H  s               0.0       0.0       0.0       0.1       0.3       0.0
30 H  s               0.0       0.0       0.6       0.0       0.0       0.2

                    264       265   
                   3.49880   3.54056
                   0.00000   0.00000
                  --------  --------
 1 C  pz              0.0       0.1
 1 C  dz2             0.0       0.2
 1 C  dx2y2           0.0       0.1
 3 C  dx2y2           0.7       0.1
 4 C  dxy             0.5       0.0
 5 C  s               0.2       0.0
 5 C  px              0.1       0.0
 5 C  py              0.1       0.0
 5 C  dx2y2           0.2       0.0
 5 C  dxy             0.9       0.0
 6 C  px              0.1       0.0
 6 C  dx2y2           0.2       0.0
 6 C  dxy             6.2       0.0
 7 C  s               0.4       0.0
 7 C  dx2y2           5.0       0.0
 7 C  dxy             1.5       0.0
 8 C  s               0.4       0.0
 8 C  px              2.2       0.0
 8 C  py              0.1       0.0
 8 C  dz2             0.1       0.0
 8 C  dxz             0.2       0.0
 8 C  dx2y2          13.6       0.0
 8 C  dxy             2.4       0.0
 9 C  s               0.5       0.0
 9 C  dz2             0.2       0.0
 9 C  dxy             6.4       0.0
10 C  s               0.4       0.0
10 C  dx2y2           2.8       0.0
10 C  dxy             1.8       0.0
11 C  px              0.2       0.0
11 C  dx2y2           3.5       0.0
11 C  dxy             2.3       0.0
12 C  s               0.2       0.0
12 C  px              0.2       0.0
12 C  dx2y2           1.1       0.0
13 O  s               0.6       0.0
13 O  px              2.6       0.0
13 O  py              1.0       0.0
13 O  dz2             1.0       0.0
13 O  dxz             0.6       0.0
13 O  dx2y2          34.5       0.0
14 C  s               0.5       0.0
14 C  px              0.2       0.0
14 C  py              0.5       0.0
14 C  dz2             0.2       0.0
14 C  dx2y2           0.2       0.0
14 C  dxy             1.1       0.0
15 C  s               0.0       7.1
15 C  pz              0.0       3.8
15 C  px              0.0       0.3
15 C  py              0.0       1.0
15 C  dz2             0.0       0.2
15 C  dyz             0.0       8.5
15 C  dx2y2           0.0       2.0
15 C  dxy             0.0       0.1
16 O  s               0.0       4.8
16 O  pz              0.0       2.9
16 O  px              0.0       0.2
16 O  py              0.0       0.5
16 O  dz2             0.1      27.5
16 O  dxz             0.0       6.7
16 O  dyz             0.0      23.1
16 O  dx2y2           0.0       0.3
16 O  dxy             0.0       2.0
17 O  s               0.0       0.1
17 O  pz              0.0       0.2
17 O  py              0.0       0.1
17 O  dz2             0.0       1.0
17 O  dxz             0.0       0.2
17 O  dyz             0.0       3.2
17 O  dx2y2           0.0       0.6
17 O  dxy             0.0       2.2
23 H  s               0.3       0.0
24 H  s               0.3       0.0
25 H  s               0.2       0.0


                      *****************************
                      * MAYER POPULATION ANALYSIS *
                      *****************************

  NA   - Mulliken gross atomic population
  ZA   - Total nuclear charge
  QA   - Mulliken gross atomic charge
  VA   - Mayer's total valence
  BVA  - Mayer's bonded valence
  FA   - Mayer's free valence

  ATOM       NA         ZA         QA         VA         BVA        FA
  0 C      6.2237     6.0000    -0.2237     3.9349     3.9349     0.0000
  1 C      6.1299     6.0000    -0.1299     3.9031     3.9031    -0.0000
  2 H      0.9186     1.0000     0.0814     0.9757     0.9757    -0.0000
  3 C      5.8806     6.0000     0.1194     3.8898     3.8898     0.0000
  4 C      6.1071     6.0000    -0.1071     3.7888     3.7888    -0.0000
  5 C      6.1266     6.0000    -0.1266     3.7629     3.7629     0.0000
  6 C      5.8282     6.0000     0.1718     3.8118     3.8118     0.0000
  7 C      6.3005     6.0000    -0.3005     3.6845     3.6845    -0.0000
  8 C      5.7057     6.0000     0.2943     3.8600     3.8600     0.0000
  9 C      6.0929     6.0000    -0.0929     3.7773     3.7773    -0.0000
 10 C      6.1280     6.0000    -0.1280     3.7316     3.7316    -0.0000
 11 C      5.8238     6.0000     0.1762     3.7810     3.7810    -0.0000
 12 C      6.2145     6.0000    -0.2145     3.7793     3.7793    -0.0000
 13 O      8.2677     8.0000    -0.2677     2.2708     2.2708     0.0000
 14 C      6.1141     6.0000    -0.1141     3.8932     3.8932     0.0000
 15 C      5.8884     6.0000     0.1116     4.3958     4.3958     0.0000
 16 O      8.1870     8.0000    -0.1870     2.3140     2.3140     0.0000
 17 O      8.2877     8.0000    -0.2877     2.1778     2.1778    -0.0000
 18 H      0.8919     1.0000     0.1081     0.9573     0.9573     0.0000
 19 H      0.8937     1.0000     0.1063     0.9526     0.9526    -0.0000
 20 H      0.8806     1.0000     0.1194     0.9727     0.9727    -0.0000
 21 H      0.9489     1.0000     0.0511     0.9798     0.9798    -0.0000
 22 H      0.9687     1.0000     0.0313     0.9580     0.9580     0.0000
 23 H      0.9763     1.0000     0.0237     0.9785     0.9785    -0.0000
 24 H      0.9531     1.0000     0.0469     0.9693     0.9693    -0.0000
 25 H      0.9580     1.0000     0.0420     0.9581     0.9581    -0.0000
 26 H      0.9721     1.0000     0.0279     0.9693     0.9693    -0.0000
 27 H      0.8882     1.0000     0.1118     0.9521     0.9521    -0.0000
 28 H      0.8731     1.0000     0.1269     0.9541     0.9541    -0.0000
 29 H      0.8877     1.0000     0.1123     0.9520     0.9520    -0.0000
 30 H      0.6827     1.0000     0.3173     0.9055     0.9055     0.0000

  Mayer bond orders larger than 0.100000
B(  0-C ,  1-C ) :   1.0880 B(  0-C , 18-H ) :   0.9461 B(  0-C , 19-H ) :   0.9506 
B(  0-C , 20-H ) :   0.9364 B(  1-C ,  2-H ) :   0.8760 B(  1-C ,  3-C ) :   0.9989 
B(  1-C , 15-C ) :   0.9398 B(  3-C ,  4-C ) :   1.2574 B(  3-C , 12-C ) :   1.4513 
B(  4-C ,  5-C ) :   1.4479 B(  4-C , 21-H ) :   0.9488 B(  5-C ,  6-C ) :   1.2303 
B(  5-C , 22-H ) :   0.9654 B(  6-C ,  7-C ) :   1.2018 B(  6-C , 11-C ) :   1.2573 
B(  7-C ,  8-C ) :   1.3348 B(  7-C , 23-H ) :   0.9642 B(  8-C ,  9-C ) :   1.2453 
B(  8-C , 13-O ) :   1.1404 B(  9-C , 10-C ) :   1.4585 B(  9-C , 24-H ) :   0.9616 
B( 10-C , 11-C ) :   1.2047 B( 10-C , 25-H ) :   0.9676 B( 11-C , 12-C ) :   1.2263 
B( 12-C , 26-H ) :   0.9630 B( 13-O , 14-C ) :   0.9881 B( 14-C , 27-H ) :   0.9415 
B( 14-C , 28-H ) :   0.9585 B( 14-C , 29-H ) :   0.9415 B( 15-C , 16-O ) :   2.1329 
B( 15-C , 17-O ) :   1.2489 B( 17-O , 30-H ) :   0.8172 

-------
TIMINGS
-------

Total SCF time: 0 days 0 hours 0 min 21 sec 

Total time                  ....      21.096 sec
Sum of individual times     ....      20.280 sec  ( 96.1%)

SCF preparation             ....       0.236 sec  (  1.1%)
Fock matrix formation       ....      18.651 sec  ( 88.4%)
  Startup                   ....       0.093 sec  (  0.5% of F)
  Split-RI-J                ....       9.524 sec  ( 51.1% of F)
  XC integration            ....       8.366 sec  ( 44.9% of F)
    Basis function eval.    ....       3.055 sec  ( 36.5% of XC)
    Density eval.           ....       1.507 sec  ( 18.0% of XC)
    XC-Functional eval.     ....       0.567 sec  (  6.8% of XC)
    XC-Potential eval.      ....       2.084 sec  ( 24.9% of XC)
Diagonalization             ....       0.000 sec  (  0.0%)
Density matrix formation    ....       0.269 sec  (  1.3%)
Total Energy calculation    ....       0.052 sec  (  0.2%)
Population analysis         ....       0.191 sec  (  0.9%)
Orbital Transformation      ....       0.094 sec  (  0.4%)
Orbital Orthonormalization  ....       0.000 sec  (  0.0%)
DIIS solution               ....       0.656 sec  (  3.1%)
  MO trafo                  ....       0.000 sec  (  0.0 % of DIIS)
  Orb grad                  ....       0.000 sec  (  0.0 % of DIIS)
  Energy W gradient         ....       0.000 sec  (  0.0 % of DIIS)
  DIIS error                ....       0.030 sec  (  4.5 % of DIIS)
  DIIS work                 ....       0.552 sec  ( 84.1 % of DIIS)
  Form Q                    ....       0.000 sec  (  0.0 % of DIIS)
  Form QpQm                 ....       0.000 sec  (  0.0 % of DIIS)
  Exp/Cayley                ....       0.000 sec  (  0.0 % of DIIS)
  Orb update                ....       0.000 sec  (  0.0 % of DIIS)
  Wake-sleep                ....       0.029 sec  (  4.5 % of DIIS)
SOSCF solution              ....       0.131 sec  (  0.6%)
  MO trafo                  ....       0.078 sec  ( 59.1 % of SOSCF)
  Orb grad                  ....       0.002 sec  (  1.2 % of SOSCF)
  Rot update                ....       0.013 sec  ( 10.2 % of SOSCF)
  Step                      ....       0.039 sec  ( 29.4 % of SOSCF)
Finished LeanSCF after  21.2 sec

Maximum memory used throughout the entire LEANSCF-calculation: 25.2 MB


-------------------------------------------------------------------------------
                          DFT DISPERSION CORRECTION                            
                                                                               
                                DFTD4 V3.4.0                                   
-------------------------------------------------------------------------------
The PBE functional is recognized
Active option DFTDOPT                   ...         5   

-------------------------   ----------------
Dispersion correction           -0.038976532
-------------------------   ----------------

------------------   -----------------
gCP correction             0.133480207
------------------   -----------------

-------------------------   --------------------
FINAL SINGLE POINT ENERGY      -765.992945894261
-------------------------   --------------------


------------------------------------------------------------------------------
                              ORCA PROPERTY CALCULATIONS
------------------------------------------------------------------------------

GBWName                                 ... sp.gbw
Number of atoms                         ...     31
Number of basis functions               ...    266
Max core memory                         ...   1024 MB

Electric properties:
Dipole moment                           ... YES
Quadrupole moment                       ...  NO
Static polarizability (Dipole/Dipole)   ...  NO
Static polarizability (Dipole/Quad.)    ...  NO
Static polarizability (Quad./Quad.)     ...  NO
Static polarizability (Velocity)        ...  NO

Atomic electric properties:
Dipole moment                           ...  NO
Quadrupole moment                       ...  NO
Static polarizability                   ...  NO

Choice of electric origin               ... Center of mass
Position of electric origin             ...     0.000013    -0.000001     0.000013

General magnetic properties:
Magnetizability                         ...  NO

EPR properties:
g-Tensor (aka g-matrix)                 ...  NO
Zero-Field splitting spin-orbit         ...  NO
Zero-field splitting spin-spin          ...  NO
Hyperfine couplings                     ...  NO (   0 nuclei)
Quadrupole couplings                    ...  NO (   0 nuclei)
Contact density                         ...  NO (   0 nuclei)

NMR properties:
Chemical shifts                         ...  NO (   0 nuclei)
Spin-rotation constants                 ...  NO (   0 nuclei)
Spin-spin couplings                     ...  NO (   0 nuclei,    0 pairs)

Choice of magnetic origin               ... GIAO
Position of magnetic origin             ...     0.000000     0.000000     0.000000

Properties with geometric perturbations:
SCF Hessian                             ...  NO
IR spectrum                             ...  NO
VCD spectrum                            ...  NO
X-ray spectroscopy properties:
SCF XES/XAS/RIXS spectra                ...  NO


-------------
DIPOLE MOMENT
-------------

Method             : SCF
Type of density    : Electron Density
Multiplicity       :   1
Irrep              :   0
Energy             :  -766.0874495700027182 Eh
Relativity type    : 
Basis              : AO
                                X                 Y                 Z
Electronic contribution:     -2.261455366       2.904027948      -4.884470514
Nuclear contribution   :      2.624037194      -3.868699846       5.285380870
                        -----------------------------------------
Total Dipole Moment    :      0.362581828      -0.964671898       0.400910356
                        -----------------------------------------
Magnitude (a.u.)       :      1.105796801
Magnitude (Debye)      :      2.810712098



--------------------
Rotational spectrum 
--------------------
 
Rotational constants in cm-1:             0.044017             0.006963             0.006614 
Rotational constants in MHz :          1319.582141           208.738010           198.276396 

Dipole components along the rotational axes: 
x,y,z [a.u.] :     0.357189     0.971123     0.390030 
x,y,z [Debye]:     0.907901     2.468398     0.991378 

 

Dipole moment calculation done in   0.0 sec 

Maximum memory used throughout the entire PROP-calculation: 17.0 MB

--------------------------------
SUGGESTED CITATIONS FOR THIS RUN
--------------------------------

Below you find a list of papers that are relevant to this ORCA run
We neither can nor want to force you to cite these papers, but we appreciate if you do
You receive ORCA, which is the product of decades of hard work by many enthusiastic individuals, for free
The only thing we kindly ask in return is that you cite our papers,
We deeply appreciate it, if you show your appreciation for ORCA by not just citing the generic ORCA reference.

Please note that relegating all ORCA citations to the supporting information does *not* help us.
SI sections are not indexed - citations you put there will not count into any citation statistics
But we need these citations in order to attract the funding resources that allow us to do what we are doing

Therefore, if you are a happy ORCA user, please consider citing a few of the papers listed below in the main body of your paper

In addition to the list printed below, the program has created the file sp.bibtex that contains the list in bibtex format
You can import this file easily into all common literature databanks and citation aid programs


List of essential papers. We consider these as the minimum necessary citations

  1. Neese,F.
     Software update: the ORCA program system, version 5.0
     WIRES Comput. Molec. Sci., 2022 12(1)e1606
     doi.org/10.1002/wcms.1606

List of papers to cite with high priority. The work reported in these papers was absolutely
necessary for this run to complete.
Our perspective: the developers of density functionals and basis sets usually get cited in chemistry papers
Good! But without the algorithms to do something with them, the functionals or basis sets would not do anything.
Hence, in our opinion, the algorithm design and method developments papers are equally worthy of getting cited

  1. Neese,F.
     An improvement of the resolution of the identity approximation for the formation of the Coulomb matrix
     J. Comp. Chem., 2003 24(14)1740-1747
     doi.org/10.1002/jcc.10318
  2. Neese,F.
     The SHARK Integral Generation and Digestion System
     J. Comp. Chem., 2022  1-16
     doi.org/10.1002/jcc.26942
  3. Caldeweyher,E.; Bannwarth,C.; Grimme,S.
     Extension of the D3 dispersion coefficient model
     J. Chem. Phys., 2017 147 034112-XXXX
     doi.org/10.1063/1.4993215
  4. Caldeweyher,E.; Ehlert,S.; Hansen,A.; Neugebauer,H.; Spicher,S.; Bannwarth,C.; Grimme,S.
     A generally applicable atomic-charge dependent London dispersion correction
     J. Chem. Phys., 2019 150 154122-XXXX
     doi.org/10.1063/1.5090222
  5. Caldeweyher,E.; Mewes,J.; Ehlert,S.; Grimme,S.
     Extension and evaluation of the D4 London-dispersion model for periodic systems
     Phys. Chem. Chem. Phys., 2020 22(16)8499-8512
     doi.org/10.1039/D0CP00502A

List of suggested additional citations. These are papers that are important in the 'surrounding' of 
of this run, or papers that preceded the highly important papers. If you like your results we are grateful for a citation.

  1. Neese,F.
     The ORCA program system
     WIRES Comput. Molec. Sci., 2012 2(1)73-78
     doi.org/10.1002/wcms.81
  2. Neese,F.
     Software update: the ORCA program system, version 4.0
     WIRES Comput. Molec. Sci., 2018 8(1)1-6
     doi.org/10.1002/wcms.1327
  3. Neese,F.; Wennmohs,F.; Becker,U.; Riplinger,C.
     The ORCA quantum chemistry program package
     J. Chem. Phys., 2020 152 Art. No. L224108
     doi.org/10.1063/5.0004608

List of optional additional citations

  1. Neese,F.
     Approximate second-order SCF convergence for spin unrestricted wavefunctions
     Chem. Phys. Lett., 2000 325(1-3)93-98
     doi.org/10.1016/s0009-2614(00)00662-x

Timings for individual modules:

Sum of individual times          ...       25.011 sec (=   0.417 min)
Startup calculation              ...        1.665 sec (=   0.028 min)   6.7 %
SCF iterations                   ...       23.188 sec (=   0.386 min)  92.7 %
Property calculations            ...        0.158 sec (=   0.003 min)   0.6 %
                             ****ORCA TERMINATED NORMALLY****
TOTAL RUN TIME: 0 days 0 hours 0 minutes 25 seconds 976 msec
