 Entering Gaussian System
 *********************************************
 Gaussian 98:
 frequency output generated by the xtb code
 *********************************************
                         Standard orientation:
 --------------------------------------------------------------------
  Center     Atomic     Atomic              Coordinates (Angstroms)
  Number     Number      Type              X           Y           Z
 --------------------------------------------------------------------
    1          6             0       -4.482147   -1.245062   -0.010096
    2          6             0       -3.659607   -2.360613    0.065578
    3          6             0       -2.286064   -2.206925    0.100474
    4          6             0       -1.709936   -0.939080    0.060110
    5          6             0       -2.540573    0.184406   -0.016499
    6          6             0       -3.924213    0.018542   -0.050642
    7          6             0       -1.972438    1.537505   -0.061730
    8          8             0       -2.690513    2.533844   -0.124369
    9          6             0       -0.503376    1.643641   -0.029728
   10          6             0        0.033216    2.919040   -0.080206
   11          6             0        1.413043    3.104616   -0.058330
   12          6             0        2.250989    2.024775    0.015717
   13          6             0        1.747929    0.700995    0.075126
   14          6             0        0.332738    0.505309    0.048784
   15          6             0       -0.237467   -0.823998    0.100453
   16          8             0        0.444360   -1.859885    0.175774
   17          7             0        2.586725   -0.335400    0.156589
   18          6             0        4.026787   -0.263534    0.183376
   19          6             0        4.595274   -1.665169    0.423027
   20          8             0        4.202748   -2.592235   -0.561341
   21          1             0       -5.554047   -1.362074   -0.037184
   22          1             0       -4.090027   -3.349237    0.097366
   23          1             0       -1.628537   -3.061726    0.159279
   24          1             0       -4.539527    0.904206   -0.109506
   25          1             0       -0.643899    3.757259   -0.138602
   26          1             0        1.818283    4.103295   -0.102062
   27          1             0        3.316765    2.177848    0.027367
   28          1             0        2.170583   -1.264656    0.149887
   29          1             0        4.363856    0.390574    0.993480
   30          1             0        4.404318    0.131201   -0.768377
   31          1             0        4.209779   -2.063128    1.364262
   32          1             0        5.688523   -1.604720    0.488812
   33          1             0        4.560146   -2.323289   -1.419154
 --------------------------------------------------------------------
     1 basis functions        1 primitive gaussians
     1 alpha electrons        1 beta electrons
 
 Harmonic frequencies (cm**-1), IR intensities (km*mol⁻¹),
 Raman scattering activities (A**4/amu), Raman depolarization ratios,
 reduced masses (AMU), force constants (mDyne/A) and normal coordinates:
                      1                      2                      3
                        a                      a                      a 
 Frequencies --    24.3768                27.9489                50.7331
 Red. masses --    13.2954                12.9273                12.6249
 Frc consts  --     0.0000                 0.0000                 0.0000
 IR Inten    --     3.0369                14.1376                 1.5036
 Raman Activ --     0.0000                 0.0000                 0.0000
 Depolar     --     0.0000                 0.0000                 0.0000
 Atom AN      X      Y      Z        X      Y      Z        X      Y      Z
   1   6    -0.01   0.01  -0.03     0.02  -0.02  -0.32    -0.09   0.08   0.02
   2   6    -0.02   0.01   0.13     0.02  -0.02  -0.26    -0.11   0.06  -0.05
   3   6    -0.02   0.01   0.18     0.02  -0.01  -0.07    -0.11   0.02  -0.06
   4   6    -0.01  -0.00   0.08     0.01   0.00   0.07    -0.07   0.00  -0.01
   5   6    -0.00  -0.00  -0.07     0.01  -0.00   0.01    -0.05   0.03   0.05
   6   6    -0.00   0.00  -0.13     0.01  -0.02  -0.17    -0.05   0.07   0.07
   7   6     0.01  -0.01  -0.17    -0.00   0.00   0.15    -0.02   0.02   0.08
   8   8     0.03  -0.02  -0.41    -0.01   0.01   0.37     0.01   0.05   0.26
   9   6     0.01  -0.01  -0.03     0.00   0.00   0.05    -0.01  -0.03  -0.05
  10   6     0.02  -0.02  -0.03     0.00  -0.00  -0.11     0.01  -0.04  -0.13
  11   6     0.02  -0.02   0.10     0.01  -0.01  -0.24     0.02  -0.07  -0.19
  12   6     0.01  -0.02   0.18     0.01  -0.00  -0.18    -0.01  -0.09  -0.13
  13   6    -0.00  -0.02   0.15     0.00   0.01   0.02    -0.03  -0.08  -0.06
  14   6    -0.00  -0.01   0.08     0.00   0.01   0.12    -0.04  -0.05  -0.05
  15   6    -0.01  -0.01   0.14     0.00   0.01   0.25    -0.07  -0.03  -0.01
  16   8    -0.03  -0.01   0.28    -0.00   0.03   0.55    -0.10  -0.05   0.01
  17   7    -0.01  -0.03   0.20     0.00   0.01   0.11    -0.04  -0.09  -0.01
  18   6    -0.01  -0.02   0.16     0.01   0.01  -0.11    -0.04  -0.02   0.22
  19   6     0.02  -0.07  -0.22     0.03   0.01  -0.14     0.05   0.01   0.16
  20   8     0.04   0.21  -0.53    -0.13  -0.03  -0.05     0.66   0.16  -0.19
  21   1    -0.00   0.01  -0.02     0.01  -0.01  -0.14    -0.03   0.03   0.01
  22   1    -0.01   0.01   0.06     0.01  -0.01  -0.11    -0.04   0.02  -0.03
  23   1    -0.01   0.00   0.09     0.00  -0.00  -0.00    -0.04  -0.00  -0.03
  24   1     0.00   0.00  -0.07     0.00  -0.01  -0.06    -0.01   0.02   0.03
  25   1     0.01  -0.01  -0.03     0.00  -0.00  -0.04     0.01  -0.01  -0.04
  26   1     0.01  -0.01   0.04     0.00  -0.00  -0.11     0.01  -0.02  -0.08
  27   1     0.00  -0.01   0.08     0.00  -0.00  -0.07    -0.00  -0.03  -0.04
  28   1    -0.01  -0.01   0.05    -0.00   0.00   0.07    -0.01  -0.02   0.01
  29   1     0.00  -0.06   0.09     0.04   0.01  -0.05    -0.06  -0.02   0.10
  30   1    -0.01   0.06   0.07    -0.04  -0.01  -0.05     0.02   0.03   0.09
  31   1     0.01  -0.10  -0.09     0.05   0.02  -0.02    -0.07  -0.06  -0.02
  32   1     0.00  -0.02  -0.06     0.01   0.00  -0.09     0.00   0.04   0.17
  33   1     0.01   0.12  -0.11    -0.07  -0.02  -0.03     0.24   0.11   0.01
                      4                      5                      6
                        a                      a                      a 
 Frequencies --    70.9863                96.4686               106.8044
 Red. masses --    11.8000                10.3138                11.4734
 Frc consts  --     0.0000                 0.0000                 0.0000
 IR Inten    --     0.5910                 1.7924                 1.0649
 Raman Activ --     0.0000                 0.0000                 0.0000
 Depolar     --     0.0000                 0.0000                 0.0000
 Atom AN      X      Y      Z        X      Y      Z        X      Y      Z
   1   6     0.05  -0.04   0.16     0.09  -0.09  -0.16    -0.05   0.06  -0.17
   2   6     0.07  -0.04  -0.05     0.11  -0.05   0.17    -0.10   0.05   0.24
   3   6     0.07  -0.02  -0.18     0.10   0.00   0.28    -0.09   0.01   0.31
   4   6     0.05  -0.01  -0.11     0.06   0.02   0.09    -0.04  -0.02   0.05
   5   6     0.03  -0.01   0.05     0.03  -0.01  -0.09    -0.01  -0.01  -0.15
   6   6     0.03  -0.03   0.20     0.05  -0.07  -0.26    -0.01   0.03  -0.33
   7   6     0.02  -0.01   0.03    -0.00   0.01   0.02     0.01  -0.01   0.02
   8   8     0.01  -0.01   0.17    -0.04  -0.00   0.27     0.03   0.01   0.30
   9   6     0.02   0.00  -0.11    -0.00   0.05  -0.04     0.01  -0.04   0.01
  10   6     0.02  -0.00  -0.26    -0.01   0.05   0.03     0.02  -0.05  -0.05
  11   6     0.02   0.00  -0.26    -0.01   0.07   0.03     0.02  -0.06  -0.07
  12   6     0.02   0.02  -0.03     0.01   0.08  -0.05     0.00  -0.07   0.02
  13   6     0.02   0.03   0.08     0.02   0.07  -0.15    -0.00  -0.06   0.08
  14   6     0.03   0.01  -0.03     0.02   0.06  -0.11    -0.00  -0.06   0.04
  15   6     0.04   0.00  -0.11     0.05   0.05  -0.00    -0.03  -0.05  -0.07
  16   8     0.06   0.00  -0.21     0.08   0.07  -0.02    -0.03  -0.09  -0.42
  17   7     0.00   0.04   0.34    -0.02   0.05  -0.31     0.03  -0.04   0.23
  18   6     0.00  -0.00   0.36    -0.03  -0.09   0.18     0.03   0.09   0.00
  19   6    -0.09  -0.10   0.03    -0.32  -0.21   0.17     0.22   0.16  -0.10
  20   8    -0.39   0.17  -0.12    -0.13   0.01  -0.14    -0.03   0.08   0.09
  21   1     0.01  -0.01   0.08     0.03  -0.04  -0.09    -0.02   0.02  -0.09
  22   1     0.02  -0.01  -0.03     0.04  -0.02   0.09    -0.04   0.02   0.13
  23   1     0.02  -0.01  -0.09     0.04   0.01   0.14    -0.04   0.00   0.16
  24   1     0.00  -0.01   0.10     0.00  -0.03  -0.13     0.01   0.01  -0.16
  25   1     0.01  -0.00  -0.10    -0.01   0.02   0.03     0.01  -0.01  -0.03
  26   1     0.00  -0.00  -0.11    -0.01   0.02   0.03     0.01  -0.02  -0.04
  27   1     0.01   0.01   0.01     0.00   0.02  -0.01    -0.00  -0.02   0.01
  28   1    -0.00   0.01   0.08    -0.02   0.02  -0.09     0.03  -0.02   0.04
  29   1     0.00  -0.06   0.15    -0.06  -0.07   0.11     0.02   0.03  -0.01
  30   1     0.01   0.06   0.13     0.09  -0.01   0.10    -0.04   0.04  -0.01
  31   1    -0.00  -0.07  -0.00    -0.21  -0.09  -0.01     0.17   0.05   0.01
  32   1    -0.02  -0.07  -0.03    -0.10  -0.12   0.17     0.07   0.07  -0.14
  33   1    -0.13   0.08  -0.03     0.07   0.03   0.01    -0.10   0.02  -0.02
                      7                      8                      9
                        a                      a                      a 
 Frequencies --   143.2737               149.9143               179.2371
 Red. masses --    11.9289                11.5188                10.4362
 Frc consts  --     0.0000                 0.0000                 0.0000
 IR Inten    --     2.1246                 4.4952                 0.3145
 Raman Activ --     0.0000                 0.0000                 0.0000
 Depolar     --     0.0000                 0.0000                 0.0000
 Atom AN      X      Y      Z        X      Y      Z        X      Y      Z
   1   6     0.07  -0.10  -0.10    -0.02   0.04  -0.19    -0.01   0.02  -0.19
   2   6     0.12  -0.06  -0.04    -0.05   0.02  -0.16    -0.02   0.01  -0.20
   3   6     0.10   0.02   0.08    -0.05  -0.01   0.10    -0.03   0.00   0.14
   4   6     0.02   0.06   0.11    -0.01  -0.02   0.25    -0.01   0.00   0.31
   5   6    -0.02   0.03   0.10     0.01  -0.00   0.25    -0.01   0.01   0.31
   6   6    -0.00  -0.06  -0.00     0.01   0.03   0.07    -0.00   0.02   0.16
   7   6    -0.05   0.05   0.07     0.03  -0.02   0.13     0.01  -0.01   0.05
   8   8    -0.09   0.02  -0.15     0.06  -0.03  -0.34     0.01  -0.01  -0.02
   9   6    -0.05   0.09   0.17     0.02  -0.03   0.26     0.01  -0.03  -0.16
  10   6    -0.04   0.08  -0.03     0.02  -0.03   0.27     0.00  -0.04  -0.44
  11   6    -0.03   0.06  -0.17     0.03  -0.05  -0.12    -0.01  -0.00   0.02
  12   6    -0.02   0.08  -0.05     0.02  -0.06  -0.36    -0.02   0.02   0.41
  13   6    -0.02   0.09   0.18     0.01  -0.05  -0.11     0.00  -0.00   0.07
  14   6    -0.03   0.11   0.25     0.01  -0.05   0.11     0.01  -0.02   0.03
  15   6     0.01   0.10   0.05    -0.00  -0.05   0.09    -0.00  -0.01   0.10
  16   8     0.03   0.09  -0.35     0.00  -0.07  -0.20     0.01  -0.03  -0.16
  17   7    -0.09   0.05   0.35     0.04  -0.02  -0.13     0.03  -0.00  -0.28
  18   6    -0.06  -0.16  -0.16     0.02   0.08   0.17     0.03   0.03  -0.05
  19   6    -0.12  -0.17  -0.02     0.01   0.06   0.06     0.01   0.03  -0.01
  20   8     0.24  -0.27  -0.10    -0.16   0.22  -0.00    -0.02   0.00   0.03
  21   1     0.02  -0.05  -0.06    -0.00   0.02  -0.12    -0.00   0.00  -0.14
  22   1     0.05  -0.02  -0.03    -0.02   0.01  -0.11    -0.01  -0.00  -0.14
  23   1     0.04   0.02   0.03    -0.02  -0.01   0.03    -0.01  -0.00   0.04
  24   1    -0.02  -0.03  -0.01     0.01   0.01   0.01     0.00   0.01   0.05
  25   1    -0.01   0.02  -0.04     0.00  -0.01   0.13     0.00  -0.02  -0.23
  26   1    -0.01   0.02  -0.11     0.01  -0.02  -0.08    -0.00   0.00   0.03
  27   1    -0.00   0.02  -0.05     0.01  -0.03  -0.21    -0.01   0.02   0.23
  28   1    -0.06   0.03   0.07     0.02  -0.01  -0.01     0.02  -0.00  -0.11
  29   1     0.08  -0.01  -0.12    -0.05  -0.00   0.09    -0.03  -0.00   0.01
  30   1    -0.09  -0.12  -0.10     0.06   0.06   0.09     0.04   0.02   0.01
  31   1    -0.10  -0.04  -0.03     0.02  -0.00   0.01     0.00   0.02   0.00
  32   1    -0.04  -0.04   0.08     0.00   0.00  -0.00     0.00   0.00  -0.00
  33   1     0.13  -0.08   0.00    -0.06   0.08  -0.00    -0.00  -0.01   0.00
                     10                     11                     12
                        a                      a                      a 
 Frequencies --   222.2207               251.1800               264.5610
 Red. masses --     9.9991                11.3275                10.3316
 Frc consts  --     0.0000                 0.0000                 0.0000
 IR Inten    --     5.0999                 0.9085                 6.0081
 Raman Activ --     0.0000                 0.0000                 0.0000
 Depolar     --     0.0000                 0.0000                 0.0000
 Atom AN      X      Y      Z        X      Y      Z        X      Y      Z
   1   6     0.10  -0.24  -0.04     0.06  -0.10   0.15    -0.09   0.08   0.07
   2   6     0.22  -0.15  -0.03     0.09  -0.08   0.11    -0.09   0.07   0.05
   3   6     0.17   0.08   0.06     0.08   0.01  -0.18    -0.07   0.01  -0.10
   4   6    -0.05   0.17   0.06    -0.02   0.05  -0.14     0.00  -0.02  -0.06
   5   6    -0.12   0.12   0.07    -0.03   0.05  -0.17    -0.02  -0.04  -0.08
   6   6    -0.10  -0.13   0.06    -0.02  -0.07  -0.15    -0.03   0.04  -0.09
   7   6    -0.10   0.14  -0.01    -0.00   0.07   0.05    -0.05  -0.05   0.04
   8   8    -0.08   0.19  -0.01     0.06   0.12  -0.04    -0.13  -0.11  -0.03
   9   6    -0.05   0.11  -0.10     0.01   0.03   0.29    -0.05   0.01   0.18
  10   6     0.07   0.07   0.04     0.12  -0.03  -0.12    -0.16   0.04  -0.03
  11   6     0.11  -0.08   0.07     0.13  -0.11  -0.17    -0.17   0.10  -0.13
  12   6     0.05  -0.13  -0.04     0.06  -0.13   0.14    -0.08   0.16   0.02
  13   6    -0.04  -0.10  -0.10    -0.05  -0.08   0.20     0.07   0.09   0.07
  14   6    -0.06   0.09  -0.16    -0.04   0.01   0.42     0.04   0.06   0.19
  15   6    -0.09   0.15  -0.04    -0.05   0.02   0.11     0.03   0.04   0.06
  16   8    -0.16   0.14   0.01    -0.10  -0.02  -0.05     0.08   0.08  -0.01
  17   7    -0.12  -0.18  -0.04    -0.07  -0.12  -0.34     0.15   0.08  -0.28
  18   6    -0.11  -0.08   0.18    -0.09   0.07  -0.08     0.17  -0.11   0.25
  19   6     0.23  -0.00  -0.11    -0.09   0.12   0.06     0.25  -0.19  -0.11
  20   8     0.09  -0.13   0.08    -0.07   0.18   0.02     0.11  -0.32   0.03
  21   1     0.03  -0.11  -0.03     0.02  -0.04   0.11    -0.03   0.03   0.05
  22   1     0.10  -0.06  -0.03     0.04  -0.03   0.08    -0.03   0.02   0.04
  23   1     0.10   0.06   0.02     0.05   0.02  -0.07    -0.04  -0.01  -0.04
  24   1    -0.08  -0.07   0.02    -0.03  -0.04  -0.06     0.01   0.02  -0.04
  25   1     0.05   0.05   0.04     0.05   0.00  -0.12    -0.06  -0.00  -0.04
  26   1     0.05  -0.03   0.05     0.06  -0.04  -0.14    -0.06   0.03  -0.09
  27   1     0.02  -0.05  -0.00     0.02  -0.05   0.02    -0.02   0.07  -0.01
  28   1    -0.04  -0.04   0.02    -0.00  -0.04  -0.09     0.02   0.03  -0.03
  29   1    -0.08  -0.07   0.11    -0.09   0.04  -0.01    -0.01  -0.13   0.18
  30   1    -0.02   0.07   0.10     0.01   0.02  -0.01     0.14   0.09   0.16
  31   1     0.21  -0.04   0.01    -0.05   0.04   0.01     0.18  -0.09  -0.00
  32   1     0.07   0.08  -0.16    -0.03   0.02   0.04     0.08  -0.02  -0.13
  33   1    -0.17   0.04  -0.04     0.00   0.05   0.01    -0.15  -0.02  -0.04
                     13                     14                     15
                        a                      a                      a 
 Frequencies --   299.3065               330.6281               349.6116
 Red. masses --    11.4153                12.1142                 3.8710
 Frc consts  --     0.0000                 0.0000                 0.0000
 IR Inten    --    29.1979                42.4601               201.5289
 Raman Activ --     0.0000                 0.0000                 0.0000
 Depolar     --     0.0000                 0.0000                 0.0000
 Atom AN      X      Y      Z        X      Y      Z        X      Y      Z
   1   6    -0.11  -0.20  -0.00    -0.16  -0.04  -0.01     0.11   0.08  -0.00
   2   6     0.02  -0.11   0.00    -0.16  -0.05  -0.00     0.10   0.07   0.02
   3   6    -0.01   0.10   0.00    -0.14  -0.06   0.00     0.10   0.04  -0.01
   4   6    -0.14   0.15  -0.01    -0.08  -0.06  -0.00     0.07   0.03  -0.00
   5   6    -0.25   0.08  -0.01    -0.08  -0.08   0.00     0.08   0.04   0.02
   6   6    -0.26  -0.12   0.00    -0.10  -0.07   0.01     0.09   0.07  -0.02
   7   6    -0.05   0.02  -0.00    -0.08  -0.04  -0.00    -0.02   0.05   0.02
   8   8     0.27   0.25  -0.00    -0.41  -0.28   0.00    -0.06   0.04  -0.02
   9   6     0.01  -0.14   0.00    -0.01   0.17  -0.01    -0.05  -0.02   0.03
  10   6    -0.07  -0.11   0.01     0.22   0.10  -0.00    -0.08  -0.02   0.01
  11   6    -0.10   0.00  -0.00     0.28  -0.08   0.01    -0.09  -0.05  -0.03
  12   6     0.00   0.08  -0.01     0.21  -0.12   0.01    -0.10  -0.05   0.01
  13   6     0.15   0.02   0.00     0.08  -0.06   0.01    -0.07  -0.06  -0.01
  14   6     0.12  -0.06  -0.01     0.00   0.14  -0.00    -0.05  -0.04  -0.02
  15   6    -0.08   0.03  -0.01    -0.06   0.16  -0.01     0.04  -0.05  -0.01
  16   8    -0.25  -0.06  -0.00     0.09   0.31  -0.01     0.02  -0.08   0.01
  17   7     0.32   0.13   0.05     0.17  -0.02   0.03    -0.07  -0.06   0.00
  18   6     0.34   0.03  -0.02     0.19   0.03  -0.03    -0.08   0.09   0.13
  19   6     0.07  -0.09   0.05     0.06  -0.02   0.03     0.07   0.06  -0.16
  20   8    -0.09   0.06  -0.04    -0.10   0.10  -0.02    -0.16  -0.03  -0.01
  21   1    -0.03  -0.10  -0.00    -0.05  -0.00  -0.00     0.03   0.02  -0.00
  22   1     0.05  -0.05   0.00    -0.04  -0.01  -0.00     0.02   0.02   0.01
  23   1     0.03   0.05   0.00    -0.05  -0.02   0.00     0.03   0.01  -0.01
  24   1    -0.12  -0.06   0.00    -0.02  -0.01   0.00     0.03   0.02  -0.01
  25   1    -0.04  -0.04   0.01     0.11   0.07  -0.00    -0.03  -0.01   0.01
  26   1    -0.06   0.01  -0.00     0.11  -0.03   0.00    -0.02  -0.02  -0.02
  27   1    -0.00   0.05  -0.01     0.06  -0.06   0.00    -0.03  -0.01   0.01
  28   1     0.10   0.03  -0.02     0.07  -0.01  -0.03     0.00  -0.02  -0.05
  29   1     0.13   0.01  -0.03     0.06   0.02  -0.02    -0.07  -0.05   0.12
  30   1     0.10  -0.03  -0.02     0.05  -0.02  -0.02    -0.02   0.13   0.09
  31   1    -0.05   0.00  -0.00    -0.02   0.01   0.00     0.08   0.03  -0.02
  32   1     0.02  -0.11   0.06     0.02  -0.06   0.03     0.02   0.04  -0.10
  33   1     0.19  -0.12   0.04     0.22  -0.13   0.05     0.63  -0.53   0.11
                     16                     17                     18
                        a                      a                      a 
 Frequencies --   370.4437               379.4016               385.5660
 Red. masses --    11.6418                 9.6061                10.8533
 Frc consts  --     0.0000                 0.0000                 0.0000
 IR Inten    --     6.4510                 0.0855                 0.6733
 Raman Activ --     0.0000                 0.0000                 0.0000
 Depolar     --     0.0000                 0.0000                 0.0000
 Atom AN      X      Y      Z        X      Y      Z        X      Y      Z
   1   6     0.10   0.14   0.01     0.01  -0.01  -0.14    -0.01   0.01   0.28
   2   6     0.20   0.22  -0.02     0.01  -0.01  -0.21     0.00  -0.02  -0.27
   3   6     0.18   0.20   0.00    -0.01   0.02   0.43    -0.01  -0.01   0.03
   4   6     0.12   0.18   0.00     0.01  -0.01  -0.30    -0.01   0.01   0.30
   5   6     0.00   0.10  -0.02     0.01  -0.02  -0.37     0.01  -0.02  -0.28
   6   6     0.01   0.15   0.00    -0.01   0.02   0.42     0.00  -0.01  -0.04
   7   6    -0.19   0.07  -0.03     0.01  -0.01  -0.18     0.02  -0.02  -0.32
   8   8    -0.41  -0.03   0.00     0.00   0.00   0.06     0.02   0.01   0.15
   9   6    -0.16  -0.10  -0.02    -0.00   0.01   0.09     0.01  -0.01  -0.21
  10   6    -0.18  -0.14  -0.01    -0.00   0.01   0.08     0.00   0.01  -0.07
  11   6    -0.17  -0.23   0.03     0.00  -0.00  -0.10    -0.01   0.03   0.27
  12   6    -0.09  -0.17  -0.01    -0.00   0.00   0.03     0.00  -0.00  -0.25
  13   6     0.04  -0.19   0.01    -0.01   0.01   0.15    -0.00   0.01  -0.05
  14   6     0.01  -0.05   0.02    -0.01   0.00   0.11    -0.01   0.02   0.29
  15   6     0.10  -0.01   0.02     0.00  -0.01  -0.13    -0.01   0.02   0.35
  16   8     0.09  -0.03  -0.00    -0.00  -0.00   0.06     0.00  -0.01  -0.18
  17   7     0.16  -0.13   0.02    -0.00  -0.00  -0.10    -0.01   0.01  -0.00
  18   6     0.18  -0.07  -0.09    -0.00   0.01   0.00    -0.01   0.00   0.03
  19   6     0.05  -0.07   0.13     0.00   0.00  -0.01     0.01  -0.00  -0.01
  20   8    -0.03   0.15  -0.02    -0.00  -0.01   0.00    -0.01  -0.01  -0.00
  21   1     0.03   0.01   0.01     0.00  -0.00  -0.06    -0.01   0.01   0.18
  22   1     0.07   0.06  -0.01     0.00  -0.00  -0.11     0.00  -0.01  -0.18
  23   1     0.06   0.06   0.00    -0.01   0.01   0.31    -0.00  -0.00   0.01
  24   1     0.01   0.05   0.00    -0.01   0.01   0.31     0.00  -0.00  -0.02
  25   1    -0.04  -0.03  -0.01    -0.00   0.00   0.01     0.00  -0.00  -0.06
  26   1    -0.05  -0.07   0.02     0.00  -0.00  -0.09    -0.00   0.01   0.17
  27   1    -0.03  -0.01  -0.01    -0.00  -0.00  -0.03     0.00  -0.01  -0.14
  28   1     0.07  -0.05  -0.01    -0.00  -0.00  -0.01    -0.01   0.00   0.03
  29   1     0.07   0.05  -0.09    -0.02  -0.01   0.02    -0.01  -0.01   0.02
  30   1     0.04  -0.10  -0.07     0.02   0.02   0.01     0.00   0.01   0.02
  31   1    -0.04  -0.01   0.02     0.00   0.00  -0.00     0.01  -0.00  -0.00
  32   1     0.02  -0.07   0.07     0.00   0.00  -0.00     0.00   0.01  -0.01
  33   1    -0.10   0.15  -0.01     0.01  -0.01   0.00     0.04  -0.04   0.01
                     19                     20                     21
                        a                      a                      a 
 Frequencies --   408.8777               449.0014               453.4114
 Red. masses --    14.9304                 9.9444                11.8269
 Frc consts  --     0.0000                 0.0000                 0.0000
 IR Inten    --    46.0997                 1.7340                 6.1888
 Raman Activ --     0.0000                 0.0000                 0.0000
 Depolar     --     0.0000                 0.0000                 0.0000
 Atom AN      X      Y      Z        X      Y      Z        X      Y      Z
   1   6    -0.11  -0.04  -0.00    -0.03   0.01   0.28     0.21   0.06   0.03
   2   6    -0.11  -0.04  -0.00     0.01  -0.00  -0.25     0.02  -0.10  -0.02
   3   6    -0.08  -0.04  -0.00    -0.00   0.02   0.06     0.02  -0.20   0.02
   4   6     0.01  -0.07   0.00    -0.00   0.03   0.36    -0.10  -0.13   0.04
   5   6    -0.04  -0.02  -0.00    -0.01  -0.00  -0.18     0.15  -0.01  -0.01
   6   6    -0.05  -0.05   0.00    -0.01  -0.01  -0.15     0.18   0.06  -0.01
   7   6    -0.02   0.01  -0.00    -0.02   0.00  -0.08     0.18  -0.02   0.00
   8   8     0.34   0.28  -0.00    -0.02   0.01   0.03     0.13  -0.08   0.01
   9   6    -0.07  -0.03  -0.00    -0.01  -0.01   0.08     0.08   0.20   0.01
  10   6    -0.14  -0.03  -0.00     0.01  -0.02   0.28    -0.14   0.31   0.00
  11   6    -0.14  -0.16   0.00     0.03  -0.03  -0.38    -0.15   0.09  -0.04
  12   6    -0.15  -0.16   0.01     0.02   0.02   0.30    -0.30  -0.07   0.03
  13   6    -0.06  -0.16   0.01     0.00   0.02   0.10    -0.06  -0.17   0.01
  14   6    -0.08   0.03  -0.00     0.02  -0.03  -0.37    -0.08   0.07  -0.04
  15   6     0.04   0.07  -0.00     0.02  -0.01  -0.01    -0.22   0.11  -0.01
  16   8     0.61   0.45  -0.00     0.03  -0.01   0.01    -0.30   0.13  -0.01
  17   7    -0.00  -0.12   0.01    -0.00   0.02   0.01     0.08  -0.14  -0.00
  18   6    -0.02  -0.02  -0.01    -0.01   0.02  -0.02     0.15  -0.15  -0.04
  19   6    -0.00  -0.01   0.01    -0.03   0.02  -0.01     0.18  -0.11   0.13
  20   8    -0.01   0.02  -0.00     0.02  -0.02   0.00    -0.07   0.17  -0.02
  21   1    -0.03  -0.00  -0.00    -0.01   0.00   0.17     0.06   0.04   0.02
  22   1    -0.03  -0.01  -0.00     0.01  -0.01  -0.19    -0.04  -0.01  -0.02
  23   1    -0.04  -0.02   0.00    -0.00   0.00  -0.01     0.02  -0.05   0.00
  24   1    -0.01  -0.01   0.00    -0.00  -0.01  -0.10     0.05   0.01  -0.01
  25   1    -0.03  -0.00  -0.00     0.00   0.00   0.17    -0.06   0.08   0.01
  26   1    -0.02  -0.05   0.00     0.00  -0.01  -0.25     0.03  -0.00  -0.03
  27   1    -0.05  -0.03  -0.00     0.01   0.01   0.12    -0.09  -0.01   0.01
  28   1     0.02  -0.04  -0.01     0.01   0.00  -0.08     0.04  -0.04  -0.06
  29   1    -0.01   0.01  -0.01     0.01   0.00  -0.01     0.05   0.03  -0.08
  30   1    -0.01  -0.01  -0.01    -0.01   0.01  -0.01     0.03  -0.12  -0.05
  31   1    -0.00  -0.00   0.00    -0.02   0.01  -0.01     0.06  -0.04   0.03
  32   1    -0.00  -0.00   0.01    -0.01   0.00   0.01     0.05  -0.06   0.01
  33   1     0.01  -0.00   0.00    -0.02   0.01  -0.01     0.05   0.04   0.02
                     22                     23                     24
                        a                      a                      a 
 Frequencies --   465.1582               500.8368               503.4442
 Red. masses --    12.5270                10.7321                10.6410
 Frc consts  --     0.0000                 0.0000                 0.0000
 IR Inten    --     3.2223                 5.9467                 7.5270
 Raman Activ --     0.0000                 0.0000                 0.0000
 Depolar     --     0.0000                 0.0000                 0.0000
 Atom AN      X      Y      Z        X      Y      Z        X      Y      Z
   1   6     0.08  -0.06   0.00    -0.10  -0.06   0.08     0.09   0.06   0.09
   2   6    -0.12  -0.19   0.01    -0.10  -0.05  -0.10     0.09   0.03  -0.11
   3   6    -0.12  -0.11  -0.00    -0.09   0.05   0.07     0.08  -0.04   0.09
   4   6    -0.02  -0.11   0.00     0.06  -0.00  -0.02    -0.06  -0.00  -0.03
   5   6     0.16   0.10   0.01     0.03   0.00  -0.16    -0.02  -0.02  -0.17
   6   6     0.20  -0.09   0.01     0.03  -0.11  -0.03    -0.02   0.09  -0.04
   7   6    -0.13   0.35  -0.02    -0.07   0.11   0.18     0.05  -0.07   0.21
   8   8    -0.23   0.39  -0.02    -0.07   0.13  -0.08     0.06  -0.11  -0.07
   9   6    -0.08   0.13  -0.02    -0.02   0.04   0.35     0.00  -0.00   0.37
  10   6     0.09   0.09   0.00     0.01   0.02  -0.19     0.00  -0.04  -0.20
  11   6     0.10   0.04   0.00     0.00   0.11   0.06    -0.00  -0.10   0.08
  12   6    -0.10  -0.08  -0.01     0.06   0.14   0.03    -0.05  -0.12   0.02
  13   6    -0.17  -0.04   0.01     0.07   0.07  -0.37    -0.05  -0.10  -0.39
  14   6    -0.19  -0.09   0.00     0.04   0.01  -0.08    -0.04  -0.02  -0.08
  15   6    -0.01  -0.25   0.01     0.12  -0.08   0.03    -0.11   0.07   0.02
  16   8     0.11  -0.23   0.01     0.10  -0.15   0.01    -0.09   0.13  -0.02
  17   7     0.16   0.19   0.01    -0.12  -0.08   0.07     0.11   0.09   0.16
  18   6     0.21   0.12   0.02    -0.09  -0.26  -0.02     0.09   0.24   0.04
  19   6    -0.03  -0.03  -0.03     0.21  -0.10   0.14    -0.19   0.09  -0.12
  20   8     0.04  -0.12  -0.01    -0.08   0.23  -0.01     0.08  -0.21   0.01
  21   1     0.02   0.04  -0.00    -0.03   0.01   0.07     0.03  -0.00   0.08
  22   1    -0.05  -0.05   0.00    -0.01  -0.03  -0.04     0.01   0.02  -0.05
  23   1    -0.03  -0.02  -0.00    -0.04   0.01   0.07     0.03  -0.00   0.07
  24   1     0.04  -0.04   0.00     0.01  -0.03   0.03    -0.01   0.03   0.03
  25   1     0.04   0.04   0.00    -0.00  -0.00  -0.10     0.01  -0.01  -0.10
  26   1     0.06  -0.00   0.00    -0.02   0.05   0.09     0.01  -0.03   0.12
  27   1    -0.02  -0.08  -0.00     0.02   0.06   0.13    -0.02  -0.04   0.16
  28   1     0.09   0.03   0.02    -0.08  -0.00  -0.02     0.07   0.01   0.08
  29   1     0.09  -0.01   0.03    -0.01   0.03  -0.09     0.04  -0.03   0.08
  30   1     0.08   0.05   0.02    -0.06  -0.18  -0.06     0.03   0.16   0.05
  31   1    -0.06   0.01  -0.02     0.15  -0.08   0.06    -0.14   0.07  -0.05
  32   1    -0.01  -0.06   0.04     0.06   0.02  -0.06    -0.06  -0.02   0.05
  33   1    -0.07   0.01  -0.02     0.10   0.02   0.04    -0.10  -0.01  -0.03
                     25                     26                     27
                        a                      a                      a 
 Frequencies --   584.0270               601.4056               608.4660
 Red. masses --    11.3269                 3.2735                11.4395
 Frc consts  --     0.0000                 0.0000                 0.0000
 IR Inten    --    11.7131                94.1553                 0.0388
 Raman Activ --     0.0000                 0.0000                 0.0000
 Depolar     --     0.0000                 0.0000                 0.0000
 Atom AN      X      Y      Z        X      Y      Z        X      Y      Z
   1   6     0.28   0.15   0.01     0.05   0.02  -0.10    -0.03   0.03  -0.00
   2   6     0.07  -0.03  -0.01     0.01  -0.00   0.09     0.20   0.17  -0.00
   3   6     0.09  -0.36   0.03     0.02  -0.07  -0.09     0.18  -0.02   0.01
   4   6    -0.17  -0.19   0.01    -0.03  -0.03  -0.01    -0.07   0.02  -0.00
   5   6    -0.02  -0.02   0.00    -0.01  -0.01  -0.06    -0.25  -0.02  -0.01
   6   6     0.01   0.23  -0.02    -0.01   0.04   0.09    -0.34   0.17  -0.02
   7   6    -0.15   0.03   0.00    -0.03   0.01  -0.06     0.05  -0.11   0.01
   8   8    -0.02   0.16  -0.01    -0.01   0.03   0.01     0.08  -0.13   0.01
   9   6    -0.16  -0.20   0.01    -0.02  -0.03  -0.02     0.06   0.07   0.01
  10   6     0.08  -0.35   0.01     0.02  -0.05   0.05     0.18   0.11  -0.01
  11   6     0.05  -0.09   0.01     0.01   0.00  -0.03     0.19   0.24  -0.00
  12   6     0.24   0.10   0.01     0.05   0.03   0.01    -0.21  -0.05  -0.00
  13   6    -0.03   0.19   0.01     0.01   0.03  -0.15    -0.29  -0.01  -0.01
  14   6    -0.09  -0.04  -0.01    -0.00   0.00   0.04    -0.22  -0.15  -0.00
  15   6    -0.20   0.05  -0.03    -0.03   0.01   0.18    -0.03  -0.22   0.01
  16   8    -0.03   0.21  -0.01    -0.01   0.03  -0.01     0.25  -0.11   0.02
  17   7    -0.05   0.20  -0.07    -0.02   0.02   0.25    -0.03   0.19  -0.03
  18   6    -0.01  -0.10   0.00    -0.02   0.01   0.02     0.04  -0.06   0.01
  19   6     0.09  -0.07   0.06     0.01  -0.00  -0.00     0.10  -0.10   0.06
  20   8    -0.02   0.07  -0.01     0.02  -0.05   0.00    -0.01   0.04  -0.02
  21   1     0.08   0.03   0.01     0.01   0.00  -0.03     0.00  -0.11   0.01
  22   1    -0.08   0.04  -0.01    -0.02   0.01   0.07     0.05   0.05   0.00
  23   1     0.04  -0.09   0.01     0.01  -0.02  -0.01     0.06   0.00   0.00
  24   1    -0.00   0.06  -0.01    -0.00   0.01   0.06    -0.11   0.04  -0.00
  25   1     0.03  -0.09   0.00     0.00  -0.01   0.01     0.04   0.02  -0.01
  26   1    -0.08   0.01  -0.00    -0.02   0.01  -0.03     0.11   0.04  -0.00
  27   1     0.07   0.01   0.00     0.01   0.01  -0.02    -0.04  -0.13  -0.00
  28   1    -0.06   0.07   0.11     0.06  -0.02  -0.89     0.02   0.04  -0.03
  29   1     0.03   0.01  -0.04    -0.03  -0.01   0.02     0.05   0.01  -0.04
  30   1     0.00  -0.09  -0.02     0.02   0.01   0.01     0.03  -0.09  -0.02
  31   1     0.09  -0.05   0.03     0.00  -0.00  -0.00     0.08  -0.05   0.03
  32   1     0.03   0.02  -0.04     0.00   0.01  -0.01     0.03  -0.00  -0.03
  33   1     0.05   0.00   0.02    -0.06   0.03  -0.01     0.03   0.01   0.01
                     28                     29                     30
                        a                      a                      a 
 Frequencies --   620.9221               664.8905               669.6948
 Red. masses --     9.6414                11.7780                10.3992
 Frc consts  --     0.0000                 0.0000                 0.0000
 IR Inten    --    22.3936                 5.5098                15.8947
 Raman Activ --     0.0000                 0.0000                 0.0000
 Depolar     --     0.0000                 0.0000                 0.0000
 Atom AN      X      Y      Z        X      Y      Z        X      Y      Z
   1   6    -0.00   0.01   0.27    -0.13   0.08   0.01    -0.01  -0.00  -0.15
   2   6     0.01  -0.01  -0.24     0.10   0.21  -0.03     0.00   0.03   0.22
   3   6    -0.01   0.01   0.25     0.19  -0.32   0.04     0.02  -0.03  -0.17
   4   6     0.00  -0.01  -0.10     0.13  -0.25  -0.02     0.01  -0.00   0.40
   5   6    -0.01   0.01   0.20    -0.11  -0.26   0.03     0.00  -0.04  -0.21
   6   6     0.01  -0.01  -0.25    -0.19   0.07  -0.03    -0.01   0.01   0.21
   7   6    -0.01   0.01   0.19    -0.23  -0.04   0.01    -0.01  -0.02  -0.29
   8   8    -0.00   0.00  -0.05     0.10   0.25  -0.01     0.01   0.02   0.08
   9   6    -0.00  -0.00   0.05    -0.16   0.21  -0.05    -0.03   0.04   0.42
  10   6     0.00  -0.02  -0.17    -0.11   0.26   0.00    -0.01   0.01  -0.16
  11   6    -0.01   0.01   0.23    -0.02  -0.11  -0.01    -0.01  -0.01   0.20
  12   6     0.01  -0.00  -0.19     0.14  -0.02   0.01     0.02  -0.01  -0.10
  13   6    -0.01   0.02   0.34     0.13  -0.01  -0.02     0.00   0.01   0.20
  14   6     0.01   0.00  -0.03     0.04   0.22   0.02     0.01   0.01  -0.24
  15   6     0.01  -0.02  -0.42     0.19   0.01   0.02     0.02  -0.01  -0.22
  16   8    -0.01   0.01   0.13    -0.09  -0.24   0.01    -0.02  -0.02   0.07
  17   7    -0.00  -0.00   0.02     0.03  -0.12   0.02     0.00  -0.00  -0.01
  18   6    -0.01   0.01   0.01     0.04   0.04  -0.01     0.00   0.01   0.01
  19   6    -0.00   0.00  -0.01    -0.02   0.03  -0.03    -0.00   0.00  -0.00
  20   8     0.01  -0.02  -0.00     0.00  -0.01   0.01     0.00  -0.01  -0.00
  21   1    -0.00   0.01   0.10    -0.03  -0.06   0.01     0.00  -0.01  -0.16
  22   1     0.00  -0.01  -0.16    -0.02   0.08  -0.01     0.00   0.01  -0.03
  23   1    -0.00   0.00   0.07    -0.03  -0.15   0.02     0.00  -0.02  -0.20
  24   1     0.00  -0.01  -0.15     0.00   0.06  -0.01     0.00   0.00  -0.00
  25   1     0.00  -0.01  -0.12     0.04   0.13   0.01     0.01   0.00  -0.22
  26   1    -0.00   0.00   0.01     0.03  -0.04   0.01     0.00  -0.01  -0.06
  27   1     0.01  -0.01  -0.23     0.03   0.05   0.02     0.01  -0.01  -0.18
  28   1     0.02  -0.01  -0.30     0.01  -0.03   0.02     0.00  -0.00  -0.00
  29   1    -0.02   0.00   0.01    -0.01  -0.01   0.02    -0.00   0.01  -0.00
  30   1     0.02   0.01   0.01     0.00   0.05   0.01     0.00  -0.00  -0.00
  31   1    -0.00   0.00  -0.00    -0.05   0.03  -0.02    -0.00   0.00  -0.00
  32   1    -0.00   0.00  -0.01    -0.01  -0.02   0.03    -0.00  -0.00  -0.00
  33   1    -0.02   0.01  -0.01    -0.02  -0.00  -0.01    -0.00  -0.00  -0.00
                     31                     32                     33
                        a                      a                      a 
 Frequencies --   685.8740               692.5427               761.3848
 Red. masses --    11.5548                10.3140                10.5573
 Frc consts  --     0.0000                 0.0000                 0.0000
 IR Inten    --     6.3301                63.3749                 0.1381
 Raman Activ --     0.0000                 0.0000                 0.0000
 Depolar     --     0.0000                 0.0000                 0.0000
 Atom AN      X      Y      Z        X      Y      Z        X      Y      Z
   1   6    -0.20  -0.03  -0.01     0.02  -0.00  -0.12    -0.01  -0.00  -0.06
   2   6     0.01   0.17  -0.01    -0.00  -0.01  -0.01     0.00   0.02   0.10
   3   6     0.02   0.20  -0.01     0.00  -0.03  -0.10     0.01  -0.00  -0.05
   4   6     0.23   0.03  -0.01    -0.02  -0.01   0.02    -0.00   0.01   0.36
   5   6     0.16  -0.17  -0.01    -0.01   0.00  -0.25     0.02  -0.03  -0.38
   6   6     0.21  -0.24   0.01    -0.02   0.02   0.01     0.00  -0.01   0.08
   7   6    -0.06  -0.15   0.05    -0.01   0.03   0.44    -0.02   0.02   0.40
   8   8     0.21  -0.02  -0.01    -0.02   0.00  -0.12     0.00   0.00  -0.10
   9   6    -0.20   0.04  -0.02     0.02  -0.00  -0.09     0.00  -0.02  -0.27
  10   6     0.02  -0.08  -0.00    -0.00   0.01  -0.11     0.01  -0.02  -0.03
  11   6     0.05  -0.23   0.02    -0.01   0.02   0.11     0.01   0.02  -0.10
  12   6     0.03  -0.15   0.00     0.00   0.01  -0.14    -0.01   0.00  -0.06
  13   6    -0.28   0.11   0.01     0.02   0.01   0.41    -0.00  -0.00  -0.01
  14   6    -0.22   0.12  -0.04     0.03  -0.03  -0.39    -0.01   0.01   0.32
  15   6     0.02   0.13   0.04    -0.01   0.01   0.37     0.01  -0.02  -0.43
  16   8    -0.21   0.02  -0.02     0.02  -0.01  -0.11    -0.01   0.02   0.10
  17   7    -0.04   0.36  -0.04     0.01  -0.04  -0.07    -0.00  -0.01   0.01
  18   6     0.06  -0.02   0.02    -0.01   0.00  -0.00     0.00  -0.01  -0.01
  19   6     0.08  -0.10   0.06    -0.01   0.01  -0.01     0.01  -0.00   0.00
  20   8    -0.00   0.01  -0.02    -0.00  -0.00  -0.00    -0.00   0.00   0.00
  21   1    -0.06   0.03   0.02    -0.00   0.01   0.18    -0.00  -0.00  -0.02
  22   1     0.08   0.02   0.02    -0.01   0.01   0.21     0.01  -0.00  -0.08
  23   1    -0.04   0.03   0.02    -0.00   0.00   0.16     0.00  -0.01  -0.13
  24   1     0.13  -0.01   0.03    -0.02   0.01   0.23     0.00   0.00   0.05
  25   1     0.07   0.03   0.01    -0.01   0.00   0.05    -0.01   0.00   0.23
  26   1     0.01  -0.07   0.00    -0.00   0.01   0.03    -0.00   0.02   0.18
  27   1     0.01  -0.12  -0.01     0.00   0.01  -0.09    -0.01   0.01   0.16
  28   1     0.02   0.08  -0.04    -0.00  -0.01   0.00     0.00  -0.00  -0.04
  29   1     0.07   0.02  -0.04    -0.01   0.01  -0.00    -0.00  -0.01   0.01
  30   1     0.04  -0.09  -0.02    -0.00   0.00  -0.00     0.00   0.01   0.00
  31   1     0.09  -0.06   0.03    -0.01   0.01  -0.00    -0.00   0.00  -0.00
  32   1     0.02   0.01  -0.05    -0.00  -0.00   0.00     0.00  -0.00   0.00
  33   1     0.02   0.01   0.01     0.00  -0.01  -0.00    -0.00   0.00   0.00
                     34                     35                     36
                        a                      a                      a 
 Frequencies --   770.2176               779.5140               802.2115
 Red. masses --    11.4932                 4.8537                 5.4913
 Frc consts  --     0.0000                 0.0000                 0.0000
 IR Inten    --     1.3831                 0.8687                18.6181
 Raman Activ --     0.0000                 0.0000                 0.0000
 Depolar     --     0.0000                 0.0000                 0.0000
 Atom AN      X      Y      Z        X      Y      Z        X      Y      Z
   1   6    -0.26  -0.00   0.00     0.02   0.01   0.15    -0.01   0.00   0.12
   2   6     0.09   0.26  -0.01    -0.01  -0.01   0.12    -0.00   0.01   0.14
   3   6     0.14  -0.08   0.02    -0.01   0.01   0.11     0.00  -0.00   0.09
   4   6     0.13  -0.11  -0.02    -0.00  -0.00  -0.22     0.01  -0.01  -0.13
   5   6     0.09  -0.16   0.03    -0.00   0.01  -0.04     0.01  -0.01  -0.22
   6   6     0.10  -0.19   0.01    -0.01   0.02   0.10    -0.00   0.00   0.10
   7   6    -0.12   0.07  -0.04     0.01  -0.01  -0.02    -0.01   0.02   0.32
   8   8    -0.09   0.17  -0.00     0.01  -0.01   0.00    -0.01   0.00  -0.08
   9   6     0.04  -0.16   0.03    -0.01   0.02   0.10     0.01  -0.01  -0.20
  10   6     0.21  -0.23   0.01    -0.01   0.01  -0.12    -0.00   0.00   0.10
  11   6     0.13   0.43  -0.02    -0.01  -0.04  -0.08    -0.00   0.01   0.11
  12   6    -0.24   0.09  -0.03     0.02  -0.02  -0.24    -0.01   0.01   0.25
  13   6    -0.00  -0.12   0.03    -0.01   0.03   0.24     0.01  -0.02  -0.15
  14   6     0.03  -0.11  -0.02    -0.00   0.00  -0.14     0.01  -0.01  -0.04
  15   6    -0.10   0.12   0.03    -0.00   0.00   0.23    -0.01   0.01   0.16
  16   8    -0.14   0.20  -0.02     0.01  -0.02  -0.06    -0.00   0.00  -0.04
  17   7     0.02  -0.22   0.02    -0.00   0.01  -0.04     0.01  -0.00   0.02
  18   6     0.04   0.01  -0.03    -0.00  -0.01  -0.02    -0.00   0.02   0.02
  19   6     0.02   0.02  -0.03     0.01  -0.01   0.00    -0.01   0.01   0.00
  20   8    -0.01   0.00   0.02    -0.00   0.01   0.01     0.00  -0.02  -0.01
  21   1    -0.07  -0.02  -0.02     0.02  -0.01  -0.36     0.01  -0.02  -0.31
  22   1     0.06   0.06  -0.01     0.01  -0.02  -0.34     0.01  -0.01  -0.32
  23   1    -0.03  -0.07  -0.00     0.01  -0.00  -0.21     0.01  -0.01  -0.20
  24   1     0.11   0.00  -0.01     0.00  -0.01  -0.27     0.01  -0.01  -0.18
  25   1    -0.03  -0.13   0.02    -0.00   0.02   0.28     0.00  -0.02  -0.24
  26   1     0.01   0.13   0.01    -0.01   0.01   0.27     0.01  -0.01  -0.28
  27   1    -0.06  -0.03   0.03    -0.00   0.02   0.36     0.01  -0.02  -0.42
  28   1     0.00  -0.06   0.02    -0.00   0.00  -0.06     0.00  -0.00   0.06
  29   1    -0.02  -0.02   0.03     0.00  -0.02   0.01    -0.00   0.03  -0.01
  30   1    -0.00   0.06   0.01     0.00   0.01   0.00    -0.00  -0.02  -0.01
  31   1    -0.07   0.04  -0.02     0.00   0.00   0.00     0.01  -0.01   0.00
  32   1     0.00  -0.05   0.06     0.00  -0.00   0.00    -0.00   0.01  -0.01
  33   1    -0.02  -0.01  -0.01     0.00   0.00   0.00    -0.00  -0.01  -0.00
                     37                     38                     39
                        a                      a                      a 
 Frequencies --   856.2160               877.6945               888.6012
 Red. masses --     9.0509                 4.3877                 9.6257
 Frc consts  --     0.0000                 0.0000                 0.0000
 IR Inten    --    13.6838                 0.1986                 4.8473
 Raman Activ --     0.0000                 0.0000                 0.0000
 Depolar     --     0.0000                 0.0000                 0.0000
 Atom AN      X      Y      Z        X      Y      Z        X      Y      Z
   1   6    -0.23  -0.04  -0.01     0.07   0.01   0.02     0.24   0.05  -0.00
   2   6     0.06   0.15  -0.01    -0.03  -0.06  -0.02    -0.13  -0.23   0.02
   3   6     0.12  -0.19   0.01    -0.03   0.03  -0.03    -0.12   0.05   0.01
   4   6    -0.02  -0.08   0.00     0.02   0.01  -0.01     0.14   0.03   0.00
   5   6     0.04   0.06   0.01    -0.02  -0.03   0.02    -0.08  -0.11   0.00
   6   6    -0.05  -0.08   0.00    -0.00   0.03   0.03    -0.06   0.15  -0.03
   7   6     0.18   0.24  -0.02    -0.06  -0.06  -0.08    -0.23  -0.16   0.01
   8   8    -0.17   0.06  -0.00     0.03   0.00   0.02     0.05   0.04  -0.00
   9   6     0.29  -0.04   0.03    -0.06   0.00   0.11    -0.11  -0.04  -0.02
  10   6    -0.05   0.05  -0.04     0.04  -0.04  -0.37     0.13  -0.11   0.09
  11   6    -0.09  -0.19  -0.01     0.03   0.06  -0.05     0.12   0.19  -0.02
  12   6    -0.08  -0.11   0.02    -0.03   0.02   0.30    -0.26  -0.08  -0.06
  13   6     0.09  -0.02  -0.00    -0.00  -0.03  -0.06     0.02  -0.10   0.02
  14   6     0.20  -0.11   0.02    -0.01   0.04   0.02     0.14   0.15  -0.00
  15   6    -0.04   0.02  -0.01     0.05   0.03   0.01     0.30   0.19  -0.00
  16   8    -0.04   0.06  -0.00    -0.01  -0.01  -0.00    -0.09  -0.04   0.00
  17   7     0.13   0.22  -0.05     0.01  -0.05   0.00     0.11  -0.02  -0.04
  18   6    -0.17   0.04   0.15     0.01   0.06   0.04    -0.05   0.11   0.14
  19   6    -0.24   0.05   0.07    -0.00   0.01   0.02    -0.17   0.04   0.08
  20   8     0.03  -0.08  -0.08    -0.00  -0.04  -0.03     0.01  -0.11  -0.10
  21   1    -0.06  -0.06   0.00     0.02   0.02  -0.03     0.06   0.06   0.01
  22   1     0.02   0.04   0.01    -0.02  -0.01   0.04    -0.08  -0.04  -0.02
  23   1    -0.01  -0.08   0.01    -0.01   0.02   0.06    -0.03   0.01  -0.03
  24   1    -0.01  -0.02  -0.00     0.00   0.00  -0.06    -0.03   0.03   0.03
  25   1    -0.04  -0.01   0.08    -0.01   0.03   0.63     0.03  -0.04  -0.12
  26   1     0.03  -0.07   0.05     0.00   0.03   0.15     0.07   0.03   0.01
  27   1    -0.03   0.00  -0.02     0.00  -0.03  -0.50    -0.07  -0.07   0.12
  28   1     0.04   0.06  -0.02     0.02  -0.02   0.02     0.09  -0.03  -0.00
  29   1     0.05   0.14  -0.10    -0.01   0.07  -0.03     0.04   0.16  -0.10
  30   1    -0.01  -0.22  -0.05    -0.00  -0.04  -0.01    -0.00  -0.17  -0.05
  31   1     0.23  -0.12   0.08     0.01  -0.01   0.00     0.16  -0.09   0.06
  32   1    -0.06   0.22  -0.23    -0.00  -0.01  -0.01    -0.04   0.13  -0.17
  33   1     0.05   0.03   0.01    -0.01  -0.01  -0.01     0.03   0.02   0.00
                     40                     41                     42
                        a                      a                      a 
 Frequencies --   894.5647               918.4715               922.7784
 Red. masses --     3.6073                 7.7106                 5.3711
 Frc consts  --     0.0000                 0.0000                 0.0000
 IR Inten    --     0.0178                 4.0862                 1.3507
 Raman Activ --     0.0000                 0.0000                 0.0000
 Depolar     --     0.0000                 0.0000                 0.0000
 Atom AN      X      Y      Z        X      Y      Z        X      Y      Z
   1   6    -0.00  -0.01  -0.16    -0.01  -0.00   0.00     0.00   0.00  -0.00
   2   6    -0.00   0.02   0.16     0.06   0.09  -0.00     0.04   0.06   0.00
   3   6    -0.01   0.01   0.28     0.01   0.08  -0.00     0.00   0.06  -0.01
   4   6    -0.00  -0.00  -0.07    -0.09   0.01  -0.00    -0.06   0.01  -0.00
   5   6     0.00   0.01   0.07     0.02  -0.00   0.00     0.01  -0.01  -0.00
   6   6     0.01  -0.02  -0.28     0.09  -0.07   0.00     0.06  -0.05   0.01
   7   6     0.01   0.00  -0.06    -0.03  -0.06   0.01    -0.04  -0.05   0.00
   8   8    -0.00  -0.00   0.01     0.05  -0.02   0.00     0.04  -0.01   0.00
   9   6     0.00   0.00   0.03    -0.10   0.04   0.01    -0.07   0.02  -0.03
  10   6    -0.00   0.00  -0.05    -0.05   0.07   0.13    -0.03   0.04  -0.15
  11   6    -0.00  -0.00  -0.00     0.00   0.05  -0.23    -0.00   0.07   0.33
  12   6     0.01   0.01   0.03     0.22   0.14   0.05     0.15   0.08  -0.14
  13   6    -0.00   0.00  -0.01     0.03  -0.04   0.05     0.03  -0.04  -0.06
  14   6    -0.01  -0.01  -0.01    -0.15  -0.06  -0.04    -0.10  -0.04   0.06
  15   6    -0.01  -0.01   0.05    -0.20  -0.15   0.00    -0.14  -0.10  -0.01
  16   8     0.00   0.00  -0.01     0.07   0.02   0.00     0.04   0.01   0.00
  17   7    -0.00  -0.00   0.00    -0.01  -0.20  -0.04     0.01  -0.13  -0.03
  18   6     0.00   0.00  -0.00     0.03   0.30   0.17     0.01   0.19   0.12
  19   6     0.01  -0.00  -0.00     0.04   0.00   0.15    -0.00   0.01   0.11
  20   8    -0.00   0.00   0.00    -0.04  -0.21  -0.18    -0.02  -0.14  -0.12
  21   1    -0.01   0.01   0.27    -0.00   0.01  -0.00     0.00   0.01   0.01
  22   1     0.01  -0.01  -0.27     0.05   0.01   0.00     0.03   0.01  -0.01
  23   1     0.02  -0.02  -0.55     0.03   0.04  -0.01     0.02   0.03   0.01
  24   1    -0.02   0.02   0.55     0.04  -0.01   0.01     0.03  -0.00  -0.01
  25   1    -0.00   0.01   0.08     0.01   0.02  -0.24    -0.00   0.04   0.28
  26   1    -0.00   0.00   0.01    -0.07   0.07   0.41    -0.03  -0.00  -0.61
  27   1     0.00   0.00  -0.05     0.05   0.11  -0.10     0.03   0.09   0.28
  28   1    -0.00  -0.00   0.00     0.06  -0.08  -0.00     0.05  -0.05   0.02
  29   1    -0.00  -0.00   0.00    -0.03   0.31  -0.13     0.00   0.20  -0.09
  30   1     0.00   0.00   0.00    -0.05  -0.12  -0.07    -0.04  -0.09  -0.05
  31   1    -0.01   0.00  -0.00     0.05  -0.06   0.03     0.05  -0.05   0.03
  32   1     0.00  -0.01   0.01     0.01  -0.05  -0.03     0.00  -0.01  -0.04
  33   1    -0.00  -0.00  -0.00    -0.01  -0.02  -0.03     0.00  -0.00  -0.02
                     43                     44                     45
                        a                      a                      a 
 Frequencies --   928.2313               930.4996               942.9039
 Red. masses --     4.0537                 3.5572                 9.4403
 Frc consts  --     0.0000                 0.0000                 0.0000
 IR Inten    --     0.0365                 0.0302                26.2355
 Raman Activ --     0.0000                 0.0000                 0.0000
 Depolar     --     0.0000                 0.0000                 0.0000
 Atom AN      X      Y      Z        X      Y      Z        X      Y      Z
   1   6    -0.01   0.01   0.31     0.01  -0.01  -0.21     0.07   0.02   0.00
   2   6    -0.00   0.00   0.10    -0.01   0.02   0.36     0.05   0.07  -0.00
   3   6     0.01  -0.01  -0.24     0.01  -0.01  -0.23    -0.02   0.14  -0.01
   4   6    -0.00   0.00   0.08     0.00  -0.00  -0.03    -0.09   0.01  -0.00
   5   6    -0.00   0.00   0.04    -0.00   0.00   0.08    -0.01  -0.08   0.00
   6   6     0.01  -0.01  -0.32    -0.00   0.00   0.02     0.13  -0.07   0.01
   7   6     0.00  -0.00  -0.03     0.00  -0.00  -0.01    -0.18  -0.15   0.00
   8   8     0.00   0.00   0.01    -0.00   0.00   0.00     0.08   0.01   0.00
   9   6    -0.00   0.00   0.01     0.00   0.00   0.01    -0.14   0.03  -0.00
  10   6    -0.00   0.00  -0.00     0.00  -0.00   0.00    -0.05   0.12  -0.01
  11   6     0.00   0.00   0.00     0.00  -0.00  -0.01     0.04   0.11  -0.02
  12   6     0.00  -0.00  -0.00    -0.00  -0.00   0.00     0.12   0.07   0.01
  13   6     0.00  -0.00  -0.00    -0.00   0.00   0.00     0.11  -0.08   0.01
  14   6    -0.00   0.00   0.01     0.00  -0.00  -0.00    -0.10  -0.09  -0.00
  15   6     0.00  -0.00  -0.03     0.00   0.00  -0.01    -0.23  -0.15   0.00
  16   8    -0.00   0.00   0.00    -0.00   0.00   0.00     0.06   0.03   0.00
  17   7     0.00  -0.00   0.00    -0.00   0.00  -0.00     0.24  -0.06   0.03
  18   6    -0.00  -0.00   0.00    -0.00  -0.00  -0.00     0.01  -0.32  -0.04
  19   6    -0.00   0.00  -0.00     0.00  -0.00  -0.00    -0.40   0.14  -0.15
  20   8     0.00   0.00   0.00     0.00   0.00   0.00     0.08   0.15   0.14
  21   1     0.02  -0.02  -0.53    -0.01   0.02   0.39     0.02   0.03   0.00
  22   1     0.00  -0.01  -0.15     0.02  -0.03  -0.63     0.05   0.01   0.00
  23   1    -0.01   0.02   0.35    -0.01   0.02   0.45     0.03   0.07  -0.00
  24   1    -0.02   0.03   0.55     0.00  -0.01  -0.12     0.07   0.00   0.00
  25   1    -0.00   0.00   0.01    -0.00  -0.00  -0.00     0.01   0.06  -0.01
  26   1     0.00  -0.00  -0.01    -0.00   0.00   0.01     0.00   0.04   0.02
  27   1    -0.00   0.00   0.01    -0.00  -0.00  -0.01     0.04   0.02  -0.03
  28   1     0.00   0.00   0.00    -0.00   0.00   0.00     0.07  -0.02   0.00
  29   1     0.00  -0.00   0.00    -0.00  -0.00   0.00     0.10  -0.22   0.07
  30   1    -0.00  -0.00  -0.00     0.00   0.00   0.00     0.11  -0.06   0.04
  31   1     0.00   0.00  -0.00    -0.00   0.00  -0.00     0.14   0.01   0.05
  32   1    -0.00   0.00  -0.00     0.00  -0.00   0.00    -0.10   0.27  -0.20
  33   1     0.00  -0.00   0.00    -0.00  -0.00  -0.00     0.06   0.06   0.06
                     46                     47                     48
                        a                      a                      a 
 Frequencies --  1016.7189              1033.8114              1085.2080
 Red. masses --     5.1794                10.2140                 6.1271
 Frc consts  --     0.0000                 0.0000                 0.0000
 IR Inten    --    76.9072                60.5494                 0.5313
 Raman Activ --     0.0000                 0.0000                 0.0000
 Depolar     --     0.0000                 0.0000                 0.0000
 Atom AN      X      Y      Z        X      Y      Z        X      Y      Z
   1   6     0.02   0.00   0.00    -0.18  -0.04  -0.00     0.36  -0.06   0.01
   2   6     0.00   0.01  -0.00    -0.02  -0.06   0.00     0.05   0.41  -0.02
   3   6    -0.01   0.01   0.00     0.08  -0.16   0.01    -0.20   0.04  -0.01
   4   6    -0.00  -0.00  -0.00     0.04   0.02  -0.00    -0.06  -0.04   0.00
   5   6    -0.01  -0.02   0.00     0.09   0.22  -0.01    -0.06   0.09  -0.01
   6   6     0.01  -0.01   0.00    -0.10   0.07  -0.01     0.04  -0.28   0.01
   7   6    -0.03  -0.02  -0.00     0.34   0.17   0.00     0.03   0.01   0.00
   8   8    -0.00   0.01  -0.00     0.03  -0.14   0.01     0.02  -0.04   0.00
   9   6     0.01  -0.01   0.00    -0.18   0.11  -0.01    -0.03   0.02  -0.00
  10   6    -0.01   0.02   0.00     0.08  -0.25   0.01     0.05  -0.05   0.00
  11   6     0.01  -0.01   0.00    -0.08   0.04  -0.00    -0.02  -0.01   0.00
  12   6    -0.02  -0.02  -0.01     0.08   0.11  -0.01    -0.06  -0.01  -0.00
  13   6     0.02   0.01  -0.01    -0.17  -0.05  -0.00     0.01   0.01  -0.00
  14   6     0.02  -0.02   0.01    -0.26   0.25  -0.02     0.01   0.09  -0.00
  15   6    -0.02  -0.00  -0.00     0.18   0.07   0.00     0.04   0.00   0.00
  16   8     0.00   0.01   0.00    -0.01  -0.09   0.00     0.01  -0.02   0.00
  17   7     0.01   0.03  -0.09    -0.03  -0.22  -0.01    -0.00  -0.01   0.00
  18   6    -0.00  -0.17   0.37     0.23  -0.05   0.08     0.01  -0.01   0.00
  19   6     0.05   0.18  -0.31    -0.19   0.07  -0.09    -0.00   0.01   0.00
  20   8     0.06   0.15   0.15     0.05   0.04   0.05    -0.00  -0.00  -0.00
  21   1     0.00   0.00  -0.00    -0.05  -0.04   0.00     0.12  -0.13   0.01
  22   1     0.00   0.00  -0.00    -0.01  -0.02   0.00    -0.15   0.20  -0.01
  23   1    -0.00   0.01  -0.00     0.01  -0.05   0.00    -0.37  -0.22  -0.00
  24   1     0.01   0.00  -0.00    -0.08  -0.02  -0.00    -0.36  -0.35   0.01
  25   1     0.00   0.01  -0.00     0.03  -0.07   0.00     0.04   0.01   0.00
  26   1     0.03  -0.01   0.00    -0.27   0.11  -0.01    -0.03   0.00  -0.00
  27   1    -0.00  -0.02   0.03     0.02   0.03  -0.00    -0.02   0.01  -0.00
  28   1    -0.04   0.02  -0.04     0.09  -0.10   0.00    -0.00  -0.00   0.00
  29   1     0.15   0.14  -0.13     0.15  -0.03  -0.01     0.00  -0.00  -0.00
  30   1    -0.10  -0.34  -0.07     0.07  -0.10  -0.01     0.00  -0.00   0.00
  31   1    -0.25  -0.13  -0.25     0.05   0.00   0.01     0.00   0.00   0.00
  32   1    -0.00   0.03   0.23    -0.04   0.06  -0.10    -0.00   0.00  -0.00
  33   1    -0.23  -0.39  -0.20     0.02   0.01   0.01     0.00   0.00  -0.00
                     49                     50                     51
                        a                      a                      a 
 Frequencies --  1089.2191              1093.6799              1110.8507
 Red. masses --    10.5792                 9.3471                 6.2436
 Frc consts  --     0.0000                 0.0000                 0.0000
 IR Inten    --    48.2738                47.1868                16.1140
 Raman Activ --     0.0000                 0.0000                 0.0000
 Depolar     --     0.0000                 0.0000                 0.0000
 Atom AN      X      Y      Z        X      Y      Z        X      Y      Z
   1   6     0.09  -0.03   0.00     0.12  -0.07   0.01    -0.02   0.06  -0.00
   2   6     0.01  -0.02   0.00     0.02  -0.06   0.00    -0.06   0.02  -0.00
   3   6    -0.10   0.10  -0.01    -0.18   0.18  -0.01     0.13  -0.14   0.01
   4   6     0.17  -0.06   0.01     0.30  -0.12   0.01    -0.04   0.10  -0.01
   5   6     0.02  -0.14   0.01     0.05  -0.23   0.01    -0.06   0.13  -0.01
   6   6    -0.09   0.09  -0.01    -0.17   0.20  -0.01     0.06  -0.15   0.01
   7   6     0.02   0.04  -0.00     0.08   0.10  -0.00    -0.08  -0.07   0.00
   8   8    -0.05   0.06  -0.00    -0.07   0.08  -0.01     0.00  -0.00   0.00
   9   6     0.12  -0.02   0.00     0.16  -0.02   0.00     0.06  -0.10   0.01
  10   6    -0.09   0.06  -0.01    -0.11   0.06  -0.01    -0.31   0.14  -0.01
  11   6     0.01   0.02  -0.00    -0.01   0.00   0.00     0.15   0.14  -0.00
  12   6     0.15   0.03   0.00     0.17   0.02   0.00     0.23  -0.06   0.01
  13   6    -0.08  -0.05  -0.00    -0.12   0.00  -0.00    -0.14   0.02  -0.01
  14   6    -0.03  -0.11   0.01    -0.10  -0.14   0.00     0.05  -0.08   0.01
  15   6    -0.01   0.02  -0.00    -0.04   0.02  -0.00     0.13   0.09  -0.00
  16   8    -0.05   0.07  -0.00    -0.08   0.10  -0.01    -0.00   0.00   0.00
  17   7    -0.08  -0.05  -0.04    -0.07  -0.02   0.01    -0.17  -0.04  -0.03
  18   6    -0.01   0.28   0.03     0.15  -0.16   0.02     0.17   0.01   0.07
  19   6    -0.14  -0.49  -0.30     0.03   0.33   0.15    -0.03   0.08  -0.00
  20   8     0.14   0.24   0.31    -0.07  -0.15  -0.18    -0.00  -0.04  -0.03
  21   1     0.04  -0.13   0.01     0.06  -0.26   0.01    -0.03   0.22  -0.01
  22   1     0.07  -0.03   0.00     0.16  -0.08   0.01    -0.21   0.09  -0.01
  23   1    -0.14  -0.05  -0.00    -0.25  -0.10  -0.00     0.11   0.02   0.00
  24   1    -0.00   0.04  -0.00     0.01   0.10  -0.00    -0.10  -0.13   0.00
  25   1    -0.13  -0.06  -0.00    -0.16  -0.09   0.00    -0.38  -0.19   0.00
  26   1    -0.02   0.02   0.00    -0.04   0.02  -0.00     0.17  -0.00   0.01
  27   1     0.04  -0.01  -0.00     0.06  -0.08   0.01     0.11  -0.34   0.02
  28   1     0.07  -0.05  -0.01    -0.03  -0.00   0.00    -0.04  -0.02  -0.02
  29   1     0.12   0.07  -0.05     0.03  -0.07   0.03     0.16  -0.04   0.00
  30   1    -0.13   0.04  -0.06     0.09  -0.06   0.02    -0.02  -0.05  -0.02
  31   1     0.06  -0.15  -0.04    -0.01   0.13   0.04     0.01   0.10   0.04
  32   1    -0.02  -0.13  -0.12     0.00   0.06   0.03    -0.00  -0.05  -0.04
  33   1     0.05   0.10   0.09    -0.01  -0.03  -0.04     0.04   0.06   0.03
                     52                     53                     54
                        a                      a                      a 
 Frequencies --  1128.2373              1161.5809              1170.0058
 Red. masses --     5.4692                 6.0473                 2.7897
 Frc consts  --     0.0000                 0.0000                 0.0000
 IR Inten    --    48.1178                54.1196                 0.5160
 Raman Activ --     0.0000                 0.0000                 0.0000
 Depolar     --     0.0000                 0.0000                 0.0000
 Atom AN      X      Y      Z        X      Y      Z        X      Y      Z
   1   6    -0.02   0.00  -0.00    -0.02  -0.01  -0.00     0.01  -0.11   0.00
   2   6    -0.02  -0.01  -0.00     0.00  -0.00   0.00     0.00   0.10  -0.00
   3   6     0.02  -0.04   0.00    -0.01  -0.02   0.00    -0.12   0.01  -0.00
   4   6     0.06   0.02   0.00     0.00  -0.00  -0.00    -0.21   0.02  -0.01
   5   6     0.03   0.05  -0.00     0.04   0.04  -0.00     0.08   0.04   0.00
   6   6    -0.02   0.00  -0.00    -0.01   0.03  -0.00     0.07  -0.01   0.00
   7   6     0.05   0.01   0.00     0.04   0.01   0.00     0.03   0.02  -0.00
   8   8     0.01  -0.02   0.00     0.02  -0.02   0.00     0.02  -0.02   0.00
   9   6    -0.05   0.02  -0.00    -0.09   0.04  -0.00    -0.11  -0.01  -0.00
  10   6    -0.13   0.02  -0.00    -0.05  -0.01  -0.00    -0.05  -0.04   0.00
  11   6     0.07   0.11  -0.00     0.03   0.08  -0.00     0.04   0.05  -0.00
  12   6     0.19   0.00   0.01     0.08  -0.01   0.00    -0.02  -0.05   0.00
  13   6    -0.07  -0.15   0.01     0.01  -0.15   0.00     0.05   0.05  -0.00
  14   6    -0.08  -0.01  -0.01    -0.03   0.03   0.01     0.07   0.16  -0.01
  15   6     0.07   0.04   0.00     0.02   0.00   0.00     0.02  -0.01   0.00
  16   8    -0.04   0.01  -0.00    -0.02  -0.00   0.00     0.04  -0.06   0.00
  17   7     0.23   0.08   0.09     0.31   0.13  -0.11    -0.01  -0.01   0.00
  18   6    -0.29   0.06  -0.25    -0.41  -0.11   0.14    -0.00   0.03  -0.01
  19   6     0.07  -0.11   0.13     0.17   0.01   0.01    -0.00  -0.01   0.00
  20   8    -0.00   0.08  -0.01    -0.08  -0.08  -0.05     0.00   0.00   0.00
  21   1    -0.01   0.01  -0.00    -0.00  -0.05   0.00     0.07  -0.69   0.03
  22   1    -0.04   0.01  -0.00     0.03  -0.01   0.00    -0.30   0.16  -0.02
  23   1    -0.02  -0.03   0.00    -0.03  -0.02  -0.00     0.14   0.13  -0.00
  24   1    -0.07  -0.04   0.00    -0.02  -0.00  -0.00     0.33   0.22  -0.00
  25   1    -0.18  -0.11   0.00    -0.04  -0.02  -0.00    -0.12  -0.09   0.00
  26   1    -0.08   0.07  -0.01    -0.15   0.09  -0.00     0.11  -0.03   0.00
  27   1     0.07  -0.10   0.02     0.04  -0.09  -0.01     0.01  -0.13   0.01
  28   1     0.26  -0.06   0.06     0.27  -0.04  -0.02    -0.01   0.00   0.00
  29   1    -0.30  -0.00   0.05     0.27  -0.13  -0.03    -0.00   0.00   0.00
  30   1     0.25   0.03   0.07    -0.48   0.11  -0.07     0.02  -0.01  -0.00
  31   1     0.01  -0.33  -0.09    -0.10   0.22   0.04     0.00  -0.01  -0.00
  32   1    -0.00   0.22   0.13     0.03  -0.04   0.11     0.00  -0.00  -0.00
  33   1    -0.15  -0.26  -0.15     0.07   0.17   0.08    -0.00  -0.01  -0.00
                     55                     56                     57
                        a                      a                      a 
 Frequencies --  1171.6157              1185.5005              1211.5779
 Red. masses --     4.7822                 3.1611                 7.0761
 Frc consts  --     0.0000                 0.0000                 0.0000
 IR Inten    --     8.4163                39.4296                13.9982
 Raman Activ --     0.0000                 0.0000                 0.0000
 Depolar     --     0.0000                 0.0000                 0.0000
 Atom AN      X      Y      Z        X      Y      Z        X      Y      Z
   1   6    -0.09  -0.02  -0.00     0.02   0.00   0.00    -0.11  -0.05  -0.00
   2   6     0.12   0.02   0.00     0.06   0.05  -0.00    -0.05  -0.11   0.00
   3   6    -0.09  -0.05  -0.00    -0.06   0.01  -0.00     0.10  -0.11   0.01
   4   6    -0.20  -0.08  -0.00    -0.19  -0.04  -0.00     0.24   0.15   0.00
   5   6     0.07   0.21  -0.01    -0.07  -0.02  -0.00     0.15   0.27  -0.01
   6   6     0.07   0.12  -0.00     0.07  -0.02   0.00    -0.02   0.10  -0.01
   7   6     0.02  -0.01   0.00    -0.05  -0.02  -0.00     0.01  -0.04   0.00
   8   8     0.04  -0.06   0.00    -0.02   0.02  -0.00     0.05  -0.07   0.00
   9   6    -0.24  -0.06  -0.00     0.07   0.01   0.00    -0.27  -0.17   0.00
  10   6    -0.09  -0.06   0.00    -0.03   0.04  -0.00    -0.18   0.09  -0.01
  11   6     0.09   0.08  -0.00    -0.07   0.04  -0.00     0.06   0.10  -0.00
  12   6    -0.05  -0.07   0.00    -0.00  -0.07   0.00     0.03   0.07  -0.00
  13   6     0.13   0.08  -0.00    -0.02   0.05  -0.00     0.05  -0.05   0.00
  14   6     0.05   0.22  -0.01     0.28   0.05   0.00     0.02  -0.31   0.02
  15   6    -0.03  -0.03   0.00    -0.01  -0.03   0.00    -0.03   0.04  -0.00
  16   8     0.05  -0.07   0.01     0.04  -0.02   0.00    -0.05   0.08  -0.01
  17   7     0.03  -0.01   0.01    -0.10  -0.04   0.00     0.08   0.02   0.02
  18   6    -0.01   0.02  -0.00     0.02   0.10  -0.03    -0.02  -0.02   0.03
  19   6    -0.01  -0.02  -0.01     0.00  -0.02   0.03    -0.01   0.00  -0.08
  20   8     0.01   0.00   0.01     0.01   0.01  -0.00     0.01  -0.01   0.02
  21   1    -0.03   0.01  -0.00     0.00   0.04  -0.00    -0.02  -0.17   0.01
  22   1     0.56  -0.22   0.03     0.20  -0.07   0.01    -0.14   0.02  -0.01
  23   1    -0.25  -0.18   0.00    -0.05  -0.02  -0.00    -0.17  -0.19   0.00
  24   1     0.00   0.03  -0.00     0.11   0.06   0.00    -0.05   0.00  -0.00
  25   1    -0.19  -0.14   0.00     0.22   0.19  -0.00     0.32   0.33  -0.01
  26   1     0.34  -0.10   0.01    -0.49   0.20  -0.02     0.09  -0.00   0.00
  27   1    -0.00  -0.09   0.01     0.08  -0.59   0.03     0.03  -0.16   0.02
  28   1    -0.07   0.03  -0.00    -0.03  -0.01   0.00    -0.14   0.07  -0.01
  29   1    -0.04   0.03  -0.00     0.06  -0.04   0.02    -0.18   0.11  -0.01
  30   1     0.01  -0.00  -0.00     0.07  -0.04  -0.01     0.04  -0.05   0.00
  31   1     0.00  -0.01  -0.00     0.02  -0.05  -0.00    -0.02   0.07   0.00
  32   1     0.00  -0.02  -0.01     0.00  -0.00  -0.01     0.00  -0.09  -0.04
  33   1     0.01   0.01   0.01    -0.02  -0.04  -0.02     0.03   0.06   0.04
                     58                     59                     60
                        a                      a                      a 
 Frequencies --  1218.7498              1233.2840              1252.9918
 Red. masses --     3.6637                 4.3332                 4.7299
 Frc consts  --     0.0000                 0.0000                 0.0000
 IR Inten    --    24.9582                 7.3950                50.3286
 Raman Activ --     0.0000                 0.0000                 0.0000
 Depolar     --     0.0000                 0.0000                 0.0000
 Atom AN      X      Y      Z        X      Y      Z        X      Y      Z
   1   6    -0.02  -0.02   0.00     0.07  -0.08   0.01    -0.01  -0.04   0.00
   2   6     0.01  -0.02   0.00     0.08  -0.05   0.00    -0.00  -0.07   0.00
   3   6     0.02  -0.05   0.00     0.07  -0.08   0.01     0.09   0.03   0.00
   4   6     0.01   0.07  -0.00    -0.10   0.27  -0.02     0.19   0.09   0.00
   5   6    -0.00   0.09  -0.00    -0.29   0.10  -0.01    -0.03   0.00  -0.00
   6   6     0.02   0.01   0.00     0.05  -0.14   0.01    -0.05   0.00  -0.00
   7   6    -0.02  -0.02   0.00    -0.05  -0.03   0.00     0.03   0.01   0.00
   8   8     0.01  -0.02   0.00     0.00  -0.02   0.00     0.02  -0.02   0.00
   9   6    -0.04  -0.11   0.01     0.13   0.04   0.00    -0.06   0.12  -0.01
  10   6    -0.04   0.02  -0.00     0.05   0.02   0.00     0.07  -0.01   0.00
  11   6    -0.00  -0.01   0.00     0.01  -0.04   0.00     0.01   0.02  -0.00
  12   6    -0.02   0.10  -0.00     0.03   0.01  -0.00    -0.04  -0.15   0.01
  13   6    -0.06   0.04  -0.01    -0.12  -0.06   0.00     0.28  -0.05   0.00
  14   6     0.07  -0.10   0.01    -0.04  -0.03  -0.00    -0.15   0.08  -0.01
  15   6     0.03   0.00   0.00     0.10   0.04   0.00    -0.22  -0.04  -0.01
  16   8    -0.01   0.04  -0.00     0.02  -0.03   0.00     0.05  -0.07   0.01
  17   7    -0.19  -0.10  -0.06    -0.00   0.04   0.01     0.14   0.02  -0.02
  18   6     0.10   0.15  -0.09    -0.01  -0.06   0.02     0.10   0.06  -0.02
  19   6    -0.01  -0.04   0.26     0.01   0.02  -0.05    -0.05  -0.05   0.11
  20   8    -0.01   0.03  -0.07    -0.00  -0.01   0.01     0.00   0.02  -0.02
  21   1    -0.00  -0.04   0.00     0.00   0.16  -0.01    -0.01   0.09  -0.00
  22   1    -0.01  -0.00  -0.00    -0.09   0.04  -0.00    -0.17   0.05  -0.01
  23   1    -0.10  -0.10   0.00    -0.40  -0.33   0.00    -0.11  -0.10   0.00
  24   1     0.07   0.05  -0.00     0.48   0.29   0.00     0.04   0.04  -0.00
  25   1     0.17   0.15  -0.00    -0.06  -0.05   0.00    -0.18  -0.16   0.00
  26   1     0.19  -0.08   0.01    -0.08   0.02  -0.00    -0.19   0.08  -0.01
  27   1    -0.02   0.11  -0.03    -0.02   0.18  -0.01     0.00  -0.12   0.00
  28   1     0.10  -0.09  -0.02     0.10  -0.03   0.01    -0.52   0.23  -0.06
  29   1     0.48  -0.29   0.05    -0.07   0.04  -0.01     0.02   0.02  -0.00
  30   1    -0.19   0.19  -0.04     0.06  -0.05   0.02    -0.25   0.19  -0.05
  31   1     0.09  -0.25   0.00    -0.02   0.06   0.00     0.04  -0.13  -0.00
  32   1    -0.02   0.28   0.08     0.00  -0.05  -0.00    -0.02   0.14  -0.01
  33   1    -0.12  -0.21  -0.13     0.02   0.04   0.03    -0.05  -0.09  -0.05
                     61                     62                     63
                        a                      a                      a 
 Frequencies --  1265.3559              1278.8927              1289.2779
 Red. masses --     7.9300                 9.6601                 3.2733
 Frc consts  --     0.0000                 0.0000                 0.0000
 IR Inten    --    88.8181              1007.0908                58.4107
 Raman Activ --     0.0000                 0.0000                 0.0000
 Depolar     --     0.0000                 0.0000                 0.0000
 Atom AN      X      Y      Z        X      Y      Z        X      Y      Z
   1   6     0.06  -0.06   0.00     0.14  -0.01   0.00     0.00   0.00  -0.00
   2   6     0.03  -0.06   0.00     0.06   0.11  -0.00    -0.00   0.00  -0.00
   3   6     0.09   0.12  -0.00    -0.11   0.06  -0.01    -0.00  -0.00  -0.00
   4   6     0.21   0.03   0.01    -0.21  -0.11  -0.00    -0.01  -0.00   0.00
   5   6    -0.12  -0.19   0.01    -0.20  -0.28   0.01    -0.00  -0.00  -0.00
   6   6    -0.12  -0.04  -0.00    -0.06  -0.14   0.00     0.00  -0.00   0.00
   7   6     0.25   0.19  -0.00     0.38   0.27  -0.00    -0.00  -0.00  -0.00
   8   8    -0.03  -0.00  -0.00    -0.04   0.00  -0.00    -0.00   0.00  -0.00
   9   6    -0.14  -0.12   0.00    -0.24  -0.04  -0.00     0.00   0.00  -0.00
  10   6     0.01  -0.06   0.00    -0.20  -0.06  -0.00    -0.01   0.00   0.00
  11   6    -0.13   0.04  -0.00     0.09   0.08  -0.00     0.01  -0.00   0.00
  12   6    -0.05   0.01  -0.00     0.05   0.09  -0.00     0.00   0.01  -0.00
  13   6     0.11   0.27  -0.01    -0.00  -0.17   0.01    -0.00  -0.01   0.00
  14   6     0.03   0.26  -0.01    -0.06  -0.18   0.01    -0.00  -0.01   0.00
  15   6    -0.27  -0.25   0.00     0.25   0.21  -0.00     0.01   0.02  -0.00
  16   8     0.01   0.03  -0.00    -0.02  -0.03   0.00     0.00  -0.01   0.00
  17   7     0.02  -0.12   0.01     0.07   0.05  -0.00    -0.04  -0.04   0.01
  18   6    -0.13   0.05  -0.00     0.07  -0.03   0.01     0.07   0.07   0.02
  19   6     0.04   0.00  -0.03    -0.03  -0.02   0.02     0.17  -0.02  -0.21
  20   8    -0.01  -0.01   0.01     0.01   0.01  -0.00    -0.22  -0.19   0.06
  21   1    -0.01   0.24  -0.01     0.02   0.18  -0.01     0.00  -0.00   0.00
  22   1    -0.22   0.08  -0.01     0.07   0.01   0.00     0.01  -0.00   0.00
  23   1    -0.07  -0.04  -0.00     0.09   0.11  -0.00     0.01   0.00   0.00
  24   1     0.07   0.06  -0.00     0.15   0.07   0.00     0.00  -0.00   0.00
  25   1     0.05   0.02   0.00     0.13   0.13  -0.00     0.01   0.01  -0.00
  26   1     0.25  -0.11   0.01     0.13  -0.02   0.00     0.00   0.00  -0.00
  27   1     0.02  -0.27   0.02     0.02  -0.03   0.00    -0.00   0.01   0.00
  28   1     0.22  -0.11   0.03    -0.18   0.09  -0.02    -0.09   0.02  -0.00
  29   1     0.05  -0.04   0.01    -0.09   0.05  -0.00     0.03   0.04  -0.02
  30   1     0.11  -0.09   0.01    -0.13   0.07  -0.02     0.12  -0.07   0.01
  31   1    -0.02   0.02  -0.01     0.01  -0.01   0.01    -0.11  -0.22  -0.21
  32   1     0.01  -0.05   0.01    -0.01   0.04  -0.01    -0.01   0.54   0.34
  33   1     0.02   0.04   0.02    -0.01  -0.02  -0.02     0.22   0.42   0.26
                     64                     65                     66
                        a                      a                      a 
 Frequencies --  1319.4168              1332.7618              1338.1676
 Red. masses --     4.1736                 3.5356                11.9590
 Frc consts  --     0.0000                 0.0000                 0.0000
 IR Inten    --    95.8881                22.0187                25.5458
 Raman Activ --     0.0000                 0.0000                 0.0000
 Depolar     --     0.0000                 0.0000                 0.0000
 Atom AN      X      Y      Z        X      Y      Z        X      Y      Z
   1   6    -0.01  -0.00  -0.00    -0.00   0.02  -0.00     0.03  -0.40   0.02
   2   6    -0.01  -0.00  -0.00     0.03  -0.01   0.00    -0.39   0.16  -0.02
   3   6     0.01  -0.00   0.00    -0.02  -0.01  -0.00     0.34   0.21   0.00
   4   6     0.01  -0.00   0.00     0.01   0.02  -0.00     0.02  -0.37   0.02
   5   6     0.00   0.03  -0.00     0.02  -0.02   0.00    -0.35   0.15  -0.02
   6   6     0.02   0.01   0.00    -0.02  -0.01  -0.00     0.32   0.26  -0.00
   7   6    -0.05  -0.03  -0.00     0.02   0.01   0.00     0.01   0.00   0.00
   8   8    -0.01   0.01  -0.00     0.00  -0.00   0.00    -0.00  -0.03   0.00
   9   6     0.11  -0.09   0.01    -0.05   0.05  -0.00     0.02  -0.05   0.00
  10   6     0.02   0.02  -0.00    -0.02  -0.02   0.00     0.03   0.04  -0.00
  11   6    -0.09  -0.01  -0.00     0.05  -0.00   0.00    -0.04   0.01  -0.00
  12   6     0.01   0.01  -0.00    -0.01   0.01  -0.00     0.01  -0.03   0.00
  13   6    -0.09   0.17  -0.01     0.03  -0.09   0.01     0.04   0.03  -0.00
  14   6    -0.01   0.08  -0.00     0.04  -0.02   0.00    -0.08  -0.03  -0.00
  15   6     0.02  -0.07   0.00    -0.04   0.02  -0.00     0.08   0.04   0.00
  16   8    -0.02   0.04  -0.00     0.02  -0.02   0.00    -0.04   0.02  -0.00
  17   7     0.01  -0.02  -0.01    -0.04  -0.01   0.01     0.02  -0.02   0.00
  18   6     0.32  -0.23   0.06    -0.11   0.17   0.05    -0.03   0.02   0.00
  19   6    -0.09  -0.18  -0.02     0.06  -0.37  -0.05     0.01  -0.02  -0.00
  20   8     0.00   0.04  -0.03     0.02   0.07  -0.09     0.00   0.01  -0.01
  21   1    -0.00  -0.01   0.00    -0.00   0.01  -0.00    -0.00  -0.01   0.00
  22   1     0.00  -0.00   0.00    -0.01   0.00  -0.00     0.01  -0.01   0.00
  23   1    -0.00  -0.01   0.00    -0.00   0.00  -0.00     0.01  -0.01   0.00
  24   1    -0.00  -0.00  -0.00    -0.00  -0.00  -0.00    -0.01   0.01  -0.00
  25   1     0.04   0.03  -0.00    -0.02  -0.01   0.00     0.00   0.01  -0.00
  26   1     0.05  -0.03   0.00    -0.02   0.01  -0.00    -0.01   0.00  -0.00
  27   1     0.02  -0.15   0.01    -0.01   0.07   0.00     0.00   0.00  -0.00
  28   1     0.24  -0.09   0.02    -0.13   0.04  -0.01    -0.02   0.00  -0.00
  29   1    -0.38   0.28  -0.06     0.14  -0.03   0.00     0.03  -0.01   0.00
  30   1    -0.37   0.25  -0.04     0.26  -0.19   0.03     0.03  -0.02   0.00
  31   1     0.01   0.18   0.10    -0.04   0.62   0.27    -0.00   0.04   0.02
  32   1    -0.04   0.36   0.07    -0.01   0.35   0.12     0.00   0.01   0.01
  33   1    -0.05  -0.08  -0.05    -0.10  -0.15  -0.12    -0.01  -0.01  -0.01
                     67                     68                     69
                        a                      a                      a 
 Frequencies --  1355.3210              1382.3329              1417.6179
 Red. masses --    11.0082                10.1201                 9.6672
 Frc consts  --     0.0000                 0.0000                 0.0000
 IR Inten    --     8.2419                52.2925                35.3318
 Raman Activ --     0.0000                 0.0000                 0.0000
 Depolar     --     0.0000                 0.0000                 0.0000
 Atom AN      X      Y      Z        X      Y      Z        X      Y      Z
   1   6    -0.02  -0.10   0.00     0.01   0.04  -0.00    -0.10  -0.34   0.01
   2   6    -0.02  -0.01  -0.00     0.02   0.00   0.00     0.35  -0.02   0.01
   3   6     0.08   0.09  -0.00    -0.04  -0.03  -0.00    -0.06   0.25  -0.01
   4   6     0.08  -0.07   0.01    -0.00   0.02  -0.00    -0.24  -0.31   0.01
   5   6    -0.01  -0.02   0.00     0.00  -0.02   0.00     0.38   0.11   0.01
   6   6     0.01   0.08  -0.00    -0.03  -0.03   0.00    -0.21   0.16  -0.01
   7   6     0.08   0.03   0.00     0.13   0.06   0.00    -0.08  -0.09   0.00
   8   8     0.00   0.00  -0.00    -0.03   0.01  -0.00     0.00   0.02  -0.00
   9   6    -0.20   0.10  -0.01    -0.21  -0.45   0.02    -0.04   0.06  -0.00
  10   6    -0.21  -0.09  -0.00     0.09   0.34  -0.01     0.03   0.02  -0.00
  11   6     0.31   0.01   0.01     0.05   0.19  -0.01     0.02  -0.04   0.00
  12   6    -0.01  -0.01  -0.00     0.05  -0.52   0.03    -0.04  -0.00  -0.00
  13   6    -0.25  -0.27   0.01     0.16   0.14  -0.00     0.08   0.06  -0.00
  14   6     0.55   0.17   0.01    -0.06   0.03  -0.00    -0.01  -0.13   0.01
  15   6    -0.28  -0.15  -0.00     0.09  -0.07   0.01     0.15   0.03   0.00
  16   8     0.05  -0.02   0.00    -0.05   0.08  -0.01    -0.05   0.05  -0.00
  17   7    -0.17   0.16  -0.01    -0.16   0.08  -0.01    -0.05  -0.00  -0.00
  18   6     0.13  -0.09   0.01     0.04  -0.03   0.00     0.01   0.00  -0.00
  19   6    -0.01   0.03  -0.00    -0.00  -0.00  -0.01    -0.00   0.00  -0.01
  20   8    -0.00  -0.00   0.00    -0.00   0.00  -0.00    -0.00  -0.00  -0.00
  21   1    -0.01   0.05  -0.00     0.00   0.00  -0.00    -0.07   0.29  -0.02
  22   1    -0.08   0.03  -0.00     0.02  -0.00   0.00    -0.27   0.16  -0.02
  23   1    -0.02  -0.01  -0.00     0.03   0.02  -0.00    -0.11   0.01  -0.00
  24   1    -0.04  -0.00  -0.00     0.01   0.00   0.00     0.00   0.09  -0.00
  25   1    -0.04  -0.00  -0.00    -0.05   0.04  -0.00    -0.03  -0.03   0.00
  26   1    -0.10   0.08  -0.01    -0.23   0.16  -0.01    -0.04   0.01  -0.00
  27   1    -0.04   0.24  -0.01    -0.04   0.28  -0.02    -0.01  -0.02   0.00
  28   1     0.06   0.00   0.00     0.10  -0.03   0.01     0.05  -0.02   0.00
  29   1    -0.07   0.04  -0.01     0.03   0.02  -0.03    -0.00  -0.00   0.00
  30   1    -0.05   0.05   0.00     0.04   0.02   0.03     0.00  -0.00  -0.00
  31   1     0.01  -0.03  -0.01     0.01   0.01   0.01     0.01  -0.00   0.00
  32   1    -0.00   0.00   0.00    -0.00   0.01   0.02    -0.00   0.00   0.01
  33   1     0.01   0.01   0.01    -0.00  -0.00  -0.00     0.00   0.00   0.00
                     70                     71                     72
                        a                      a                      a 
 Frequencies --  1432.1410              1455.3959              1458.0960
 Red. masses --    10.1112                 2.4473                 9.3301
 Frc consts  --     0.0000                 0.0000                 0.0000
 IR Inten    --   299.4084                52.5883                16.0717
 Raman Activ --     0.0000                 0.0000                 0.0000
 Depolar     --     0.0000                 0.0000                 0.0000
 Atom AN      X      Y      Z        X      Y      Z        X      Y      Z
   1   6     0.02  -0.09   0.00     0.04  -0.03   0.00     0.23  -0.17   0.01
   2   6     0.08   0.05   0.00    -0.02   0.05  -0.00    -0.11   0.27  -0.02
   3   6    -0.10   0.01  -0.00    -0.05  -0.04   0.00    -0.25  -0.23   0.00
   4   6     0.05  -0.12   0.01     0.06  -0.02   0.00     0.36  -0.12   0.02
   5   6     0.06   0.14  -0.00    -0.00   0.07  -0.00    -0.02   0.38  -0.02
   6   6    -0.10  -0.01  -0.00    -0.05  -0.04  -0.00    -0.28  -0.18  -0.00
   7   6    -0.09  -0.08   0.00    -0.01   0.01  -0.00    -0.04  -0.05   0.00
   8   8    -0.05   0.04  -0.00     0.01  -0.02   0.00     0.03  -0.06   0.00
   9   6     0.37  -0.33   0.03    -0.02   0.05  -0.00    -0.08   0.07  -0.01
  10   6    -0.17  -0.08   0.00    -0.02  -0.00  -0.00     0.04   0.03  -0.00
  11   6    -0.12   0.21  -0.01     0.06  -0.05   0.00     0.06  -0.07   0.01
  12   6     0.20  -0.08   0.01    -0.03   0.02  -0.00    -0.06   0.04  -0.00
  13   6    -0.20  -0.23   0.01    -0.05   0.09  -0.01     0.02   0.07  -0.00
  14   6    -0.12   0.45  -0.03     0.03  -0.05   0.00     0.05  -0.09   0.01
  15   6    -0.06  -0.00  -0.00     0.01  -0.02   0.00    -0.06  -0.04   0.00
  16   8     0.03  -0.08   0.01    -0.02   0.03  -0.00    -0.05   0.06  -0.00
  17   7     0.12   0.03   0.00     0.04  -0.08   0.01     0.00  -0.02   0.00
  18   6    -0.04   0.01   0.00    -0.15  -0.21   0.03     0.03   0.04  -0.01
  19   6     0.02  -0.00   0.02     0.02  -0.02   0.04    -0.01   0.01  -0.02
  20   8     0.00   0.00   0.00     0.01   0.01   0.01    -0.00  -0.00  -0.00
  21   1    -0.01   0.09  -0.00     0.01   0.03  -0.00     0.05   0.15  -0.01
  22   1    -0.02   0.04  -0.00     0.03  -0.00   0.00     0.16  -0.00   0.01
  23   1     0.04   0.06  -0.00     0.04   0.03  -0.00     0.22   0.16  -0.00
[...]
  27   1    -0.01   0.02  -0.00    -0.02   0.09  -0.01     0.08  -0.10   0.01
  28   1     0.02  -0.01   0.01    -0.28   0.10  -0.01    -0.07   0.06  -0.01
  29   1    -0.07  -0.09   0.11    -0.02  -0.04   0.05     0.02   0.03  -0.04
  30   1    -0.07  -0.12  -0.08    -0.06  -0.05  -0.05     0.03   0.04   0.03
  31   1    -0.61   0.03  -0.23     0.06  -0.01   0.03    -0.00   0.00  -0.00
  32   1     0.03   0.21  -0.62    -0.00  -0.01   0.06     0.00  -0.01  -0.00
  33   1     0.01   0.01   0.01    -0.00  -0.01  -0.01     0.00   0.00   0.00
                     76                     77                     78
                        a                      a                      a 
 Frequencies --  1559.2631              1570.7765              1574.1965
 Red. masses --    12.4047                11.7427                11.9017
 Frc consts  --     0.0000                 0.0000                 0.0000
 IR Inten    --   379.5302               409.7103                35.4439
 Raman Activ --     0.0000                 0.0000                 0.0000
 Depolar     --     0.0000                 0.0000                 0.0000
 Atom AN      X      Y      Z        X      Y      Z        X      Y      Z
   1   6    -0.07  -0.23   0.01     0.02  -0.38   0.02     0.21  -0.11   0.01
   2   6     0.14   0.07   0.00    -0.06   0.19  -0.01    -0.46   0.15  -0.02
   3   6    -0.21  -0.13  -0.00    -0.13  -0.22   0.01     0.34   0.04   0.01
   4   6     0.07   0.13  -0.00    -0.04   0.36  -0.02    -0.23   0.19  -0.02
   5   6    -0.04  -0.09   0.00     0.11  -0.24   0.01     0.43  -0.15   0.02
   6   6     0.16   0.20  -0.00     0.08   0.24  -0.01    -0.33  -0.09  -0.01
   7   6     0.04  -0.01   0.00    -0.17   0.21  -0.01     0.12  -0.19   0.01
   8   8    -0.03   0.03  -0.00     0.12  -0.15   0.01    -0.11   0.17  -0.01
   9   6    -0.07  -0.27   0.01     0.04   0.24  -0.01    -0.01  -0.07   0.00
  10   6     0.15   0.23  -0.01    -0.07  -0.18   0.01     0.01   0.04  -0.00
  11   6     0.04  -0.15   0.01    -0.17   0.21  -0.01     0.03  -0.03   0.00
  12   6    -0.06   0.16  -0.01     0.13  -0.30   0.02    -0.02   0.03  -0.00
  13   6    -0.14   0.06  -0.01    -0.07   0.13  -0.01    -0.05   0.03  -0.00
  14   6     0.03  -0.00   0.00     0.08  -0.11   0.01    -0.00   0.03  -0.00
  15   6    -0.28   0.48  -0.03     0.03  -0.07   0.00    -0.07   0.11  -0.01
  16   8     0.23  -0.34   0.03    -0.01   0.05  -0.00     0.08  -0.11   0.01
  17   7     0.09  -0.08   0.01     0.04  -0.03   0.00     0.04  -0.03   0.00
  18   6    -0.02  -0.01  -0.00    -0.00   0.01   0.00    -0.01  -0.00  -0.00
  19   6    -0.00   0.00  -0.00    -0.00  -0.00   0.00    -0.00   0.00  -0.00
  20   8    -0.00  -0.00  -0.00    -0.00   0.00  -0.00    -0.00  -0.00  -0.00
  21   1    -0.03   0.06  -0.00    -0.02   0.10  -0.01     0.05   0.03   0.00
  22   1    -0.03   0.05  -0.00     0.04   0.03   0.00     0.10  -0.06   0.01
  23   1     0.04   0.04  -0.00     0.06   0.01   0.00    -0.04  -0.09   0.00
  24   1    -0.07  -0.02  -0.00    -0.07   0.00  -0.00     0.04   0.06  -0.00
  25   1    -0.07  -0.03  -0.00     0.06   0.02   0.00    -0.00   0.00  -0.00
  26   1    -0.06  -0.02  -0.00     0.07   0.01   0.00    -0.01  -0.00  -0.00
  27   1    -0.01  -0.03   0.00     0.02   0.08  -0.00    -0.00   0.00  -0.00
  28   1     0.04  -0.04   0.00    -0.03   0.02  -0.00     0.00  -0.01   0.00
  29   1    -0.00   0.00  -0.00    -0.00  -0.01   0.01    -0.00  -0.00   0.00
  30   1    -0.01   0.00  -0.00    -0.01  -0.01  -0.01    -0.00   0.00  -0.00
  31   1     0.00  -0.00   0.00     0.00  -0.00   0.00     0.00  -0.00   0.00
  32   1    -0.00  -0.00   0.00    -0.00   0.00   0.00    -0.00  -0.00   0.00
  33   1    -0.00  -0.00  -0.00    -0.00  -0.00  -0.00    -0.00  -0.00  -0.00
                     79                     80                     81
                        a                      a                      a 
 Frequencies --  1589.7207              1617.5318              2898.6076
 Red. masses --    12.0494                13.0005                 1.8317
 Frc consts  --     0.0000                 0.0000                 0.0000
 IR Inten    --   651.4434               377.0899                34.9674
 Raman Activ --     0.0000                 0.0000                 0.0000
 Depolar     --     0.0000                 0.0000                 0.0000
 Atom AN      X      Y      Z        X      Y      Z        X      Y      Z
   1   6     0.01   0.24  -0.01     0.06   0.06  -0.00     0.00  -0.00   0.00
   2   6     0.01  -0.11   0.01    -0.11  -0.01  -0.00    -0.00   0.00  -0.00
   3   6     0.10   0.17  -0.00     0.13   0.08   0.00     0.00   0.00   0.00
   4   6     0.02  -0.27   0.01    -0.07  -0.07   0.00     0.00  -0.00  -0.00
   5   6    -0.02   0.14  -0.01     0.13  -0.04   0.01    -0.00  -0.00   0.00
   6   6    -0.11  -0.18   0.00    -0.14  -0.07  -0.00     0.00   0.00   0.00
   7   6    -0.05   0.06  -0.00    -0.40   0.57  -0.04    -0.00   0.00  -0.00
   8   8     0.05  -0.07   0.00     0.30  -0.42   0.03     0.00  -0.00   0.00
   9   6    -0.06   0.19  -0.01     0.01  -0.21   0.01     0.00   0.00   0.00
  10   6     0.03  -0.10   0.01     0.08   0.15  -0.01     0.00   0.00   0.00
  11   6    -0.23   0.21  -0.02     0.04  -0.10   0.01    -0.00   0.00  -0.00
  12   6     0.15  -0.33   0.02    -0.04   0.16  -0.01    -0.00  -0.00   0.00
  13   6    -0.20   0.25  -0.02    -0.00  -0.12   0.01    -0.00   0.00  -0.00
  14   6     0.18  -0.20   0.01    -0.00   0.07  -0.00     0.00   0.00   0.00
  15   6    -0.19   0.35  -0.02    -0.02   0.03  -0.00    -0.00  -0.00  -0.00
  16   8     0.14  -0.21   0.02     0.01  -0.03   0.00    -0.00   0.00   0.00
  17   7     0.12  -0.10   0.01    -0.03   0.04  -0.00     0.01  -0.00  -0.00
  18   6    -0.01   0.00   0.00     0.00  -0.00  -0.00     0.05   0.05  -0.25
  19   6    -0.01  -0.00   0.00     0.00   0.00  -0.00    -0.08  -0.01   0.01
  20   8    -0.00   0.00  -0.00    -0.00   0.00   0.00    -0.00  -0.00  -0.00
  21   1     0.02  -0.05   0.00     0.01   0.00   0.00    -0.00  -0.00  -0.00
  22   1    -0.02  -0.02   0.00     0.01  -0.02   0.00    -0.00  -0.00  -0.00
  23   1    -0.04  -0.01  -0.00    -0.02  -0.02   0.00     0.00  -0.00  -0.00
  24   1     0.05   0.01   0.00     0.03   0.03  -0.00    -0.00   0.00  -0.00
  25   1     0.04  -0.00   0.00    -0.05  -0.01  -0.00     0.00  -0.00   0.00
  26   1     0.07   0.00   0.00    -0.04  -0.01  -0.00    -0.00   0.00   0.00
  27   1     0.01   0.10  -0.01     0.00  -0.04   0.00     0.00  -0.00  -0.00
  28   1     0.01  -0.02   0.00    -0.00   0.00  -0.00     0.01   0.01  -0.01
  29   1    -0.01  -0.00   0.01     0.00   0.00  -0.00     0.07   0.14   0.13
  30   1    -0.02  -0.00  -0.01     0.00  -0.00   0.00    -0.30  -0.32   0.78
  31   1     0.01  -0.00   0.00    -0.00   0.00   0.00     0.02   0.03  -0.07
  32   1    -0.00   0.00   0.01     0.00  -0.00   0.00     0.27   0.01   0.01
  33   1    -0.00  -0.00  -0.00     0.00  -0.00  -0.00     0.00   0.00   0.00
                     82                     83                     84
                        a                      a                      a 
 Frequencies --  2903.2036              2940.7898              2984.5966
 Red. masses --     1.7636                 1.5940                 1.6961
 Frc consts  --     0.0000                 0.0000                 0.0000
 IR Inten    --    94.2840                81.3429                40.4724
 Raman Activ --     0.0000                 0.0000                 0.0000
 Depolar     --     0.0000                 0.0000                 0.0000
 Atom AN      X      Y      Z        X      Y      Z        X      Y      Z
   1   6    -0.00   0.00  -0.00     0.00  -0.00   0.00     0.00  -0.00   0.00
   2   6     0.00  -0.00   0.00    -0.00   0.00  -0.00    -0.00  -0.00   0.00
   3   6    -0.00  -0.00  -0.00     0.00   0.00  -0.00     0.00  -0.00   0.00
   4   6    -0.00   0.00   0.00     0.00  -0.00   0.00     0.00  -0.00  -0.00
   5   6     0.00  -0.00  -0.00    -0.00  -0.00  -0.00     0.00   0.00  -0.00
   6   6    -0.00  -0.00  -0.00     0.00   0.00   0.00     0.00  -0.00   0.00
   7   6     0.00  -0.00   0.00    -0.00   0.00  -0.00     0.00  -0.00   0.00
   8   8    -0.00   0.00  -0.00     0.00  -0.00   0.00    -0.00   0.00  -0.00
   9   6    -0.00  -0.00   0.00     0.00   0.00   0.00     0.00  -0.00   0.00
  10   6    -0.00   0.00  -0.00     0.00   0.00  -0.00     0.00  -0.00   0.00
  11   6     0.00   0.00   0.00    -0.00   0.00   0.00    -0.00  -0.00  -0.00
  12   6    -0.00   0.00  -0.00    -0.00  -0.00  -0.00     0.00   0.00   0.00
  13   6     0.00  -0.00   0.00    -0.00   0.00  -0.00    -0.00  -0.00  -0.00
  14   6    -0.00  -0.00  -0.00     0.00   0.00  -0.00     0.00  -0.00   0.00
  15   6     0.00   0.00   0.00    -0.00  -0.00   0.00    -0.00  -0.00  -0.00
  16   8    -0.00  -0.00  -0.00     0.00   0.00  -0.00     0.00   0.00   0.00
  17   7    -0.00   0.00   0.00     0.01  -0.01   0.00     0.00  -0.00   0.00
  18   6    -0.02  -0.00   0.09     0.09   0.17   0.13     0.00   0.01  -0.02
  19   6    -0.25  -0.01   0.01     0.02   0.01   0.00     0.08   0.10  -0.22
  20   8    -0.01  -0.01  -0.01     0.00   0.00  -0.00    -0.00  -0.01  -0.01
  21   1     0.00  -0.00   0.00    -0.00  -0.00  -0.00    -0.00  -0.00  -0.00
  22   1     0.00   0.00   0.00    -0.00  -0.00   0.00    -0.00  -0.00   0.00
  23   1    -0.00   0.00  -0.00     0.00  -0.00   0.00    -0.00   0.00  -0.00
  24   1     0.00  -0.00   0.00    -0.00   0.00  -0.00    -0.00   0.00  -0.00
  25   1    -0.00   0.00  -0.00     0.00  -0.00  -0.00    -0.00   0.00  -0.00
  26   1    -0.00  -0.00  -0.00    -0.00  -0.00  -0.00     0.00   0.00  -0.00
  27   1     0.00   0.00  -0.00     0.01  -0.00  -0.00    -0.00  -0.00  -0.00
  28   1     0.00  -0.00   0.00     0.01   0.03   0.01    -0.00   0.00  -0.00
  29   1    -0.04  -0.08  -0.09    -0.28  -0.55  -0.70     0.01   0.02   0.02
  30   1     0.08   0.09  -0.21    -0.07  -0.06   0.24    -0.02  -0.02   0.05
  31   1    -0.02   0.02  -0.04    -0.00  -0.01   0.02    -0.35  -0.35   0.82
  32   1     0.92   0.05   0.04    -0.07  -0.00  -0.00     0.09   0.02  -0.03
  33   1     0.01  -0.00   0.00    -0.00  -0.00   0.00     0.01   0.00  -0.01
                     85                     86                     87
                        a                      a                      a 
 Frequencies --  3088.4169              3089.6882              3094.0268
 Red. masses --     1.7726                 1.8018                 1.7791
 Frc consts  --     0.0000                 0.0000                 0.0000
 IR Inten    --     8.6116                 0.6987                15.3366
 Raman Activ --     0.0000                 0.0000                 0.0000
 Depolar     --     0.0000                 0.0000                 0.0000
 Atom AN      X      Y      Z        X      Y      Z        X      Y      Z
   1   6     0.11   0.01   0.00    -0.02  -0.00  -0.00     0.00   0.00   0.00
   2   6    -0.03  -0.08   0.00    -0.04  -0.09   0.00    -0.00  -0.00   0.00
   3   6    -0.06   0.08  -0.01    -0.13   0.16  -0.01     0.00  -0.00   0.00
   4   6    -0.00  -0.00  -0.00    -0.01   0.00  -0.00     0.00  -0.00   0.00
   5   6    -0.00   0.01  -0.00     0.00  -0.00   0.00    -0.00   0.00  -0.00
   6   6    -0.11   0.16  -0.01     0.08  -0.11   0.01    -0.00   0.00  -0.00
   7   6    -0.00   0.00  -0.00     0.00  -0.00   0.00    -0.00   0.00  -0.00
   8   8     0.00  -0.00   0.00    -0.00   0.00  -0.00    -0.00  -0.00   0.00
   9   6    -0.00   0.00  -0.00     0.00  -0.00   0.00    -0.01   0.00  -0.00
  10   6     0.00  -0.00   0.00    -0.00   0.00  -0.00    -0.10   0.13  -0.01
  11   6     0.00   0.00  -0.00    -0.00  -0.00   0.00    -0.08  -0.19   0.01
  12   6    -0.00   0.00  -0.00     0.00  -0.00   0.00     0.03   0.00   0.00
  13   6     0.00  -0.00   0.00    -0.00   0.00  -0.00     0.00   0.00  -0.00
  14   6    -0.00   0.00  -0.00     0.00   0.00  -0.00     0.00  -0.00   0.00
  15   6    -0.00   0.00  -0.00    -0.00   0.00  -0.00    -0.00   0.00  -0.00
  16   8    -0.00  -0.00   0.00     0.00  -0.00   0.00     0.00  -0.00   0.00
  17   7    -0.00  -0.00  -0.00     0.00  -0.00   0.00     0.00   0.00   0.00
  18   6     0.00   0.00  -0.00    -0.00  -0.00   0.00     0.00   0.00   0.00
  19   6    -0.00  -0.00  -0.00    -0.00  -0.00  -0.00    -0.00  -0.00   0.00
  20   8    -0.00   0.00   0.00    -0.00   0.00   0.00     0.00  -0.00   0.00
  21   1    -0.43  -0.05  -0.01     0.09   0.01   0.00    -0.01  -0.00  -0.00
  22   1     0.13   0.30  -0.01     0.15   0.34  -0.01     0.00   0.01  -0.00
  23   1     0.22  -0.28   0.02     0.45  -0.59   0.04    -0.01   0.01  -0.00
  24   1     0.41  -0.59   0.04    -0.28   0.39  -0.03     0.01  -0.01   0.00
  25   1    -0.01   0.01  -0.00     0.01  -0.01   0.00     0.37  -0.46   0.03
  26   1    -0.00  -0.00   0.00     0.00   0.00  -0.00     0.28   0.69  -0.03
  27   1     0.00   0.00   0.00    -0.00  -0.00  -0.00    -0.12  -0.02  -0.00
  28   1     0.00   0.00   0.00     0.00   0.00   0.00    -0.00  -0.00   0.00
  29   1    -0.00  -0.00  -0.00     0.00   0.00   0.00    -0.00  -0.00  -0.00
  30   1    -0.00  -0.00   0.00     0.00   0.00  -0.00    -0.00  -0.00   0.00
  31   1    -0.00  -0.00   0.00    -0.00  -0.00   0.00     0.00   0.00  -0.00
  32   1     0.00   0.00   0.00     0.00   0.00   0.00     0.00  -0.00  -0.00
  33   1     0.00  -0.00  -0.00     0.00   0.00  -0.00    -0.00   0.00   0.00
                     88                     89                     90
                        a                      a                      a 
 Frequencies --  3097.1808              3102.9859              3106.4981
 Red. masses --     1.8501                 1.8657                 1.9160
 Frc consts  --     0.0000                 0.0000                 0.0000
 IR Inten    --    47.7316                51.2196                85.5214
 Raman Activ --     0.0000                 0.0000                 0.0000
 Depolar     --     0.0000                 0.0000                 0.0000
 Atom AN      X      Y      Z        X      Y      Z        X      Y      Z
   1   6    -0.15  -0.02  -0.00    -0.01  -0.00  -0.00    -0.20  -0.02  -0.00
   2   6     0.07   0.15  -0.00    -0.00  -0.01   0.00    -0.07  -0.17   0.01
   3   6    -0.08   0.10  -0.01     0.00  -0.00   0.00     0.04  -0.05   0.00
   4   6    -0.00  -0.00  -0.00    -0.00   0.00  -0.00     0.00   0.00   0.00
   5   6     0.00   0.00  -0.00    -0.00  -0.00   0.00     0.00   0.00  -0.00
   6   6    -0.06   0.09  -0.01     0.00  -0.00   0.00    -0.04   0.06  -0.00
   7   6    -0.00   0.00  -0.00     0.00  -0.00   0.00    -0.00   0.00  -0.00
   8   8     0.00  -0.00   0.00    -0.00   0.00  -0.00     0.00  -0.00   0.00
   9   6    -0.00  -0.00   0.00     0.01   0.00   0.00    -0.00   0.00  -0.00
  10   6     0.00  -0.00   0.00     0.14  -0.17   0.01    -0.00   0.01  -0.00
  11   6    -0.00  -0.00   0.00    -0.06  -0.16   0.01     0.00   0.00  -0.00
  12   6     0.00   0.00   0.00     0.04   0.01   0.00    -0.00  -0.00  -0.00
  13   6    -0.00   0.00  -0.00     0.00   0.00   0.00     0.00  -0.00   0.00
  14   6     0.00   0.00  -0.00    -0.00   0.00  -0.00    -0.00  -0.00   0.00
  15   6    -0.00   0.00  -0.00     0.00   0.00  -0.00     0.00  -0.00   0.00
  16   8     0.00  -0.00   0.00    -0.00  -0.00   0.00    -0.00   0.00  -0.00
  17   7    -0.00  -0.00   0.00     0.00   0.00   0.00    -0.00  -0.00  -0.00
  18   6    -0.00  -0.00   0.00     0.00   0.00   0.00     0.00   0.00  -0.00
  19   6    -0.00  -0.00  -0.00    -0.00  -0.00   0.00     0.00  -0.00  -0.00
  20   8    -0.00   0.00   0.00     0.00  -0.00  -0.00    -0.00   0.00  -0.00
  21   1     0.54   0.06   0.01     0.02   0.00   0.00     0.66   0.07   0.02
  22   1    -0.22  -0.51   0.02     0.01   0.03  -0.00     0.24   0.56  -0.02
  23   1     0.26  -0.35   0.02    -0.01   0.01  -0.00    -0.14   0.18  -0.01
  24   1     0.20  -0.29   0.02    -0.00   0.01  -0.00     0.13  -0.19   0.01
  25   1    -0.00   0.00  -0.00    -0.47   0.59  -0.04     0.02  -0.02   0.00
  26   1     0.01   0.02  -0.00     0.21   0.53  -0.02    -0.01  -0.01   0.00
  27   1    -0.00  -0.00  -0.00    -0.17  -0.02  -0.00     0.01   0.00   0.00
  28   1     0.00   0.00   0.00    -0.00  -0.00   0.00     0.00   0.00   0.00
  29   1     0.00   0.00   0.00    -0.00  -0.00  -0.00    -0.00  -0.00  -0.00
  30   1     0.00   0.00  -0.00    -0.00  -0.00   0.00    -0.00  -0.00   0.00
  31   1    -0.00  -0.00   0.00     0.00   0.00  -0.00     0.00  -0.00   0.00
  32   1     0.00   0.00   0.00     0.00  -0.00  -0.00    -0.00   0.00   0.00
  33   1     0.00  -0.00  -0.00    -0.00   0.00   0.00     0.00  -0.00  -0.00
                     91                     92                     93
                        a                      a                      a 
 Frequencies --  3125.5899              3262.7995              3493.9692
 Red. masses --     1.8492                 1.8569                 1.8746
 Frc consts  --     0.0000                 0.0000                 0.0000
 IR Inten    --    27.6659               161.4496                64.7351
 Raman Activ --     0.0000                 0.0000                 0.0000
 Depolar     --     0.0000                 0.0000                 0.0000
 Atom AN      X      Y      Z        X      Y      Z        X      Y      Z
   1   6     0.00   0.00   0.00    -0.00  -0.00  -0.00    -0.00   0.00  -0.00
   2   6     0.00   0.00  -0.00    -0.00  -0.00  -0.00    -0.00  -0.00  -0.00
   3   6    -0.00   0.00  -0.00     0.00   0.00  -0.00    -0.00   0.00  -0.00
   4   6    -0.00  -0.00   0.00    -0.00   0.00  -0.00     0.00  -0.00  -0.00
   5   6    -0.00  -0.00   0.00    -0.00  -0.00   0.00     0.00  -0.00   0.00
   6   6     0.00  -0.00   0.00    -0.00   0.00  -0.00     0.00  -0.00   0.00
   7   6     0.00  -0.00   0.00    -0.00   0.00  -0.00    -0.00   0.00  -0.00
   8   8    -0.00   0.00  -0.00     0.00  -0.00   0.00     0.00  -0.00   0.00
   9   6     0.00  -0.00   0.00     0.00  -0.00   0.00     0.00  -0.00   0.00
  10   6     0.01  -0.01   0.00     0.00   0.00   0.00    -0.00   0.00   0.00
  11   6    -0.02  -0.06   0.00    -0.00   0.00  -0.00    -0.00   0.00   0.00
  12   6    -0.27  -0.04  -0.00     0.00  -0.01   0.00     0.00   0.00  -0.00
  13   6    -0.01   0.01  -0.00    -0.01   0.01  -0.00    -0.00  -0.00  -0.00
  14   6     0.00  -0.00   0.00     0.01   0.01  -0.00    -0.00  -0.00   0.00
  15   6    -0.00   0.00  -0.00     0.00  -0.02   0.00    -0.00   0.00  -0.00
  16   8     0.00  -0.00   0.00    -0.01   0.01  -0.00     0.00  -0.00   0.00
  17   7     0.00   0.00   0.00     0.10   0.23   0.00    -0.00  -0.00   0.00
  18   6    -0.00  -0.00  -0.00     0.00   0.00   0.00    -0.00  -0.00   0.00
  19   6     0.00   0.00  -0.00     0.00   0.00  -0.00     0.00   0.00  -0.01
  20   8    -0.00  -0.00  -0.00     0.00  -0.00  -0.00     0.09   0.07  -0.21
  21   1    -0.00  -0.00  -0.00     0.00   0.00   0.00     0.00  -0.00  -0.00
  22   1    -0.00  -0.00   0.00     0.00   0.00  -0.00     0.00   0.00  -0.00
  23   1     0.00  -0.00   0.00     0.00  -0.00   0.00     0.00  -0.00  -0.00
  24   1    -0.00   0.00  -0.00     0.00  -0.00   0.00     0.00  -0.00   0.00
  25   1    -0.04   0.04  -0.00     0.00  -0.00   0.00     0.00  -0.00   0.00
  26   1     0.07   0.18  -0.01    -0.00  -0.01   0.00     0.00  -0.00   0.00
  27   1     0.93   0.13   0.01    -0.01  -0.00  -0.00    -0.00  -0.00  -0.00
  28   1    -0.00  -0.01   0.00    -0.37  -0.89  -0.00     0.00   0.00  -0.00
  29   1     0.00   0.01   0.00    -0.01  -0.01  -0.02     0.00   0.00   0.00
  30   1     0.00   0.00  -0.00    -0.01  -0.00   0.01     0.00  -0.00   0.00
  31   1    -0.00  -0.00   0.00    -0.00  -0.00   0.00    -0.01  -0.01   0.01
  32   1     0.00   0.00  -0.00    -0.00   0.00   0.00     0.00  -0.00   0.00
  33   1     0.00  -0.00   0.00    -0.00  -0.00   0.00    -0.36  -0.26   0.86
