 Entering Gaussian System
 *********************************************
 Gaussian 98:
 frequency output generated by the xtb code
 *********************************************
                         Standard orientation:
 --------------------------------------------------------------------
  Center     Atomic     Atomic              Coordinates (Angstroms)
  Number     Number      Type              X           Y           Z
 --------------------------------------------------------------------
    1          6             0       -3.821375    0.506905    1.785904
    2          6             0       -3.329529    0.426764    0.339818
    3          1             0       -3.625813    1.318967   -0.216205
    4          6             0       -1.825241    0.282426    0.275195
    5          6             0       -1.190926   -0.831629    0.813625
    6          6             0        0.183527   -0.952939    0.766178
    7          6             0        0.983423    0.032041    0.186940
    8          6             0        0.320830    1.130218   -0.350313
    9          6             0       -1.052381    1.267733   -0.322342
   10          9             0        1.035994    2.117826   -0.966006
   11          6             0        2.447942   -0.105950    0.149107
   12          6             0        3.022831   -1.324141   -0.206613
   13          6             0        4.397351   -1.467382   -0.237851
   14          6             0        5.216270   -0.399638    0.091508
   15          6             0        4.652929    0.813522    0.449968
   16          6             0        3.278230    0.962394    0.477431
   17          6             0       -3.917622   -0.776903   -0.371154
   18          8             0       -4.120881   -1.855079    0.139904
   19          8             0       -4.156751   -0.528373   -1.647211
   20          1             0       -3.290089    1.294165    2.312353
   21          1             0       -4.886593    0.720870    1.807234
   22          1             0       -3.650385   -0.438624    2.292713
   23          1             0       -1.782455   -1.614722    1.262265
   24          1             0        0.660552   -1.817748    1.199772
   25          1             0       -1.500126    2.142140   -0.767240
   26          1             0        2.386273   -2.152882   -0.478268
   27          1             0        4.831357   -2.414337   -0.521296
   28          1             0        6.289432   -0.512227    0.067931
   29          1             0        5.285689    1.648700    0.709841
   30          1             0        2.846358    1.908893    0.766623
   31          1             0       -4.502351   -1.304849   -2.130202
 --------------------------------------------------------------------
     1 basis functions        1 primitive gaussians
     1 alpha electrons        1 beta electrons
 
 Harmonic frequencies (cm**-1), IR intensities (km*mol⁻¹),
 Raman scattering activities (A**4/amu), Raman depolarization ratios,
 reduced masses (AMU), force constants (mDyne/A) and normal coordinates:
                      1                      2                      3
                        a                      a                      a 
 Frequencies --    23.9113                32.1859                44.0990
 Red. masses --    12.4509                13.7811                13.3967
 Frc consts  --     0.0000                 0.0000                 0.0000
 IR Inten    --     1.8024                 3.6499                 3.8607
 Raman Activ --     0.0000                 0.0000                 0.0000
 Depolar     --     0.0000                 0.0000                 0.0000
 Atom AN      X      Y      Z        X      Y      Z        X      Y      Z
   1   6     0.08   0.28  -0.13     0.15  -0.01   0.04     0.16  -0.11   0.20
   2   6     0.01   0.02  -0.14     0.04  -0.00  -0.01     0.02   0.01   0.15
   3   1     0.00  -0.02  -0.08     0.01   0.01   0.01     0.01   0.02   0.07
   4   6     0.01  -0.00  -0.15     0.03  -0.06  -0.09     0.01  -0.06  -0.01
   5   6    -0.02  -0.06  -0.24     0.03  -0.07  -0.12     0.01  -0.10  -0.09
   6   6    -0.02  -0.07  -0.21     0.03  -0.07  -0.12     0.01  -0.11  -0.15
   7   6     0.01  -0.01  -0.07     0.03  -0.05  -0.09    -0.00  -0.10  -0.15
   8   6     0.03   0.06   0.04     0.03  -0.06  -0.10    -0.02  -0.10  -0.14
   9   6     0.03   0.06  -0.00     0.03  -0.06  -0.09    -0.01  -0.08  -0.06
  10   9     0.08   0.17   0.24     0.03  -0.07  -0.13    -0.04  -0.14  -0.22
  11   6     0.01  -0.01  -0.03     0.04  -0.01  -0.02     0.00  -0.03  -0.08
  12   6     0.02   0.05  -0.19     0.10   0.00   0.03     0.11   0.01  -0.05
  13   6     0.02   0.05  -0.15     0.11   0.05   0.13     0.12   0.10   0.08
  14   6     0.01  -0.01   0.06     0.05   0.07   0.19     0.03   0.14   0.18
  15   6    -0.00  -0.06   0.22    -0.02   0.06   0.14    -0.08   0.10   0.15
  16   6    -0.00  -0.06   0.18    -0.02   0.01   0.04    -0.09   0.01   0.02
  17   6    -0.06  -0.09   0.10    -0.10   0.04   0.03    -0.09   0.11   0.07
  18   8    -0.15   0.03   0.37     0.21  -0.06  -0.06    -0.52   0.20   0.08
  19   8    -0.07  -0.38   0.06    -0.71   0.24   0.18     0.33   0.12  -0.00
  20   1     0.02   0.12  -0.09     0.07  -0.01   0.00     0.08  -0.06   0.07
  21   1     0.02   0.07  -0.03     0.05   0.02   0.03     0.05  -0.01   0.09
  22   1     0.05   0.11   0.01     0.04  -0.01   0.00     0.04  -0.05   0.03
  23   1    -0.01  -0.03  -0.10     0.01  -0.02  -0.04     0.01  -0.03  -0.02
  24   1    -0.01  -0.04  -0.09     0.01  -0.02  -0.04     0.01  -0.04  -0.06
  25   1     0.02   0.03   0.02     0.01  -0.01  -0.02    -0.01  -0.02  -0.01
  26   1     0.01   0.03  -0.10     0.04  -0.01  -0.00     0.05  -0.01  -0.04
  27   1     0.01   0.03  -0.08     0.05   0.02   0.05     0.06   0.04   0.03
  28   1     0.00  -0.00   0.03     0.02   0.03   0.08     0.01   0.06   0.08
  29   1    -0.00  -0.03   0.11    -0.02   0.02   0.05    -0.04   0.04   0.07
  30   1    -0.00  -0.03   0.09    -0.02   0.00   0.00    -0.05  -0.01   0.00
  31   1    -0.03  -0.12   0.06    -0.21   0.07   0.05     0.07   0.05  -0.02
                      4                      5                      6
                        a                      a                      a 
 Frequencies --    61.3958                72.2009               108.6499
 Red. masses --    11.5887                12.1339                11.9254
 Frc consts  --     0.0000                 0.0000                 0.0000
 IR Inten    --     0.7703                 0.2923                 0.4519
 Raman Activ --     0.0000                 0.0000                 0.0000
 Depolar     --     0.0000                 0.0000                 0.0000
 Atom AN      X      Y      Z        X      Y      Z        X      Y      Z
   1   6     0.09  -0.07   0.03    -0.02   0.14  -0.13    -0.14   0.21   0.02
   2   6     0.00  -0.04  -0.00     0.02   0.00  -0.11    -0.03   0.15   0.06
   3   1    -0.01  -0.01   0.01     0.04   0.00  -0.05    -0.00   0.03  -0.00
   4   6    -0.00  -0.02  -0.07     0.02  -0.10  -0.03    -0.04   0.08   0.10
   5   6     0.02  -0.09  -0.22    -0.03  -0.11   0.01    -0.12  -0.05  -0.09
   6   6     0.02  -0.04  -0.23    -0.03  -0.13   0.13    -0.14  -0.20  -0.20
   7   6     0.02   0.04  -0.09     0.03  -0.13   0.20    -0.08  -0.20  -0.12
   8   6    -0.01   0.11   0.07     0.08  -0.13   0.14    -0.01  -0.08   0.03
   9   6    -0.01   0.07   0.09     0.08  -0.11   0.03     0.01   0.07   0.15
  10   9    -0.07   0.30   0.27     0.16  -0.18   0.23     0.05  -0.13   0.07
  11   6     0.02   0.03  -0.06     0.04  -0.07   0.19    -0.08  -0.17  -0.09
  12   6    -0.00  -0.09   0.28     0.11  -0.03   0.18     0.07  -0.12   0.01
  13   6    -0.01  -0.15   0.37     0.13   0.12  -0.07     0.09   0.05   0.07
  14   6     0.03  -0.09   0.08     0.07   0.24  -0.32    -0.05   0.17   0.02
  15   6     0.06   0.03  -0.29    -0.00   0.19  -0.24    -0.20   0.12  -0.06
  16   6     0.06   0.08  -0.34    -0.02   0.03   0.02    -0.22  -0.06  -0.10
  17   6    -0.05  -0.02   0.01    -0.13   0.05  -0.06     0.17   0.07   0.05
  18   8    -0.15  -0.00   0.03    -0.32   0.11  -0.03     0.47   0.01   0.02
  19   8    -0.01  -0.04   0.00    -0.16   0.05  -0.07     0.20   0.04   0.04
  20   1     0.03  -0.02   0.00     0.01   0.04  -0.05    -0.08   0.09  -0.01
  21   1     0.02  -0.03   0.03     0.00   0.07  -0.05    -0.05   0.03  -0.02
  22   1     0.05  -0.02   0.00    -0.03   0.04  -0.02    -0.02   0.08   0.03
  23   1     0.01  -0.05  -0.09    -0.02  -0.03  -0.01    -0.05  -0.01  -0.04
  24   1     0.01  -0.03  -0.09    -0.02  -0.04   0.05    -0.06  -0.09  -0.10
  25   1    -0.01   0.04   0.06     0.04  -0.03  -0.00     0.02   0.05   0.08
  26   1    -0.00  -0.04   0.13     0.05  -0.04   0.10     0.05  -0.06   0.01
  27   1    -0.01  -0.07   0.19     0.05   0.05  -0.03     0.06   0.02   0.04
  28   1     0.01  -0.04   0.04     0.02   0.11  -0.16    -0.01   0.09   0.01
  29   1     0.02   0.02  -0.15    -0.02   0.08  -0.12    -0.09   0.06  -0.03
  30   1     0.03   0.05  -0.17    -0.02  -0.00   0.02    -0.10  -0.03  -0.04
  31   1    -0.01  -0.01   0.00    -0.08   0.02  -0.01     0.11  -0.01   0.00
                      7                      8                      9
                        a                      a                      a 
 Frequencies --   149.2292               167.5065               196.9664
 Red. masses --     9.9892                 2.2599                11.3684
 Frc consts  --     0.0000                 0.0000                 0.0000
 IR Inten    --     0.1232                 0.3792                 3.5596
 Raman Activ --     0.0000                 0.0000                 0.0000
 Depolar     --     0.0000                 0.0000                 0.0000
 Atom AN      X      Y      Z        X      Y      Z        X      Y      Z
   1   6    -0.41   0.13  -0.16    -0.07   0.07  -0.05    -0.25  -0.44  -0.05
   2   6     0.01  -0.05  -0.00     0.00   0.02  -0.03    -0.04   0.06  -0.02
   3   1     0.05  -0.02  -0.04     0.03   0.01  -0.02    -0.05   0.03   0.03
   4   6     0.03  -0.05   0.24    -0.00  -0.04   0.03    -0.00   0.26   0.03
   5   6     0.12  -0.01   0.21     0.02   0.00   0.10    -0.06   0.17  -0.10
   6   6     0.13  -0.00   0.03     0.02  -0.00   0.03    -0.07   0.05  -0.08
   7   6     0.09  -0.04  -0.10     0.01  -0.03  -0.05     0.02   0.01  -0.01
   8   6     0.00  -0.01   0.05    -0.01  -0.01   0.01     0.09   0.08   0.04
   9   6     0.00  -0.03   0.22    -0.01  -0.05   0.01     0.10   0.28   0.15
  10   9    -0.16   0.04  -0.02    -0.07   0.07   0.10     0.31  -0.15  -0.16
  11   6     0.10  -0.02  -0.23     0.01  -0.02  -0.10     0.02  -0.05   0.01
  12   6     0.17  -0.00  -0.20     0.04  -0.01  -0.09     0.06  -0.04   0.04
  13   6     0.18  -0.00   0.01     0.05   0.00   0.00     0.07   0.00   0.01
  14   6     0.14  -0.03   0.18     0.02   0.00   0.07     0.04   0.03  -0.04
  15   6     0.08  -0.01   0.04    -0.01   0.01   0.00     0.01   0.01  -0.00
  16   6     0.07  -0.01  -0.18    -0.01  -0.01  -0.09     0.01  -0.04   0.03
  17   6    -0.05  -0.02  -0.02    -0.00   0.01  -0.01    -0.02   0.02  -0.01
  18   8    -0.22   0.01  -0.03     0.04   0.03   0.04    -0.07   0.13   0.21
  19   8    -0.11   0.05  -0.00    -0.01  -0.06  -0.02    -0.15  -0.20  -0.01
  20   1    -0.26   0.14  -0.06     0.35  -0.34   0.15    -0.09  -0.20   0.11
  21   1    -0.15  -0.09  -0.15     0.09   0.55  -0.02    -0.07  -0.12  -0.04
  22   1    -0.05   0.10   0.04    -0.51  -0.16  -0.17    -0.11  -0.19  -0.12
  23   1     0.05  -0.01   0.08     0.01   0.01   0.06    -0.03   0.04  -0.06
  24   1     0.05  -0.00  -0.01     0.01   0.00   0.01    -0.05  -0.01  -0.04
  25   1    -0.01  -0.00   0.08    -0.01  -0.02   0.00     0.05   0.10   0.06
  26   1     0.06  -0.00  -0.08     0.02  -0.01  -0.03     0.02  -0.02   0.02
  27   1     0.06  -0.00   0.02     0.02   0.00   0.01     0.03   0.00   0.00
  28   1     0.04  -0.01   0.12     0.01  -0.00   0.05     0.01   0.02  -0.02
  29   1     0.01  -0.00   0.04    -0.01   0.00   0.01    -0.00   0.01  -0.00
  30   1     0.01  -0.00  -0.07    -0.01  -0.00  -0.03    -0.00  -0.02   0.02
  31   1    -0.07   0.03  -0.00     0.00  -0.02   0.00    -0.07  -0.07   0.04
                     10                     11                     12
                        a                      a                      a 
 Frequencies --   208.9820               234.4614               265.4445
 Red. masses --    12.0391                11.8646                11.9067
 Frc consts  --     0.0000                 0.0000                 0.0000
 IR Inten    --     1.2187                 3.2178                 2.6119
 Raman Activ --     0.0000                 0.0000                 0.0000
 Depolar     --     0.0000                 0.0000                 0.0000
 Atom AN      X      Y      Z        X      Y      Z        X      Y      Z
   1   6     0.16  -0.16   0.01     0.28   0.09  -0.04    -0.27  -0.08  -0.04
   2   6     0.02   0.01  -0.05     0.09  -0.09  -0.08     0.05   0.05   0.06
   3   1    -0.02   0.01   0.01     0.03  -0.03  -0.04     0.04   0.03   0.02
   4   6     0.01   0.07  -0.09     0.09  -0.00   0.07     0.04  -0.12  -0.04
   5   6    -0.02   0.24   0.31     0.03  -0.07  -0.01     0.04  -0.16  -0.09
   6   6    -0.04   0.08   0.19     0.04  -0.01   0.16     0.05  -0.14  -0.07
   7   6    -0.04  -0.10  -0.10    -0.04   0.02   0.14    -0.01  -0.01   0.09
   8   6     0.04  -0.04  -0.08     0.04   0.08   0.21    -0.00  -0.11  -0.05
   9   6     0.03  -0.05  -0.27     0.07   0.20   0.36    -0.00  -0.20  -0.25
  10   9     0.23   0.13   0.41     0.23  -0.29  -0.13     0.29  -0.20   0.21
  11   6    -0.06  -0.13  -0.20    -0.08   0.08  -0.11    -0.01   0.24   0.02
  12   6     0.04  -0.09  -0.17    -0.14   0.09  -0.20    -0.16   0.23  -0.12
  13   6     0.06   0.01   0.01    -0.15   0.02  -0.00    -0.19   0.03  -0.01
  14   6    -0.06   0.06   0.13    -0.17  -0.03   0.19    -0.10  -0.09   0.15
  15   6    -0.16   0.05  -0.02    -0.13   0.06  -0.05     0.05   0.04  -0.07
  16   6    -0.17  -0.06  -0.18    -0.11   0.12  -0.20     0.06   0.23  -0.12
  17   6    -0.00  -0.00  -0.03     0.01  -0.08  -0.06     0.04   0.09   0.06
  18   8    -0.04   0.03   0.02    -0.10  -0.10  -0.12     0.09   0.14   0.16
  19   8    -0.05  -0.06  -0.04    -0.04  -0.04  -0.06     0.05   0.08   0.08
  20   1    -0.00  -0.00  -0.01     0.13   0.02  -0.06    -0.14  -0.02   0.05
  21   1     0.03  -0.14   0.04     0.09   0.06   0.04    -0.09  -0.05  -0.10
  22   1     0.15  -0.03  -0.00     0.08   0.03   0.01    -0.10  -0.03  -0.02
  23   1    -0.01   0.13   0.18    -0.01  -0.04  -0.07     0.01  -0.04  -0.03
  24   1    -0.02   0.04   0.09     0.02  -0.00   0.03     0.02  -0.04  -0.03
  25   1     0.02  -0.03  -0.12     0.01   0.07   0.14    -0.01  -0.08  -0.10
  26   1     0.03  -0.04  -0.06    -0.05   0.04  -0.08    -0.08   0.10  -0.06
  27   1     0.05   0.01   0.03    -0.04   0.00   0.01    -0.09  -0.00  -0.00
  28   1    -0.01   0.03   0.09    -0.05  -0.03   0.13    -0.03  -0.08   0.10
  29   1    -0.07   0.03   0.01    -0.03   0.01  -0.01     0.05  -0.01  -0.04
  30   1    -0.08  -0.03  -0.06    -0.04   0.04  -0.08     0.05   0.09  -0.05
  31   1    -0.03  -0.02   0.00    -0.04   0.00  -0.01     0.01   0.02   0.02
                     13                     14                     15
                        a                      a                      a 
 Frequencies --   285.1040               286.4236               371.6360
 Red. masses --    11.2049                13.7317                 9.1180
 Frc consts  --     0.0000                 0.0000                 0.0000
 IR Inten    --     0.9655                 6.7491                 0.4150
 Raman Activ --     0.0000                 0.0000                 0.0000
 Depolar     --     0.0000                 0.0000                 0.0000
 Atom AN      X      Y      Z        X      Y      Z        X      Y      Z
   1   6     0.08   0.03   0.14     0.16  -0.19  -0.12    -0.04  -0.02  -0.03
   2   6    -0.27   0.10   0.01     0.10   0.16  -0.15     0.03  -0.02  -0.00
   3   1    -0.10   0.03   0.03     0.08   0.09   0.00    -0.00  -0.01  -0.01
   4   6    -0.25   0.08  -0.11     0.05  -0.15   0.02     0.02  -0.01  -0.08
   5   6    -0.23   0.08  -0.11     0.02  -0.16   0.04    -0.01  -0.04  -0.11
   6   6    -0.20   0.04   0.10     0.04  -0.05   0.13    -0.01   0.04   0.09
   7   6    -0.02  -0.03   0.18     0.01  -0.03   0.10     0.01   0.01   0.06
   8   6    -0.10  -0.10   0.13    -0.02  -0.05   0.09     0.04   0.01   0.00
   9   6    -0.11   0.02  -0.01     0.01  -0.11   0.13     0.04   0.01  -0.02
  10   9    -0.10  -0.23   0.09    -0.40   0.08  -0.07     0.00   0.05  -0.01
  11   6     0.08   0.05   0.01    -0.01  -0.03   0.01    -0.01  -0.05   0.02
  12   6     0.18   0.12  -0.15    -0.02  -0.02  -0.04    -0.00  -0.15   0.36
  13   6     0.19   0.05  -0.07    -0.01   0.00  -0.03     0.01   0.12  -0.40
  14   6     0.27  -0.08   0.16    -0.04  -0.01   0.05    -0.02   0.01   0.04
  15   6     0.24  -0.03  -0.05    -0.04   0.00   0.00    -0.04  -0.10   0.36
  16   6     0.22   0.03  -0.18    -0.04   0.00  -0.04    -0.03   0.10  -0.43
  17   6    -0.12   0.04  -0.02     0.05   0.25  -0.13     0.02  -0.03   0.05
  18   8     0.09  -0.01  -0.05     0.22   0.45   0.24    -0.01  -0.04   0.03
  19   8     0.00  -0.08  -0.08    -0.08  -0.13  -0.21     0.04   0.08   0.08
  20   1     0.06   0.01   0.00    -0.00  -0.04  -0.00    -0.02  -0.01   0.01
  21   1     0.02   0.00   0.13     0.03  -0.14   0.00    -0.01  -0.00  -0.03
  22   1     0.07   0.01   0.02     0.13  -0.07  -0.10    -0.03  -0.01  -0.01
  23   1    -0.07   0.01  -0.06     0.01  -0.06  -0.01    -0.01  -0.02  -0.05
  24   1    -0.10  -0.01   0.04     0.03  -0.00   0.04    -0.01   0.02   0.05
  25   1     0.01   0.02  -0.02    -0.00  -0.03   0.05     0.02   0.01   0.00
  26   1     0.06   0.03  -0.06    -0.00  -0.00  -0.02     0.00  -0.09   0.23
  27   1     0.04   0.01  -0.03     0.00   0.01  -0.02     0.01   0.08  -0.25
  28   1     0.08  -0.05   0.11    -0.01  -0.00   0.03    -0.01   0.00   0.03
  29   1     0.06  -0.00  -0.01    -0.01   0.00   0.00    -0.02  -0.06   0.23
  30   1     0.09   0.03  -0.08    -0.02  -0.00  -0.02    -0.01   0.07  -0.26
  31   1     0.08  -0.05  -0.02    -0.02  -0.08   0.03     0.00   0.04  -0.00
                     16                     17                     18
                        a                      a                      a 
 Frequencies --   378.7509               417.8666               443.9200
 Red. masses --    11.2751                10.3301                12.0604
 Frc consts  --     0.0000                 0.0000                 0.0000
 IR Inten    --     1.2194                 0.5660                16.4838
 Raman Activ --     0.0000                 0.0000                 0.0000
 Depolar     --     0.0000                 0.0000                 0.0000
 Atom AN      X      Y      Z        X      Y      Z        X      Y      Z
   1   6     0.12   0.05   0.09    -0.07   0.03   0.07    -0.14   0.11   0.33
   2   6    -0.05   0.03   0.02    -0.10   0.01   0.05    -0.13   0.05   0.24
   3   1     0.01   0.03   0.02    -0.00   0.02   0.03    -0.01   0.05   0.11
   4   6    -0.02   0.05   0.26    -0.08  -0.21  -0.14    -0.02  -0.09   0.09
   5   6     0.06   0.10   0.31     0.05  -0.17  -0.20     0.06  -0.12  -0.05
   6   6     0.02  -0.16  -0.30     0.12   0.24   0.32     0.09   0.08  -0.03
   7   6    -0.03  -0.09  -0.25    -0.03   0.01  -0.24     0.10   0.15   0.13
   8   6    -0.10  -0.06  -0.05    -0.13  -0.08  -0.26     0.16   0.15   0.02
   9   6    -0.08  -0.01   0.08    -0.12   0.06   0.19     0.08  -0.17  -0.06
  10   9     0.10  -0.18   0.10     0.20  -0.09   0.14     0.22   0.20  -0.14
  11   6     0.01   0.20  -0.08    -0.00   0.08  -0.27     0.03  -0.14   0.11
  12   6    -0.05   0.10   0.24     0.01  -0.00   0.04    -0.01  -0.13  -0.04
  13   6    -0.08   0.03  -0.04     0.01  -0.03   0.12    -0.00  -0.01  -0.07
  14   6     0.01  -0.01  -0.14     0.02   0.05  -0.18    -0.09   0.01   0.10
  15   6     0.09  -0.07   0.18     0.01  -0.04   0.11    -0.08   0.06  -0.05
  16   6     0.09   0.15  -0.02     0.01  -0.02   0.05    -0.07  -0.04  -0.04
  17   6    -0.04   0.06  -0.14    -0.10   0.08  -0.01    -0.15   0.14  -0.08
  18   8     0.01   0.09  -0.10     0.09   0.08   0.03     0.04   0.06  -0.20
  19   8    -0.12  -0.22  -0.23    -0.00  -0.02  -0.06    -0.13  -0.30  -0.23
  20   1     0.07   0.02  -0.02    -0.02   0.02   0.01    -0.03   0.05   0.06
  21   1     0.04   0.02   0.09    -0.02   0.00   0.02    -0.04   0.04   0.10
  22   1     0.07   0.02   0.03    -0.01   0.01   0.03    -0.04   0.05   0.13
  23   1     0.03   0.05   0.16     0.04  -0.07  -0.06     0.05  -0.07  -0.04
  24   1     0.01  -0.08  -0.14     0.07   0.17   0.24     0.05   0.02  -0.04
  25   1    -0.04  -0.01   0.02    -0.05   0.08   0.20    -0.00  -0.08  -0.06
  26   1    -0.03   0.02   0.13     0.00  -0.02   0.06     0.00  -0.03  -0.04
  27   1    -0.05   0.00  -0.03     0.00  -0.03   0.10     0.03   0.02  -0.05
  28   1     0.00  -0.01  -0.09     0.01   0.03  -0.10    -0.02   0.01   0.05
  29   1     0.05  -0.05   0.11    -0.00  -0.03   0.09    -0.03   0.03  -0.04
  30   1     0.06   0.06  -0.02     0.00  -0.02   0.07    -0.05  -0.02  -0.04
  31   1    -0.02  -0.11   0.02     0.08  -0.04  -0.02     0.08  -0.18   0.04
                     19                     20                     21
                        a                      a                      a 
 Frequencies --   473.1019               498.5740               535.4230
 Red. masses --    10.8484                12.3662                10.3879
 Frc consts  --     0.0000                 0.0000                 0.0000
 IR Inten    --     1.5641                16.6330                18.7575
 Raman Activ --     0.0000                 0.0000                 0.0000
 Depolar     --     0.0000                 0.0000                 0.0000
 Atom AN      X      Y      Z        X      Y      Z        X      Y      Z
   1   6     0.01  -0.02  -0.06    -0.07   0.03   0.10     0.02  -0.05  -0.11
   2   6    -0.04  -0.03  -0.05    -0.03   0.05   0.07    -0.28   0.06  -0.16
   3   1     0.01  -0.00  -0.02    -0.03   0.01   0.03    -0.07   0.01  -0.06
   4   6    -0.05  -0.13  -0.03     0.02   0.20  -0.12    -0.18  -0.16  -0.13
   5   6     0.05  -0.03   0.07     0.23   0.25  -0.22    -0.07   0.05   0.17
   6   6     0.05   0.04  -0.11     0.22  -0.02   0.04    -0.04   0.04  -0.12
   7   6    -0.04   0.25   0.17     0.26  -0.08   0.10     0.18  -0.10  -0.12
   8   6    -0.12   0.35   0.45     0.06  -0.19   0.21     0.23  -0.00   0.10
   9   6    -0.18  -0.09  -0.16     0.11   0.06  -0.12     0.18  -0.19   0.21
  10   9     0.13  -0.17  -0.06    -0.34  -0.22   0.13     0.09   0.11  -0.12
  11   6    -0.06  -0.01  -0.32     0.19   0.04  -0.19     0.16   0.04   0.00
  12   6     0.03  -0.08  -0.01    -0.05  -0.10  -0.05    -0.02  -0.03  -0.01
  13   6     0.06  -0.01   0.13    -0.08  -0.13   0.06    -0.06  -0.09  -0.02
  14   6     0.08   0.08  -0.17    -0.23   0.06  -0.12    -0.17   0.00  -0.01
  15   6    -0.02  -0.06   0.13    -0.06   0.08   0.12    -0.01   0.08   0.03
  16   6    -0.02  -0.13  -0.06    -0.03   0.13   0.02     0.02   0.16   0.04
  17   6    -0.05   0.01   0.01    -0.02   0.03   0.02    -0.31  -0.03   0.08
  18   8     0.06   0.04   0.11    -0.03  -0.03  -0.10     0.08  -0.09   0.14
  19   8     0.04   0.10   0.01    -0.03  -0.08  -0.01     0.04   0.17   0.07
  20   1     0.01  -0.00  -0.02    -0.03   0.01   0.04     0.03  -0.03  -0.03
  21   1     0.00  -0.01  -0.01    -0.02   0.01   0.01     0.00  -0.04   0.06
  22   1     0.01  -0.01  -0.02    -0.03   0.01   0.03     0.06  -0.04  -0.09
  23   1     0.04  -0.04  -0.00     0.05   0.07  -0.08     0.03   0.01   0.12
  24   1     0.04  -0.04  -0.15    -0.01  -0.04   0.02    -0.03   0.01  -0.02
  25   1    -0.11  -0.12  -0.18     0.13   0.04  -0.09     0.08  -0.03   0.07
  26   1     0.04  -0.07   0.05    -0.05  -0.01   0.04    -0.05   0.02   0.00
  27   1     0.03  -0.02   0.12     0.01  -0.04   0.08     0.00  -0.02  -0.00
  28   1     0.02   0.04  -0.07    -0.07   0.02  -0.04    -0.05  -0.00  -0.01
  29   1    -0.03  -0.02   0.13     0.02  -0.02   0.09     0.04  -0.01   0.00
  30   1    -0.01  -0.06   0.04    -0.05   0.00   0.04    -0.02   0.04   0.01
  31   1     0.05   0.04  -0.04     0.02  -0.05   0.03     0.32   0.02  -0.16
                     22                     23                     24
                        a                      a                      a 
 Frequencies --   545.6862               585.7364               602.5893
 Red. masses --    11.1856                11.1614                 9.0177
 Frc consts  --     0.0000                 0.0000                 0.0000
 IR Inten    --    17.6162                 1.7990                67.4365
 Raman Activ --     0.0000                 0.0000                 0.0000
 Depolar     --     0.0000                 0.0000                 0.0000
 Atom AN      X      Y      Z        X      Y      Z        X      Y      Z
   1   6    -0.01   0.01   0.05     0.03  -0.01  -0.04    -0.03  -0.01   0.01
   2   6     0.08   0.06   0.05    -0.04   0.02  -0.04     0.16   0.06   0.06
   3   1     0.01   0.01   0.02    -0.01  -0.00  -0.03     0.06   0.03   0.04
   4   6     0.06   0.05   0.05    -0.04   0.05   0.14     0.15  -0.11  -0.36
   5   6    -0.29  -0.15   0.01    -0.03  -0.01  -0.01     0.08   0.04   0.10
   6   6    -0.27  -0.11   0.14    -0.03   0.05  -0.05     0.04  -0.22   0.05
   7   6    -0.07  -0.14   0.14     0.05   0.06   0.07    -0.14  -0.14  -0.11
   8   6     0.25  -0.03  -0.00     0.01  -0.10  -0.15     0.00   0.10   0.16
   9   6     0.25  -0.14  -0.02     0.01  -0.06   0.04     0.03   0.18  -0.03
  10   9     0.01   0.27  -0.14     0.00  -0.01   0.05    -0.07   0.00  -0.06
  11   6    -0.04   0.15  -0.27     0.03  -0.16  -0.07    -0.15  -0.01   0.01
  12   6    -0.00   0.15  -0.10    -0.33  -0.27  -0.10    -0.12   0.04   0.04
  13   6    -0.02  -0.02   0.20    -0.29   0.30   0.11    -0.10   0.20   0.03
  14   6     0.05   0.05  -0.24    -0.03   0.19   0.03     0.14   0.02   0.04
  15   6     0.03  -0.08   0.18     0.35   0.29   0.11     0.11   0.00  -0.03
  16   6     0.03   0.08  -0.10     0.28  -0.27  -0.09     0.07  -0.16  -0.01
  17   6     0.09   0.01   0.03     0.02  -0.04  -0.01    -0.12   0.15   0.14
  18   8    -0.06  -0.04  -0.13    -0.00  -0.01   0.03    -0.03  -0.02  -0.20
  19   8    -0.01  -0.09   0.04     0.02   0.02   0.00    -0.10  -0.09   0.13
  20   1    -0.02  -0.00   0.04     0.03  -0.01  -0.02    -0.08   0.00   0.07
  21   1    -0.01  -0.00  -0.01     0.01  -0.00   0.03    -0.02  -0.03  -0.10
  22   1    -0.01  -0.00   0.01     0.03  -0.01  -0.03    -0.05  -0.01   0.00
  23   1    -0.13  -0.03  -0.04     0.01  -0.03  -0.03    -0.03   0.10   0.11
  24   1    -0.10  -0.05   0.03    -0.01   0.00  -0.03     0.02  -0.03   0.06
  25   1     0.08  -0.04  -0.03     0.01  -0.02   0.01     0.01   0.08   0.04
  26   1    -0.01   0.02   0.07    -0.05  -0.11  -0.03     0.00  -0.01  -0.01
  27   1    -0.03  -0.06   0.18    -0.01   0.11   0.05    -0.05   0.05  -0.01
  28   1     0.01   0.00  -0.07    -0.02  -0.09  -0.03     0.03  -0.04  -0.01
  29   1     0.01  -0.06   0.18     0.06   0.11   0.05    -0.01   0.03  -0.02
  30   1     0.03   0.01   0.06     0.01  -0.11  -0.02     0.04  -0.03  -0.01
  31   1    -0.08  -0.03   0.08    -0.05   0.04  -0.01     0.42  -0.21   0.02
                     25                     26                     27
                        a                      a                      a 
 Frequencies --   613.8241               634.2260               666.6183
 Red. masses --     8.1899                10.3182                10.0203
 Frc consts  --     0.0000                 0.0000                 0.0000
 IR Inten    --    88.2401                68.0861                 8.7882
 Raman Activ --     0.0000                 0.0000                 0.0000
 Depolar     --     0.0000                 0.0000                 0.0000
 Atom AN      X      Y      Z        X      Y      Z        X      Y      Z
   1   6     0.09  -0.02  -0.20     0.05  -0.00  -0.13     0.00   0.00   0.01
   2   6     0.02   0.17  -0.11     0.02   0.33  -0.07     0.01  -0.04   0.01
   3   1     0.03   0.02  -0.08     0.03   0.07  -0.06    -0.01  -0.02  -0.00
   4   6     0.05   0.19   0.41    -0.08  -0.11  -0.03     0.02   0.11   0.17
   5   6     0.05  -0.07  -0.07    -0.07  -0.06   0.02    -0.07  -0.07  -0.10
   6   6     0.07   0.02   0.02    -0.04   0.20  -0.06    -0.05   0.04   0.13
   7   6    -0.01   0.15   0.20     0.05   0.04  -0.16    -0.01  -0.11  -0.15
   8   6    -0.08  -0.11  -0.27    -0.03   0.08   0.11     0.06   0.05   0.15
   9   6    -0.05  -0.01  -0.04    -0.04  -0.13   0.04     0.05  -0.08  -0.09
  10   9     0.01   0.00   0.09     0.01  -0.11   0.04    -0.01   0.01  -0.02
  11   6    -0.03   0.00  -0.01     0.07   0.00  -0.03     0.01   0.14  -0.41
  12   6     0.06   0.02  -0.02     0.01  -0.06   0.05    -0.02  -0.05   0.27
  13   6     0.07  -0.05   0.02     0.01  -0.04  -0.08    -0.03   0.11  -0.31
  14   6     0.02  -0.01  -0.04    -0.07  -0.01   0.07    -0.01  -0.08   0.25
  15   6    -0.09  -0.07   0.01     0.01   0.06  -0.05     0.04   0.11  -0.30
  16   6    -0.07   0.00  -0.03     0.01   0.03   0.08     0.02  -0.05   0.28
  17   6    -0.10   0.05   0.12     0.06   0.18   0.24     0.08  -0.06  -0.05
  18   8    -0.08  -0.09  -0.13    -0.07  -0.07  -0.38    -0.03   0.01   0.06
  19   8    -0.11  -0.01   0.17     0.15  -0.20   0.29    -0.07   0.04  -0.03
  20   1     0.02  -0.05   0.01    -0.03  -0.05   0.08     0.01   0.00  -0.01
  21   1     0.02  -0.05   0.00     0.00  -0.07  -0.01     0.00   0.01   0.01
  22   1     0.08  -0.05  -0.16     0.06  -0.07  -0.17    -0.00   0.01   0.02
  23   1     0.02  -0.09  -0.15     0.04  -0.04   0.04    -0.03  -0.03  -0.07
  24   1     0.03  -0.03  -0.07     0.00   0.07  -0.00    -0.03   0.00   0.03
  25   1    -0.04  -0.04  -0.07    -0.03  -0.04   0.03     0.02  -0.05  -0.07
  26   1     0.02  -0.00   0.00    -0.01  -0.00   0.01    -0.01  -0.06   0.22
  27   1     0.01  -0.02   0.02     0.02   0.00  -0.04    -0.01   0.00   0.00
  28   1     0.01   0.03   0.00    -0.02  -0.00   0.02    -0.00  -0.07   0.20
  29   1    -0.03  -0.02   0.02     0.02   0.01  -0.04     0.02  -0.00   0.00
  30   1    -0.01  -0.00   0.00    -0.01   0.01   0.01     0.00  -0.06   0.22
  31   1     0.50  -0.17  -0.06    -0.30  -0.05   0.31     0.12  -0.02  -0.06
                     28                     29                     30
                        a                      a                      a 
 Frequencies --   681.6835               691.4555               728.3751
 Red. masses --     9.9602                10.2359                11.5006
 Frc consts  --     0.0000                 0.0000                 0.0000
 IR Inten    --    69.3075                31.7468                24.4955
 Raman Activ --     0.0000                 0.0000                 0.0000
 Depolar     --     0.0000                 0.0000                 0.0000
 Atom AN      X      Y      Z        X      Y      Z        X      Y      Z
   1   6    -0.03   0.01  -0.01    -0.01   0.01  -0.03     0.02  -0.01  -0.05
   2   6    -0.15   0.09  -0.06    -0.18   0.11  -0.08     0.03  -0.03  -0.01
   3   1    -0.02   0.03  -0.02    -0.03   0.02  -0.04     0.03   0.01   0.01
   4   6    -0.01  -0.04  -0.13     0.01   0.18   0.27     0.08   0.04   0.07
   5   6     0.18   0.10   0.10     0.16  -0.04  -0.19    -0.03  -0.11   0.04
   6   6     0.15  -0.26  -0.05     0.19  -0.07   0.24     0.00  -0.31   0.21
   7   6    -0.01   0.10   0.36    -0.05  -0.24  -0.31    -0.13  -0.14   0.00
   8   6     0.02  -0.14  -0.23     0.08   0.09   0.23    -0.18   0.10   0.01
   9   6     0.04   0.10   0.10     0.05  -0.08  -0.14    -0.24   0.25  -0.14
  10   9     0.03   0.11  -0.03     0.01   0.06  -0.05     0.12   0.18  -0.11
  11   6    -0.11   0.06  -0.19    -0.14  -0.01   0.12     0.18  -0.01  -0.01
  12   6    -0.01   0.06   0.10    -0.07   0.13   0.02     0.08  -0.18  -0.05
  13   6    -0.00   0.12  -0.09    -0.08   0.15   0.13     0.08  -0.25  -0.07
  14   6     0.12  -0.03   0.05     0.16  -0.01  -0.02    -0.26   0.03   0.01
  15   6    -0.08  -0.07  -0.15    -0.03  -0.13   0.04     0.17   0.24   0.08
  16   6    -0.07  -0.11   0.04    -0.04  -0.09  -0.05     0.14   0.17   0.06
  17   6    -0.34   0.06   0.09    -0.25  -0.01   0.03    -0.26   0.07   0.06
  18   8     0.11  -0.09  -0.01     0.06  -0.09   0.04     0.08  -0.03  -0.01
  19   8     0.19  -0.03  -0.02     0.11   0.00  -0.04     0.08  -0.02  -0.02
  20   1     0.00  -0.02   0.02     0.03  -0.03   0.00    -0.00  -0.00  -0.01
  21   1    -0.01  -0.02   0.05    -0.00  -0.02   0.10     0.00  -0.01  -0.02
  22   1     0.03  -0.02  -0.06     0.06  -0.03  -0.08     0.00  -0.00  -0.01
  23   1     0.04   0.03   0.01     0.04  -0.03  -0.10    -0.09  -0.00  -0.05
  24   1     0.04  -0.09  -0.04     0.06  -0.02   0.07    -0.01  -0.10   0.04
  25   1     0.03   0.04   0.03     0.04  -0.04  -0.10    -0.13   0.03  -0.05
  26   1     0.02  -0.04   0.14     0.01   0.06  -0.12    -0.02  -0.02  -0.01
  27   1    -0.04  -0.01   0.08    -0.07   0.05  -0.08     0.11  -0.03  -0.02
  28   1     0.03  -0.03   0.14     0.04   0.01  -0.13    -0.07   0.00  -0.01
  29   1    -0.06  -0.03   0.08    -0.05   0.03  -0.09     0.13   0.02  -0.01
  30   1    -0.00  -0.06   0.14     0.03   0.02  -0.12    -0.01   0.03  -0.01
  31   1    -0.29   0.11   0.05    -0.17   0.10  -0.02    -0.08   0.03   0.01
                     31                     32                     33
                        a                      a                      a 
 Frequencies --   759.8444               764.2796               834.6310
 Red. masses --     5.5181                10.8311                 5.7094
 Frc consts  --     0.0000                 0.0000                 0.0000
 IR Inten    --    39.2661                29.8733                 9.8572
 Raman Activ --     0.0000                 0.0000                 0.0000
 Depolar     --     0.0000                 0.0000                 0.0000
 Atom AN      X      Y      Z        X      Y      Z        X      Y      Z
   1   6     0.02  -0.01   0.01    -0.08   0.04   0.05     0.01   0.08   0.07
   2   6     0.10  -0.07   0.03    -0.30   0.19  -0.08     0.11   0.26   0.01
   3   1     0.04   0.00   0.03    -0.14  -0.00  -0.08     0.06   0.06  -0.02
   4   6     0.06  -0.01  -0.05    -0.17  -0.06  -0.10     0.10   0.06   0.12
   5   6    -0.09   0.01   0.07     0.13   0.01  -0.00    -0.05  -0.16  -0.13
   6   6    -0.09   0.06  -0.00     0.17  -0.30   0.10    -0.04  -0.07  -0.19
   7   6     0.02   0.09   0.13    -0.02  -0.05   0.13    -0.02   0.11   0.14
   8   6     0.04  -0.07  -0.08    -0.05  -0.02  -0.00    -0.00   0.07   0.06
   9   6     0.09   0.01   0.05    -0.11  -0.00   0.02     0.02  -0.06  -0.21
  10   9    -0.04  -0.04   0.05     0.13   0.18  -0.11    -0.05  -0.07   0.01
  11   6     0.00   0.11  -0.37     0.00   0.04  -0.13    -0.01   0.02  -0.07
  12   6     0.00  -0.05   0.17     0.00  -0.03   0.06     0.02  -0.03  -0.02
  13   6     0.01  -0.03   0.08     0.00  -0.02   0.03     0.03  -0.04  -0.00
  14   6    -0.00  -0.05   0.18    -0.01  -0.02   0.06    -0.02  -0.00   0.03
  15   6    -0.01  -0.03   0.08     0.01   0.00   0.03     0.00   0.01   0.02
  16   6    -0.01  -0.04   0.17     0.00  -0.01   0.05     0.01  -0.01   0.02
  17   6    -0.16   0.04   0.02     0.54  -0.12  -0.08    -0.08  -0.15  -0.05
  18   8     0.05  -0.02   0.01    -0.16   0.06  -0.02    -0.02  -0.17   0.09
  19   8     0.04  -0.01  -0.04    -0.12   0.04   0.11    -0.03   0.00  -0.13
  20   1    -0.02   0.01   0.00     0.05  -0.03  -0.00    -0.06  -0.03   0.16
  21   1     0.00   0.01  -0.07    -0.02  -0.02   0.19    -0.01  -0.06   0.02
  22   1    -0.04   0.01   0.04     0.08  -0.03  -0.09     0.03  -0.04  -0.11
  23   1    -0.05  -0.03  -0.08     0.04   0.02   0.05     0.02   0.18   0.39
  24   1    -0.03  -0.04  -0.11     0.03  -0.08   0.05     0.05   0.20   0.32
  25   1     0.03  -0.03  -0.05    -0.03   0.02   0.05     0.02   0.20   0.35
  26   1     0.00   0.08  -0.24     0.00   0.02  -0.09    -0.00  -0.01   0.02
  27   1     0.00   0.10  -0.34     0.01   0.03  -0.11     0.02   0.00  -0.03
  28   1     0.00   0.13  -0.40    -0.00   0.04  -0.14    -0.00   0.03  -0.06
  29   1     0.00   0.10  -0.34     0.01   0.03  -0.11     0.00   0.02  -0.05
  30   1     0.01   0.08  -0.24     0.00   0.02  -0.08    -0.00   0.00  -0.02
  31   1    -0.02   0.01  -0.01     0.06  -0.04   0.03    -0.02   0.09  -0.17
                     34                     35                     36
                        a                      a                      a 
 Frequencies --   851.3426               873.8477               878.0101
 Red. masses --     7.8403                 3.2854                 3.2745
 Frc consts  --     0.0000                 0.0000                 0.0000
 IR Inten    --    48.4901                 2.3173                 0.7612
 Raman Activ --     0.0000                 0.0000                 0.0000
 Depolar     --     0.0000                 0.0000                 0.0000
 Atom AN      X      Y      Z        X      Y      Z        X      Y      Z
   1   6    -0.04   0.15   0.22     0.00   0.01   0.01    -0.00   0.00   0.00
   2   6     0.10   0.40  -0.02     0.01   0.03  -0.01    -0.00  -0.00   0.00
   3   1     0.05   0.09  -0.05     0.00   0.01   0.01     0.00  -0.01  -0.01
   4   6     0.12  -0.09  -0.17     0.00  -0.00   0.00    -0.00  -0.01  -0.01
   5   6    -0.01  -0.07   0.19    -0.01  -0.06  -0.10     0.02   0.06   0.09
   6   6     0.01   0.09   0.11    -0.01  -0.08  -0.14     0.01   0.05   0.09
   7   6    -0.06   0.02  -0.11    -0.00  -0.00  -0.00    -0.00  -0.00  -0.01
   8   6    -0.00   0.03  -0.07    -0.01  -0.01  -0.03     0.00   0.00   0.02
   9   6     0.06   0.13   0.07     0.02   0.16   0.28    -0.02  -0.10  -0.17
  10   9    -0.07  -0.08   0.07     0.00   0.01   0.02     0.01   0.00  -0.01
  11   6    -0.01  -0.01   0.05     0.00  -0.00  -0.00     0.01  -0.01   0.01
  12   6     0.01  -0.01   0.02     0.00   0.04  -0.15    -0.00   0.06  -0.18
  13   6     0.01  -0.03  -0.02     0.00   0.03  -0.10    -0.01   0.07  -0.18
  14   6    -0.03   0.01  -0.03     0.00  -0.00   0.03    -0.00   0.00  -0.01
  15   6     0.03   0.04  -0.01    -0.00  -0.04   0.11    -0.01  -0.06   0.17
  16   6     0.02   0.01  -0.01    -0.00  -0.04   0.11    -0.01  -0.06   0.19
  17   6     0.05  -0.22  -0.08     0.00  -0.01  -0.00     0.00   0.00  -0.00
  18   8    -0.07  -0.21   0.12    -0.00  -0.01   0.01    -0.00   0.00  -0.00
  19   8    -0.06   0.01  -0.16    -0.00   0.00  -0.01    -0.00  -0.00   0.00
  20   1    -0.11  -0.05   0.30    -0.01  -0.00   0.02     0.00  -0.00   0.00
  21   1    -0.04  -0.08   0.05    -0.00  -0.01   0.00    -0.00   0.00   0.00
  22   1     0.04  -0.07  -0.16     0.00  -0.00  -0.01     0.00  -0.00  -0.00
  23   1    -0.03  -0.16  -0.22     0.01   0.08   0.15    -0.01  -0.08  -0.16
  24   1     0.04  -0.10  -0.26     0.02   0.18   0.33    -0.03  -0.12  -0.21
  25   1    -0.02  -0.09  -0.19    -0.04  -0.30  -0.55     0.02   0.18   0.33
  26   1     0.01   0.01  -0.04    -0.01  -0.09   0.28     0.00  -0.12   0.35
  27   1     0.01  -0.01   0.01     0.00  -0.06   0.19    -0.01  -0.11   0.36
  28   1    -0.01  -0.02   0.05     0.00   0.01  -0.04    -0.00  -0.01   0.02
  29   1     0.02  -0.01   0.05    -0.00   0.07  -0.23     0.00   0.10  -0.34
  30   1     0.00  -0.00   0.01     0.01   0.07  -0.21     0.02   0.12  -0.37
  31   1    -0.02   0.12  -0.22     0.00   0.01  -0.01     0.00  -0.00   0.00
                     37                     38                     39
                        a                      a                      a 
 Frequencies --   903.5728               924.4075               927.8440
 Red. masses --     3.6866                 4.7028                 6.9847
 Frc consts  --     0.0000                 0.0000                 0.0000
 IR Inten    --     0.0481                13.0544                51.1326
 Raman Activ --     0.0000                 0.0000                 0.0000
 Depolar     --     0.0000                 0.0000                 0.0000
 Atom AN      X      Y      Z        X      Y      Z        X      Y      Z
   1   6    -0.00   0.01   0.01    -0.09  -0.01   0.03    -0.14  -0.04   0.02
   2   6     0.01   0.01   0.00    -0.11  -0.05  -0.06    -0.20  -0.07  -0.09
   3   1     0.01   0.00  -0.00    -0.05  -0.04  -0.04    -0.09  -0.05  -0.05
   4   6    -0.00  -0.01  -0.01     0.12   0.02  -0.02     0.20   0.03  -0.02
   5   6     0.02   0.04   0.06    -0.01  -0.00   0.33    -0.04  -0.23   0.08
   6   6     0.01   0.01  -0.01    -0.01  -0.12  -0.24     0.01   0.02  -0.00
   7   6    -0.00  -0.02  -0.03    -0.04   0.06  -0.02    -0.09   0.09  -0.03
   8   6    -0.01   0.01   0.00     0.07   0.08   0.01     0.12   0.10  -0.07
   9   6    -0.02  -0.01  -0.02     0.09   0.06  -0.13     0.18   0.15  -0.09
  10   9    -0.00   0.00  -0.00    -0.08  -0.09   0.05    -0.14  -0.15   0.09
  11   6    -0.00  -0.02   0.09    -0.02   0.01  -0.02    -0.07   0.00   0.03
  12   6     0.01   0.08  -0.23     0.01   0.01  -0.05     0.04  -0.02   0.17
  13   6    -0.01  -0.01   0.04     0.02  -0.06   0.10     0.04  -0.01  -0.24
  14   6    -0.01  -0.10   0.30    -0.02   0.03  -0.06    -0.07  -0.01   0.06
  15   6     0.01  -0.00   0.02     0.01   0.04  -0.05     0.05   0.02   0.16
  16   6     0.00   0.07  -0.24     0.01  -0.04   0.08     0.03   0.00  -0.18
  17   6     0.00  -0.00  -0.00     0.02   0.03   0.01     0.01   0.05   0.02
  18   8    -0.00  -0.00   0.00     0.00   0.03  -0.01     0.01   0.05  -0.02
  19   8    -0.00  -0.00  -0.00     0.01   0.01   0.03     0.02   0.02   0.05
  20   1    -0.01  -0.00   0.01     0.06  -0.01  -0.07     0.10  -0.01  -0.13
  21   1    -0.00  -0.00  -0.00    -0.02   0.02   0.13    -0.02   0.03   0.21
  22   1     0.00  -0.00  -0.01     0.03   0.01   0.01     0.05   0.02   0.02
  23   1     0.00  -0.06  -0.12    -0.06  -0.28  -0.47    -0.02  -0.02   0.10
  24   1    -0.01  -0.00   0.00     0.11   0.27   0.41     0.13   0.05  -0.06
  25   1    -0.01   0.02   0.04     0.05   0.07   0.05     0.08   0.05  -0.04
  26   1    -0.00  -0.14   0.45    -0.01  -0.02   0.08     0.01   0.09  -0.26
  27   1    -0.01   0.04  -0.14     0.02   0.05  -0.19     0.01  -0.13   0.36
  28   1     0.00   0.14  -0.49    -0.01  -0.03   0.11    -0.02   0.04  -0.11
  29   1     0.00   0.03  -0.09     0.00  -0.02   0.09     0.02   0.08  -0.20
  30   1    -0.02  -0.15   0.45     0.01   0.04  -0.13    -0.00  -0.09   0.24
  31   1    -0.00   0.00  -0.01     0.00  -0.02   0.04     0.00  -0.03   0.07
                     40                     41                     42
                        a                      a                      a 
 Frequencies --   930.8463               931.4657               961.3676
 Red. masses --     4.6757                 4.0709                11.1979
 Frc consts  --     0.0000                 0.0000                 0.0000
 IR Inten    --    12.2790                12.8316                 7.8752
 Raman Activ --     0.0000                 0.0000                 0.0000
 Depolar     --     0.0000                 0.0000                 0.0000
 Atom AN      X      Y      Z        X      Y      Z        X      Y      Z
   1   6    -0.08  -0.02   0.01     0.07   0.02  -0.01    -0.05   0.00   0.02
   2   6    -0.12  -0.04  -0.06     0.11   0.04   0.05    -0.04  -0.01  -0.04
   3   1    -0.05  -0.03  -0.03     0.05   0.02   0.03    -0.02  -0.02  -0.03
   4   6     0.12   0.01  -0.01    -0.11  -0.01   0.01     0.10  -0.01  -0.00
   5   6    -0.02  -0.18  -0.03     0.02   0.17   0.05    -0.12  -0.21   0.10
   6   6     0.02   0.06   0.08    -0.02  -0.07  -0.10    -0.03   0.03   0.00
   7   6    -0.06   0.05  -0.02     0.06  -0.05   0.02     0.20  -0.03  -0.00
   8   6     0.07   0.05  -0.06    -0.06  -0.05   0.06    -0.04  -0.04   0.03
   9   6     0.11   0.10  -0.03    -0.10  -0.09   0.02    -0.09   0.22  -0.11
  10   9    -0.07  -0.08   0.06     0.07   0.08  -0.05     0.01   0.02  -0.01
  11   6    -0.04  -0.01   0.05     0.04  -0.02   0.04     0.29  -0.03  -0.01
  12   6     0.02   0.06  -0.13    -0.03  -0.07   0.10    -0.21  -0.34  -0.10
  13   6     0.02  -0.05   0.04    -0.01   0.11  -0.21    -0.11   0.26   0.08
  14   6    -0.05  -0.04   0.15     0.05  -0.06   0.19     0.35  -0.04  -0.01
  15   6     0.02   0.11  -0.27    -0.03  -0.00  -0.12    -0.16  -0.23  -0.07
  16   6     0.02  -0.08   0.17    -0.02   0.03  -0.00    -0.13   0.38   0.10
  17   6     0.01   0.03   0.01    -0.00  -0.03  -0.01     0.00   0.01   0.01
  18   8     0.01   0.03  -0.01    -0.01  -0.03   0.01     0.00   0.01  -0.00
  19   8     0.01   0.01   0.03    -0.01  -0.01  -0.03     0.00   0.01   0.00
  20   1     0.06  -0.00  -0.08    -0.05   0.00   0.07     0.03  -0.01  -0.02
  21   1    -0.01   0.02   0.13     0.01  -0.01  -0.12    -0.01  -0.00   0.09
  22   1     0.03   0.01   0.01    -0.03  -0.01  -0.01     0.03  -0.00  -0.02
  23   1     0.01   0.07   0.22    -0.01  -0.08  -0.23    -0.04  -0.04   0.06
  24   1     0.06  -0.07  -0.20    -0.04   0.09   0.22     0.01  -0.00  -0.03
  25   1     0.04   0.02  -0.04    -0.04  -0.02   0.03    -0.03   0.06  -0.03
  26   1     0.01  -0.05   0.16    -0.01   0.09  -0.29    -0.04  -0.11  -0.03
  27   1     0.01  -0.00  -0.01    -0.01  -0.13   0.46    -0.00   0.08   0.02
  28   1    -0.01   0.09  -0.29     0.02   0.12  -0.39     0.09  -0.01  -0.00
  29   1     0.00  -0.15   0.51    -0.02  -0.09   0.28    -0.02  -0.07  -0.04
  30   1     0.03   0.11  -0.36    -0.00   0.04  -0.08    -0.02   0.10   0.06
  31   1     0.00  -0.02   0.04    -0.00   0.02  -0.04    -0.00  -0.00   0.01
                     43                     44                     45
                        a                      a                      a 
 Frequencies --  1025.7679              1031.4352              1066.3565
 Red. masses --     5.4547                10.5368                 4.6731
 Frc consts  --     0.0000                 0.0000                 0.0000
 IR Inten    --    57.3729                13.8897                63.4411
 Raman Activ --     0.0000                 0.0000                 0.0000
 Depolar     --     0.0000                 0.0000                 0.0000
 Atom AN      X      Y      Z        X      Y      Z        X      Y      Z
   1   6    -0.18   0.20   0.19    -0.05   0.05   0.06     0.30   0.12   0.04
   2   6     0.15  -0.31  -0.12     0.04  -0.09  -0.04    -0.22  -0.15  -0.00
   3   1     0.21  -0.25  -0.39     0.06  -0.07  -0.11    -0.31  -0.20  -0.13
   4   6     0.07  -0.07   0.02    -0.01   0.00  -0.00    -0.08   0.09   0.02
   5   6    -0.01   0.09  -0.06     0.12   0.26  -0.15    -0.03  -0.13   0.06
   6   6    -0.09   0.09  -0.04    -0.00  -0.10   0.05     0.06  -0.05   0.02
   7   6     0.11  -0.08   0.04    -0.36   0.09  -0.02    -0.02   0.04  -0.02
   8   6    -0.06  -0.09   0.05     0.08   0.21  -0.13     0.06   0.02  -0.02
   9   6    -0.08   0.03  -0.01     0.18  -0.27   0.14     0.03   0.04  -0.03
  10   9     0.05   0.07  -0.04    -0.07  -0.11   0.07    -0.02  -0.03   0.02
  11   6     0.05  -0.01  -0.01    -0.19   0.02   0.01    -0.01   0.00   0.01
  12   6     0.05   0.11   0.04    -0.14  -0.32  -0.10    -0.00  -0.01  -0.01
  13   6    -0.03   0.02   0.01     0.09  -0.09  -0.03     0.00   0.00   0.00
  14   6    -0.06   0.00  -0.00     0.20  -0.02  -0.00    -0.00  -0.00   0.00
  15   6    -0.02  -0.01  -0.00     0.10   0.07   0.02     0.00  -0.00  -0.00
  16   6     0.02  -0.11  -0.03    -0.07   0.33   0.10     0.00   0.01   0.00
  17   6    -0.05   0.06   0.04    -0.02   0.02   0.01     0.03   0.01   0.07
  18   8     0.04   0.07  -0.01     0.01   0.02  -0.00     0.01   0.00   0.05
  19   8     0.02   0.07  -0.06     0.01   0.02  -0.01     0.00   0.16  -0.20
  20   1     0.01  -0.10   0.22     0.00  -0.02   0.05    -0.23   0.00   0.35
  21   1    -0.07  -0.12   0.31    -0.02  -0.03   0.08     0.04  -0.10  -0.41
  22   1     0.15  -0.09  -0.27     0.04  -0.02  -0.06    -0.14  -0.06  -0.09
  23   1     0.01   0.04   0.01    -0.03   0.11  -0.05     0.03  -0.05   0.04
  24   1    -0.14  -0.02   0.03    -0.01  -0.03   0.01     0.13   0.03  -0.02
  25   1    -0.04  -0.00   0.00    -0.05  -0.11   0.07     0.08   0.04  -0.02
  26   1    -0.01   0.06   0.00     0.02  -0.14  -0.04     0.01  -0.02   0.00
  27   1    -0.04  -0.01  -0.00     0.12   0.01   0.00     0.01   0.00   0.00
  28   1    -0.02  -0.00  -0.00     0.06  -0.00   0.00    -0.00   0.00   0.00
  29   1    -0.03   0.01   0.00     0.11  -0.03  -0.01     0.01  -0.01  -0.00
  30   1    -0.02  -0.04  -0.02     0.05   0.13   0.04     0.01   0.01   0.00
  31   1     0.02  -0.10   0.15     0.01  -0.03   0.05     0.00  -0.18   0.30
                     46                     47                     48
                        a                      a                      a 
 Frequencies --  1084.3923              1097.4310              1114.7372
 Red. masses --     6.9182                 9.7015                 6.0534
 Frc consts  --     0.0000                 0.0000                 0.0000
 IR Inten    --     2.2853               168.2937                37.7702
 Raman Activ --     0.0000                 0.0000                 0.0000
 Depolar     --     0.0000                 0.0000                 0.0000
 Atom AN      X      Y      Z        X      Y      Z        X      Y      Z
   1   6     0.01   0.00  -0.01     0.06  -0.04   0.37    -0.04  -0.12   0.13
   2   6    -0.01  -0.00   0.02     0.02  -0.06  -0.48     0.04   0.16  -0.23
   3   1     0.00   0.00   0.01    -0.08  -0.07  -0.17    -0.12   0.02  -0.03
   4   6    -0.00  -0.01   0.00    -0.02   0.06   0.05     0.14   0.02  -0.01
   5   6     0.01  -0.04   0.02    -0.01  -0.03   0.00    -0.03   0.06  -0.03
   6   6    -0.00   0.04  -0.02     0.03  -0.02   0.00     0.01  -0.11   0.06
   7   6     0.03  -0.02   0.01     0.01   0.03  -0.01     0.12   0.04  -0.04
   8   6    -0.02  -0.07   0.04    -0.02  -0.01   0.00     0.08   0.20  -0.12
   9   6    -0.02   0.04  -0.02    -0.01  -0.03   0.01    -0.01  -0.08   0.04
  10   9     0.02   0.03  -0.02     0.01   0.00  -0.00    -0.06  -0.09   0.06
  11   6    -0.03   0.00  -0.00     0.01   0.00   0.01     0.21   0.03   0.02
  12   6    -0.16   0.00  -0.00    -0.00   0.00  -0.00    -0.05   0.03   0.01
  13   6     0.02  -0.36  -0.11    -0.00  -0.01  -0.00    -0.02  -0.01  -0.01
  14   6     0.44  -0.04  -0.01     0.01   0.00   0.00     0.01   0.07   0.02
  15   6     0.10   0.34   0.10    -0.01   0.00   0.00    -0.11  -0.08  -0.03
  16   6    -0.15   0.02   0.01    -0.00  -0.01  -0.00     0.08  -0.13  -0.04
  17   6     0.00  -0.00   0.00    -0.06   0.04  -0.16    -0.00  -0.02   0.09
  18   8    -0.00  -0.00   0.00     0.04   0.22  -0.14    -0.02  -0.12   0.06
  19   8    -0.00   0.00  -0.01     0.04  -0.21   0.39     0.01   0.13  -0.15
  20   1    -0.00  -0.00   0.00    -0.13   0.05   0.16     0.00   0.04  -0.07
  21   1     0.00  -0.00  -0.01     0.01   0.00  -0.15     0.01   0.06  -0.00
  22   1     0.00  -0.00  -0.01    -0.15   0.02   0.20    -0.06   0.04   0.19
  23   1     0.04  -0.03   0.02    -0.03   0.02   0.02    -0.16   0.11  -0.04
  24   1    -0.00   0.00  -0.02     0.04   0.01  -0.00    -0.16  -0.10   0.06
  25   1     0.06   0.04  -0.02    -0.01  -0.00   0.02    -0.43  -0.18   0.14
  26   1    -0.28   0.15   0.05    -0.01   0.01   0.00    -0.21   0.15   0.04
  27   1    -0.26  -0.22  -0.07    -0.01  -0.01  -0.00     0.00  -0.00   0.00
  28   1     0.13  -0.01   0.00     0.00   0.01   0.00     0.02   0.15   0.05
  29   1    -0.22   0.28   0.08    -0.01   0.01   0.00    -0.17   0.07   0.02
  30   1    -0.27  -0.08  -0.05    -0.01  -0.01  -0.00     0.05  -0.03  -0.01
  31   1    -0.00  -0.00   0.00    -0.01   0.20  -0.30     0.02  -0.12   0.20
                     49                     50                     51
                        a                      a                      a 
 Frequencies --  1122.1346              1127.1462              1166.5539
 Red. masses --     5.5887                 6.6838                 3.9233
 Frc consts  --     0.0000                 0.0000                 0.0000
 IR Inten    --    41.7447               113.0980                 8.5570
 Raman Activ --     0.0000                 0.0000                 0.0000
 Depolar     --     0.0000                 0.0000                 0.0000
 Atom AN      X      Y      Z        X      Y      Z        X      Y      Z
   1   6     0.05   0.12  -0.15    -0.06  -0.14   0.18     0.01  -0.02   0.01
   2   6    -0.08  -0.14   0.25     0.13   0.13  -0.28    -0.05   0.04  -0.02
   3   1    -0.01  -0.05   0.04     0.15   0.08  -0.06    -0.22  -0.06  -0.02
   4   6    -0.03  -0.01  -0.01    -0.08  -0.00   0.03     0.16  -0.04   0.02
   5   6    -0.02  -0.02   0.01     0.04  -0.03   0.01     0.17  -0.01  -0.01
   6   6     0.01  -0.04   0.03    -0.01   0.09  -0.04    -0.15   0.17  -0.07
   7   6     0.00   0.02  -0.04    -0.09  -0.03   0.00    -0.04  -0.19   0.10
   8   6     0.04   0.04  -0.03    -0.15  -0.23   0.13     0.07  -0.05   0.02
   9   6     0.03   0.03  -0.01    -0.03  -0.00   0.00     0.03   0.14  -0.08
  10   9    -0.02  -0.02   0.01     0.08   0.12  -0.07    -0.02   0.02  -0.01
  11   6     0.03   0.13   0.04    -0.16   0.10   0.03    -0.17   0.01  -0.02
  12   6    -0.19  -0.09  -0.03    -0.13  -0.10  -0.03    -0.03  -0.02  -0.00
  13   6     0.07  -0.11  -0.03     0.08  -0.10  -0.03     0.04  -0.03  -0.01
  14   6     0.01   0.16   0.05    -0.00   0.08   0.03     0.00   0.00  -0.00
  15   6    -0.11  -0.14  -0.04    -0.00  -0.05  -0.01     0.05   0.03   0.01
  16   6     0.18  -0.13  -0.04     0.09  -0.01  -0.01    -0.03   0.04   0.01
  17   6     0.01   0.03  -0.07    -0.01  -0.04   0.04     0.03   0.04   0.12
  18   8     0.02   0.12  -0.06    -0.02  -0.13   0.07     0.00   0.02  -0.02
  19   8    -0.01  -0.13   0.12     0.02   0.15  -0.12    -0.02  -0.04  -0.05
  20   1    -0.01  -0.04   0.08     0.01   0.04  -0.09    -0.01   0.02  -0.02
  21   1    -0.01  -0.06  -0.01     0.01   0.07   0.01     0.01   0.02  -0.05
  22   1     0.06  -0.05  -0.19    -0.05   0.05   0.21    -0.02   0.00   0.03
  23   1    -0.02  -0.00   0.00     0.12  -0.08   0.03     0.54  -0.31   0.10
  24   1    -0.03  -0.03  -0.01     0.08   0.06  -0.04    -0.40  -0.09   0.09
  25   1     0.05   0.02  -0.02     0.35   0.13  -0.09    -0.25  -0.06   0.05
  26   1    -0.31   0.15   0.05    -0.10   0.01   0.01    -0.00  -0.00  -0.02
  27   1     0.23   0.05   0.02     0.20   0.04   0.01     0.10   0.03   0.01
  28   1     0.04   0.39   0.12     0.02   0.22   0.06    -0.00  -0.03  -0.01
  29   1    -0.19   0.07   0.02    -0.03   0.01  -0.00     0.06  -0.02  -0.01
  30   1     0.31   0.06   0.04     0.23   0.08   0.04     0.09   0.05   0.02
  31   1    -0.02   0.12  -0.20     0.03  -0.15   0.24    -0.01   0.05  -0.10
                     52                     53                     54
                        a                      a                      a 
 Frequencies --  1179.8229              1187.4903              1199.9137
 Red. masses --     1.3770                 6.9934                 2.6593
 Frc consts  --     0.0000                 0.0000                 0.0000
 IR Inten    --     1.2482               125.9214                17.2954
 Raman Activ --     0.0000                 0.0000                 0.0000
 Depolar     --     0.0000                 0.0000                 0.0000
 Atom AN      X      Y      Z        X      Y      Z        X      Y      Z
   1   6     0.01   0.01   0.00    -0.04  -0.09  -0.03    -0.01   0.05  -0.01
   2   6    -0.01  -0.01  -0.01     0.11   0.07   0.10    -0.01  -0.02  -0.02
   3   1     0.05   0.03   0.02    -0.28  -0.26  -0.27    -0.06   0.05   0.12
   4   6    -0.02  -0.01   0.01     0.06   0.06  -0.06     0.09   0.02  -0.02
   5   6    -0.01  -0.00   0.00    -0.03   0.01  -0.00     0.00   0.01  -0.00
   6   6     0.01  -0.01   0.01     0.02   0.03  -0.02    -0.02   0.06  -0.03
   7   6    -0.00   0.01  -0.00     0.01   0.01  -0.01     0.05  -0.07   0.03
   8   6    -0.00   0.03  -0.02    -0.07  -0.17   0.10     0.01  -0.11   0.06
   9   6     0.01   0.00  -0.00    -0.04  -0.10   0.06    -0.01   0.01  -0.01
  10   9    -0.01  -0.01   0.01     0.05   0.07  -0.04     0.01   0.03  -0.02
  11   6     0.03   0.07   0.02    -0.05   0.03   0.01    -0.08   0.04   0.00
  12   6     0.07  -0.00   0.00    -0.01  -0.02  -0.01     0.05  -0.08  -0.02
  13   6     0.04   0.02   0.01     0.01  -0.03  -0.01    -0.07  -0.08  -0.03
  14   6    -0.01  -0.08  -0.02    -0.00  -0.01  -0.00    -0.04   0.00   0.00
  15   6    -0.03   0.00   0.00    -0.00   0.02   0.00    -0.06   0.07   0.02
  16   6    -0.08  -0.00  -0.00     0.01   0.01   0.00     0.10   0.06   0.02
  17   6    -0.01  -0.02  -0.05     0.11   0.17   0.49    -0.05  -0.05  -0.17
  18   8    -0.00  -0.00   0.01    -0.00   0.01  -0.06     0.01   0.01   0.02
  19   8     0.01   0.01   0.03    -0.09  -0.09  -0.28     0.03   0.02   0.10
  20   1    -0.00  -0.00   0.01     0.05   0.00  -0.10    -0.01  -0.01   0.04
  21   1    -0.00  -0.00  -0.00     0.01   0.04   0.02    -0.01  -0.02   0.03
  22   1    -0.00  -0.00  -0.00     0.00   0.02   0.06     0.01  -0.01  -0.04
  23   1    -0.01   0.00  -0.00    -0.16   0.09  -0.04    -0.04   0.03  -0.01
  24   1    -0.01  -0.01   0.00     0.24   0.10  -0.08     0.09   0.06  -0.03
  25   1     0.04   0.02  -0.01    -0.04  -0.05   0.02    -0.19  -0.07   0.05
  26   1    -0.16   0.12   0.04     0.05  -0.05  -0.00     0.37  -0.27  -0.08
  27   1     0.45   0.19   0.06     0.03   0.00   0.00    -0.29  -0.14  -0.04
  28   1    -0.07  -0.66  -0.20    -0.01  -0.05  -0.02    -0.01  -0.02  -0.01
  29   1    -0.35   0.24   0.07    -0.09   0.06   0.02    -0.37   0.27   0.07
  30   1     0.10   0.05   0.02     0.08   0.03   0.02     0.44   0.18   0.08
  31   1     0.00  -0.02   0.03    -0.03   0.15  -0.31     0.01  -0.05   0.10
                     55                     56                     57
                        a                      a                      a 
 Frequencies --  1207.7975              1249.4454              1256.1571
 Red. masses --     5.6140                 5.8121                 5.9998
 Frc consts  --     0.0000                 0.0000                 0.0000
 IR Inten    --    70.1480                 6.5272                69.3788
 Raman Activ --     0.0000                 0.0000                 0.0000
 Depolar     --     0.0000                 0.0000                 0.0000
 Atom AN      X      Y      Z        X      Y      Z        X      Y      Z
   1   6     0.03  -0.08   0.04    -0.07  -0.01   0.03     0.13  -0.06   0.04
   2   6    -0.01   0.01   0.01     0.26  -0.02   0.01    -0.42  -0.04  -0.00
   3   1     0.25  -0.03  -0.19     0.08  -0.03  -0.05     0.57   0.13  -0.13
   4   6    -0.23  -0.07   0.06    -0.38   0.18  -0.07     0.07  -0.15   0.09
   5   6    -0.02  -0.02   0.01    -0.14   0.06  -0.02    -0.05   0.09  -0.04
   6   6     0.03  -0.15   0.07    -0.02  -0.12   0.06     0.04   0.13  -0.07
   7   6    -0.00   0.11  -0.05    -0.10  -0.14   0.08     0.03  -0.23   0.12
   8   6     0.04   0.31  -0.17     0.20   0.10  -0.07     0.08  -0.02  -0.00
   9   6     0.01   0.04  -0.02     0.01   0.07  -0.04     0.06   0.16  -0.09
  10   9    -0.06  -0.10   0.06    -0.05  -0.05   0.03    -0.02   0.00   0.00
  11   6     0.16  -0.02   0.01     0.14  -0.04  -0.03    -0.09  -0.03  -0.03
  12   6     0.09  -0.03  -0.01     0.02   0.01   0.00    -0.02   0.01   0.00
  13   6    -0.07   0.03   0.01    -0.02   0.04   0.01     0.02  -0.02  -0.00
  14   6    -0.04   0.00  -0.00    -0.01   0.00   0.00     0.01   0.01   0.00
  15   6    -0.08  -0.00  -0.00    -0.04  -0.03  -0.01     0.02   0.03   0.01
  16   6     0.07   0.01   0.00     0.04   0.00   0.00    -0.03   0.01   0.00
  17   6     0.09   0.07   0.24    -0.04  -0.01  -0.01     0.13   0.04   0.15
  18   8    -0.01  -0.02  -0.02     0.01   0.01  -0.00    -0.03  -0.03  -0.00
  19   8    -0.04  -0.03  -0.13     0.01   0.00   0.00    -0.03  -0.01  -0.06
  20   1     0.00   0.03  -0.05     0.05  -0.01  -0.05    -0.06   0.05   0.01
  21   1     0.02   0.03  -0.07    -0.01   0.02   0.04     0.03  -0.01  -0.16
  22   1    -0.03   0.01   0.07     0.05   0.00  -0.00    -0.09  -0.01   0.05
  23   1     0.13  -0.10   0.04     0.38  -0.25   0.09    -0.10   0.08  -0.03
  24   1    -0.29  -0.16   0.12     0.47   0.15  -0.13     0.17   0.10  -0.07
  25   1     0.32   0.14  -0.10    -0.23  -0.06   0.05    -0.24  -0.05   0.05
  26   1     0.15  -0.09  -0.04    -0.08   0.06   0.03    -0.05   0.03   0.01
  27   1    -0.25  -0.09  -0.03    -0.05  -0.00  -0.00     0.02   0.00  -0.00
  28   1    -0.01  -0.02  -0.00    -0.00   0.01   0.00     0.00  -0.00  -0.00
  29   1    -0.20   0.12   0.04    -0.04   0.01   0.00     0.06  -0.03  -0.01
  30   1     0.13   0.04   0.02    -0.01  -0.01  -0.01     0.09   0.04   0.01
  31   1    -0.02   0.06  -0.12     0.01  -0.01   0.01    -0.02   0.04  -0.07
                     58                     59                     60
                        a                      a                      a 
 Frequencies --  1282.4468              1299.0083              1305.7357
 Red. masses --     3.4911                 7.7701                 9.0645
 Frc consts  --     0.0000                 0.0000                 0.0000
 IR Inten    --     0.5515                85.4250                48.6008
 Raman Activ --     0.0000                 0.0000                 0.0000
 Depolar     --     0.0000                 0.0000                 0.0000
 Atom AN      X      Y      Z        X      Y      Z        X      Y      Z
   1   6    -0.01   0.01  -0.01     0.02  -0.14  -0.02    -0.05   0.11   0.02
   2   6     0.03   0.01  -0.01     0.10   0.23   0.31     0.12  -0.22  -0.25
   3   1    -0.11  -0.02   0.03     0.06  -0.24  -0.44     0.05   0.19   0.33
   4   6     0.04  -0.04   0.02    -0.18   0.03  -0.03    -0.24   0.15  -0.03
   5   6     0.03   0.01  -0.01    -0.06  -0.11   0.06    -0.07  -0.13   0.07
   6   6     0.01   0.03  -0.02     0.12  -0.03   0.01     0.08  -0.10   0.05
   7   6    -0.07  -0.01   0.04     0.29   0.05  -0.05     0.35   0.13  -0.09
   8   6    -0.07   0.02  -0.01     0.15   0.01  -0.02     0.23  -0.01  -0.02
   9   6    -0.00  -0.03   0.02    -0.06   0.09  -0.04    -0.15   0.05  -0.02
  10   9     0.01   0.01  -0.01    -0.02  -0.03   0.02    -0.02  -0.03   0.02
  11   6     0.02  -0.30  -0.09    -0.26   0.03   0.01    -0.29   0.04   0.02
  12   6     0.17  -0.07  -0.02    -0.05   0.01  -0.00    -0.05   0.01  -0.00
  13   6     0.09   0.11   0.04     0.02  -0.09  -0.03     0.02  -0.10  -0.03
  14   6    -0.00   0.15   0.05     0.05   0.04   0.01     0.06   0.05   0.02
  15   6    -0.09   0.08   0.03     0.05   0.08   0.02     0.06   0.09   0.03
  16   6    -0.11  -0.00  -0.01    -0.14  -0.03  -0.01    -0.16  -0.05  -0.01
  17   6    -0.01  -0.00  -0.01    -0.13  -0.09  -0.29     0.09   0.07   0.25
  18   8     0.00   0.00   0.00     0.02   0.03   0.02    -0.01  -0.03  -0.02
  19   8     0.00   0.00   0.01     0.03   0.01   0.11    -0.03  -0.01  -0.11
  20   1     0.00  -0.01   0.01     0.03   0.03  -0.13     0.01  -0.05   0.09
  21   1    -0.00  -0.00   0.02     0.03   0.07  -0.06    -0.03  -0.06   0.07
  22   1     0.00   0.00  -0.00     0.00   0.02   0.09     0.03  -0.01  -0.07
  23   1    -0.03   0.03  -0.01    -0.10   0.02  -0.01    -0.08  -0.00   0.01
  24   1     0.02   0.01  -0.01    -0.10  -0.07   0.04    -0.06  -0.07   0.04
  25   1     0.08   0.02  -0.02    -0.10  -0.01   0.00    -0.09   0.00   0.01
  26   1    -0.38   0.28   0.08     0.04  -0.04  -0.01     0.04  -0.04  -0.01
  27   1    -0.35  -0.13  -0.04     0.07   0.00   0.00     0.08  -0.00   0.00
  28   1    -0.03  -0.22  -0.07     0.01  -0.04  -0.01     0.01  -0.05  -0.01
  29   1     0.23  -0.15  -0.05     0.14  -0.06  -0.02     0.16  -0.07  -0.02
  30   1     0.45   0.19   0.08     0.13   0.06   0.02     0.14   0.07   0.02
  31   1     0.00  -0.00   0.01     0.01  -0.04   0.09    -0.00   0.03  -0.07
                     61                     62                     63
                        a                      a                      a 
 Frequencies --  1316.7273              1326.9139              1398.8611
 Red. masses --    11.9165                10.9490                 5.2703
 Frc consts  --     0.0000                 0.0000                 0.0000
 IR Inten    --     0.1067                 4.9375                 6.1150
 Raman Activ --     0.0000                 0.0000                 0.0000
 Depolar     --     0.0000                 0.0000                 0.0000
 Atom AN      X      Y      Z        X      Y      Z        X      Y      Z
   1   6    -0.00   0.00  -0.00    -0.03   0.03  -0.01    -0.10   0.03   0.33
   2   6     0.01  -0.00  -0.01     0.17   0.00  -0.07    -0.05  -0.04   0.00
   3   1    -0.05  -0.00   0.02    -0.24  -0.03   0.10     0.06   0.03   0.02
   4   6     0.00  -0.07   0.04    -0.14  -0.30   0.18     0.08   0.13  -0.07
   5   6    -0.10   0.06  -0.02    -0.33   0.12  -0.04    -0.19   0.00   0.01
   6   6     0.09   0.03  -0.02     0.40   0.11  -0.09     0.13  -0.07   0.03
   7   6    -0.03  -0.10   0.04     0.10  -0.32   0.16     0.03   0.14  -0.08
   8   6    -0.11   0.04  -0.01    -0.24   0.23  -0.11    -0.25  -0.08   0.06
   9   6     0.11   0.02  -0.02     0.25   0.13  -0.09     0.20  -0.06   0.02
  10   9     0.00   0.01  -0.00    -0.02  -0.02   0.01     0.03   0.03  -0.02
  11   6     0.07   0.40   0.11    -0.10  -0.08  -0.03    -0.00   0.05   0.03
  12   6     0.32  -0.23  -0.07    -0.12   0.09   0.03    -0.05  -0.02  -0.01
  13   6    -0.34  -0.13  -0.04     0.06  -0.00   0.00     0.09  -0.00  -0.00
  14   6     0.04   0.38   0.11     0.01  -0.12  -0.04     0.00   0.03   0.01
  15   6     0.29  -0.22  -0.06    -0.03   0.08   0.02    -0.09   0.02   0.00
  16   6    -0.35  -0.16  -0.05     0.06   0.04   0.01     0.04  -0.04  -0.01
  17   6    -0.00   0.00   0.00    -0.01   0.00   0.02     0.00   0.01  -0.00
  18   8     0.00   0.00  -0.00     0.00   0.00  -0.00    -0.00  -0.01   0.00
  19   8     0.00   0.00  -0.00     0.00   0.00  -0.01     0.00  -0.00   0.00
  20   1    -0.00  -0.00   0.00     0.01  -0.02   0.03     0.22   0.12  -0.36
  21   1    -0.00  -0.00   0.00    -0.01  -0.01   0.05    -0.02  -0.01  -0.42
  22   1     0.00   0.00  -0.00     0.02   0.01  -0.00     0.14  -0.19  -0.38
  23   1     0.02  -0.02   0.01    -0.07   0.02  -0.00     0.08  -0.08   0.04
  24   1     0.02   0.00  -0.01    -0.02  -0.03   0.01    -0.04  -0.05   0.03
  25   1     0.00  -0.01   0.00     0.05   0.03  -0.02    -0.07  -0.07   0.04
  26   1    -0.00   0.00  -0.00     0.04  -0.03  -0.01     0.00  -0.02  -0.00
  27   1    -0.05  -0.02  -0.01     0.08   0.03   0.01    -0.04  -0.03  -0.01
  28   1    -0.00  -0.03  -0.01     0.01   0.05   0.01    -0.01  -0.08  -0.02
  29   1     0.02  -0.02  -0.00     0.01   0.01   0.00     0.04  -0.04  -0.01
  30   1    -0.02  -0.01  -0.01     0.02   0.01   0.00    -0.00  -0.02  -0.00
  31   1     0.00  -0.00  -0.00     0.00  -0.00   0.00     0.00   0.00  -0.00
                     64                     65                     66
                        a                      a                      a 
 Frequencies --  1404.5292              1432.9330              1460.2845
 Red. masses --     7.6378                 9.1811                 8.6930
 Frc consts  --     0.0000                 0.0000                 0.0000
 IR Inten    --    29.7431                 7.2548                17.9400
 Raman Activ --     0.0000                 0.0000                 0.0000
 Depolar     --     0.0000                 0.0000                 0.0000
 Atom AN      X      Y      Z        X      Y      Z        X      Y      Z
   1   6    -0.08   0.03   0.23     0.01  -0.00  -0.01     0.03  -0.02   0.01
   2   6     0.09   0.05  -0.05    -0.04  -0.03   0.02    -0.06   0.02   0.01
   3   1    -0.16  -0.01   0.05     0.07   0.01  -0.01    -0.03  -0.00   0.00
   4   6    -0.09  -0.20   0.12     0.05   0.16  -0.09     0.26  -0.04   0.00
   5   6     0.28  -0.02  -0.01    -0.11  -0.03   0.02    -0.07   0.16  -0.08
   6   6    -0.17   0.12  -0.05     0.09  -0.06   0.02    -0.21  -0.13   0.08
   7   6    -0.05  -0.19   0.11     0.04   0.14  -0.04     0.16  -0.05   0.01
   8   6     0.32   0.11  -0.09    -0.17  -0.04   0.03    -0.09   0.18  -0.09
   9   6    -0.27   0.08  -0.02     0.10  -0.07   0.03    -0.14  -0.12   0.08
  10   9    -0.04  -0.04   0.03     0.02   0.02  -0.01     0.00  -0.02   0.01
  11   6    -0.00  -0.09  -0.05    -0.05  -0.36  -0.09     0.24  -0.02  -0.01
  12   6     0.09   0.04   0.01     0.25   0.10   0.03    -0.14   0.22   0.06
  13   6    -0.15   0.01   0.00    -0.32   0.08   0.02    -0.20  -0.19  -0.06
  14   6    -0.01  -0.07  -0.02    -0.03  -0.29  -0.09     0.21  -0.00   0.00
  15   6     0.15  -0.03  -0.00     0.33   0.03   0.01    -0.16   0.22   0.06
  16   6    -0.08   0.06   0.02    -0.24   0.15   0.04    -0.18  -0.18  -0.06
  17   6    -0.00   0.01  -0.01     0.00  -0.00   0.00    -0.00   0.00  -0.02
  18   8    -0.00  -0.01   0.01     0.00   0.00  -0.00    -0.00  -0.00   0.00
  19   8     0.00   0.00   0.00    -0.00  -0.00   0.00     0.00  -0.00   0.01
  20   1     0.16   0.06  -0.24    -0.01   0.00   0.01    -0.08   0.08  -0.04
  21   1    -0.02  -0.02  -0.27     0.00   0.00   0.01     0.01   0.05   0.04
  22   1     0.10  -0.12  -0.25    -0.01   0.00   0.01    -0.05  -0.04  -0.06
  23   1    -0.17   0.15  -0.06     0.06  -0.06   0.03     0.15  -0.06   0.02
  24   1     0.04   0.07  -0.04    -0.03  -0.04   0.03     0.17   0.05  -0.04
  25   1     0.10   0.10  -0.06    -0.03  -0.05   0.03     0.15   0.03  -0.03
  26   1    -0.01   0.04   0.01    -0.06   0.12   0.04     0.19  -0.10  -0.03
  27   1     0.07   0.05   0.02     0.15   0.13   0.04     0.20   0.05   0.02
  28   1     0.01   0.13   0.04     0.04   0.32   0.10     0.06  -0.02  -0.00
  29   1    -0.06   0.07   0.02    -0.11   0.15   0.05     0.19  -0.10  -0.03
  30   1     0.01   0.03   0.01     0.11   0.12   0.04     0.22   0.05   0.02
  31   1     0.00  -0.00   0.00    -0.00   0.00  -0.00    -0.00   0.00   0.00
                     67                     68                     69
                        a                      a                      a 
 Frequencies --  1477.0481              1485.8120              1498.8401
 Red. masses --     1.8948                 1.5978                10.1170
 Frc consts  --     0.0000                 0.0000                 0.0000
 IR Inten    --     3.4517                 4.7173                44.6534
 Raman Activ --     0.0000                 0.0000                 0.0000
 Depolar     --     0.0000                 0.0000                 0.0000
 Atom AN      X      Y      Z        X      Y      Z        X      Y      Z
   1   6     0.15  -0.13   0.05     0.14   0.16   0.02     0.02  -0.01   0.00
   2   6     0.05  -0.03  -0.00     0.04   0.04   0.02     0.07  -0.02  -0.00
   3   1    -0.02   0.00   0.04    -0.01  -0.01  -0.03     0.03   0.00   0.01
   4   6    -0.02  -0.01   0.00    -0.01   0.00  -0.01    -0.30   0.06  -0.01
   5   6    -0.02   0.00   0.00    -0.01   0.01  -0.00     0.16  -0.19   0.09
   6   6     0.02  -0.00   0.00     0.00  -0.00   0.00     0.17   0.15  -0.10
   7   6     0.03   0.00  -0.00     0.01  -0.01   0.00    -0.43   0.06   0.00
   8   6     0.03  -0.00  -0.00     0.00   0.01  -0.00     0.05  -0.20   0.11
   9   6    -0.02   0.01  -0.00    -0.01  -0.00   0.00     0.20   0.11  -0.08
  10   9    -0.00  -0.00   0.00    -0.00  -0.00   0.00     0.00   0.03  -0.02
  11   6    -0.09   0.01   0.00    -0.02   0.00   0.00     0.36  -0.04  -0.01
  12   6     0.03  -0.05  -0.02     0.00  -0.01  -0.00    -0.05   0.13   0.05
  13   6     0.06   0.05   0.01     0.01   0.01   0.00    -0.18  -0.11  -0.04
  14   6    -0.05   0.00   0.00    -0.01  -0.00  -0.00     0.15  -0.01  -0.00
  15   6     0.05  -0.05  -0.02     0.01  -0.01  -0.00    -0.16   0.14   0.04
  16   6     0.04   0.05   0.02     0.01   0.01   0.00    -0.07  -0.12  -0.04
  17   6     0.00   0.00   0.01    -0.01   0.01  -0.02     0.00  -0.00   0.02
  18   8     0.00   0.00  -0.00    -0.00  -0.02   0.01     0.00   0.01  -0.01
  19   8    -0.00  -0.00  -0.01     0.00   0.00   0.00    -0.00   0.00  -0.01
  20   1    -0.50   0.45  -0.17     0.18   0.07  -0.25    -0.06   0.06  -0.03
  21   1     0.09   0.34   0.32    -0.11  -0.61   0.19     0.01   0.02   0.06
  22   1    -0.20  -0.23  -0.33    -0.64  -0.11  -0.01    -0.05  -0.03  -0.04
  23   1    -0.01   0.01  -0.00     0.02  -0.02  -0.00    -0.15   0.07  -0.02
  24   1    -0.00  -0.00   0.00     0.00  -0.00  -0.00    -0.18  -0.04   0.04
  25   1    -0.00   0.00  -0.00     0.00   0.00  -0.00    -0.15  -0.04   0.03
  26   1    -0.05   0.02   0.01    -0.01   0.00   0.00     0.12  -0.05  -0.02
  27   1    -0.05  -0.01  -0.00    -0.01  -0.00  -0.00     0.12   0.04   0.01
  28   1    -0.02   0.00   0.00    -0.00   0.00   0.00     0.04  -0.01  -0.00
  29   1    -0.04   0.02   0.01    -0.01   0.00   0.00     0.11  -0.06  -0.02
  30   1    -0.05  -0.01  -0.01    -0.01  -0.00  -0.00     0.13   0.02   0.02
  31   1     0.00  -0.00  -0.00     0.00  -0.00   0.00     0.00  -0.00  -0.00
                     70                     71                     72
                        a                      a                      a 
 Frequencies --  1563.0219              1582.2145              1595.1550
 Red. masses --    11.6508                11.5125                11.5324
 Frc consts  --     0.0000                 0.0000                 0.0000
 IR Inten    --    28.6031                 1.9319                 9.2635
 Raman Activ --     0.0000                 0.0000                 0.0000
 Depolar     --     0.0000                 0.0000                 0.0000
 Atom AN      X      Y      Z        X      Y      Z        X      Y      Z
   1   6     0.00   0.00   0.00    -0.00  -0.00   0.00    -0.00  -0.00   0.00
   2   6     0.03   0.04  -0.03    -0.01  -0.01   0.00    -0.01   0.01   0.00
   3   1    -0.09  -0.01   0.02     0.02   0.00  -0.00    -0.01  -0.00  -0.00
   4   6    -0.07  -0.48   0.26     0.02   0.09  -0.05     0.15  -0.03   0.00
   5   6    -0.07   0.25  -0.13     0.02  -0.05   0.03    -0.25   0.10  -0.03
   6   6    -0.20  -0.22   0.13     0.04   0.06  -0.03     0.25   0.02  -0.04
   7   6     0.02   0.40  -0.21    -0.02  -0.13   0.05    -0.21   0.06  -0.01
   8   6     0.11  -0.26   0.13     0.01   0.06  -0.03     0.25  -0.10   0.04
   9   6     0.18   0.26  -0.16    -0.06  -0.05   0.04    -0.24  -0.03   0.04
  10   9    -0.00   0.01  -0.01    -0.00  -0.00   0.00    -0.00   0.00  -0.00
  11   6     0.02   0.06   0.03     0.06   0.44   0.12     0.26  -0.03  -0.01
  12   6     0.06  -0.06  -0.02     0.12  -0.27  -0.08    -0.34   0.14   0.04
  13   6     0.01   0.07   0.02     0.14   0.27   0.08     0.35   0.06   0.02
  14   6    -0.01  -0.14  -0.04    -0.05  -0.52  -0.16    -0.16   0.02   0.01
  15   6    -0.01   0.08   0.02    -0.08   0.30   0.09     0.33  -0.14  -0.04
  16   6    -0.06  -0.05  -0.02    -0.18  -0.24  -0.07    -0.36  -0.05  -0.03
  17   6     0.01  -0.00   0.00    -0.00   0.00  -0.00    -0.00   0.01  -0.02
  18   8    -0.00   0.00  -0.00     0.00  -0.00   0.00    -0.00  -0.01   0.01
  19   8    -0.00   0.00  -0.00     0.00  -0.00   0.00     0.00  -0.00   0.01
  20   1     0.01  -0.00   0.00    -0.00   0.00   0.00     0.00  -0.00   0.00
  21   1    -0.00  -0.01  -0.00     0.00   0.00   0.00    -0.00  -0.00  -0.01
  22   1    -0.00   0.00   0.01     0.00  -0.00  -0.00     0.00   0.00   0.00
  23   1     0.06   0.02  -0.01    -0.01  -0.00   0.00     0.05  -0.04   0.02
  24   1     0.08  -0.00  -0.01    -0.01   0.00  -0.01    -0.05  -0.04   0.03
  25   1    -0.09   0.02  -0.00     0.02   0.00  -0.00     0.04   0.03  -0.02
  26   1    -0.02   0.01   0.01    -0.08   0.01   0.00     0.06  -0.07  -0.02
  27   1    -0.01   0.01   0.00    -0.07   0.03   0.01    -0.06  -0.05  -0.02
  28   1     0.01   0.04   0.01     0.02   0.13   0.04    -0.04   0.00   0.00
  29   1     0.02   0.01   0.00     0.07   0.01   0.00    -0.05   0.06   0.02
  30   1     0.03   0.01   0.01     0.09  -0.00  -0.00     0.07   0.05   0.02
  31   1    -0.00  -0.00   0.00     0.00   0.00  -0.00    -0.00   0.00  -0.00
                     73                     74                     75
                        a                      a                      a 
 Frequencies --  1603.4996              1718.4649              2974.5717
 Red. masses --    11.6102                13.2868                 1.7648
 Frc consts  --     0.0000                 0.0000                 0.0000
 IR Inten    --    10.8771               704.7042                24.4176
 Raman Activ --     0.0000                 0.0000                 0.0000
 Depolar     --     0.0000                 0.0000                 0.0000
 Atom AN      X      Y      Z        X      Y      Z        X      Y      Z
   1   6    -0.00  -0.00   0.00    -0.00  -0.00   0.01    -0.01   0.01  -0.00
   2   6    -0.02   0.01   0.00    -0.00   0.07   0.01     0.07  -0.22   0.13
   3   1    -0.01  -0.00  -0.00     0.04   0.04   0.04    -0.26   0.79  -0.48
   4   6     0.21  -0.04   0.00     0.04  -0.01   0.00     0.00  -0.01   0.00
   5   6    -0.36   0.13  -0.04    -0.02   0.01  -0.00     0.00   0.00  -0.00
   6   6     0.35   0.04  -0.05     0.01   0.00  -0.00    -0.00  -0.00   0.00
   7   6    -0.20   0.06  -0.02    -0.00  -0.00   0.00    -0.00   0.00  -0.00
   8   6     0.34  -0.14   0.05     0.02  -0.00  -0.00     0.00  -0.00   0.00
   9   6    -0.34  -0.05   0.05    -0.02  -0.00   0.00    -0.00   0.00  -0.00
  10   9    -0.01   0.01  -0.00    -0.00  -0.00   0.00     0.00   0.00  -0.00
  11   6    -0.12   0.00   0.00    -0.00   0.00  -0.00    -0.00   0.00  -0.00
  12   6     0.25  -0.09  -0.03     0.00  -0.00  -0.00    -0.00  -0.00  -0.00
  13   6    -0.28  -0.05  -0.02    -0.00  -0.00  -0.00    -0.00   0.00   0.00
  14   6     0.13  -0.00  -0.00     0.00   0.00   0.00    -0.00   0.00   0.00
  15   6    -0.25   0.10   0.03    -0.00   0.00   0.00    -0.00  -0.00   0.00
  16   6     0.28   0.05   0.02     0.00   0.00  -0.00    -0.00   0.00   0.00
  17   6     0.00   0.02  -0.02    -0.14  -0.72   0.31     0.00  -0.01   0.01
  18   8    -0.00  -0.02   0.01     0.10   0.53  -0.24     0.00   0.00  -0.00
  19   8     0.00  -0.00   0.01    -0.00   0.04  -0.05     0.00   0.00  -0.00
  20   1     0.01  -0.00   0.00     0.01   0.01  -0.02    -0.01  -0.01  -0.01
  21   1    -0.00  -0.00  -0.01    -0.00  -0.01  -0.01     0.03  -0.00  -0.00
  22   1     0.01   0.00   0.00    -0.01  -0.01  -0.01     0.01  -0.05   0.03
  23   1     0.06  -0.06   0.03    -0.01   0.00  -0.01    -0.00  -0.00   0.00
  24   1    -0.06  -0.05   0.03    -0.00  -0.00   0.00     0.00   0.00  -0.00
  25   1     0.05   0.04  -0.03     0.01   0.00  -0.00     0.00  -0.01   0.00
  26   1    -0.04   0.05   0.01    -0.00  -0.00  -0.00     0.00   0.00   0.00
  27   1     0.05   0.04   0.01    -0.00  -0.00  -0.00     0.00  -0.00  -0.00
  28   1     0.03  -0.01  -0.00     0.00  -0.00  -0.00     0.00  -0.00   0.00
  29   1     0.04  -0.05  -0.01     0.00   0.00   0.00     0.00   0.00   0.00
  30   1    -0.05  -0.04  -0.01    -0.00   0.00   0.00     0.00  -0.00  -0.00
  31   1     0.00   0.00  -0.00     0.01  -0.04   0.07    -0.00  -0.01  -0.00
                     76                     77                     78
                        a                      a                      a 
 Frequencies --  3044.1130              3053.1581              3057.3611
 Red. masses --     1.8671                 1.8221                 1.4743
 Frc consts  --     0.0000                 0.0000                 0.0000
 IR Inten    --    49.8834                30.6110                20.6182
 Raman Activ --     0.0000                 0.0000                 0.0000
 Depolar     --     0.0000                 0.0000                 0.0000
 Atom AN      X      Y      Z        X      Y      Z        X      Y      Z
   1   6     0.27  -0.07   0.04     0.09   0.24   0.09     0.01  -0.15   0.14
   2   6     0.01  -0.01   0.01    -0.00   0.01  -0.00     0.00  -0.01   0.01
   3   1    -0.01   0.03  -0.02     0.01  -0.02   0.01    -0.01   0.03  -0.02
   4   6    -0.00  -0.00  -0.00    -0.00   0.00  -0.00     0.00  -0.00   0.00
   5   6     0.00   0.00  -0.00    -0.00  -0.00   0.00     0.01   0.01  -0.01
   6   6     0.00  -0.00   0.00     0.00   0.00  -0.00     0.00  -0.00   0.00
   7   6    -0.00   0.00  -0.00     0.00  -0.00   0.00     0.00   0.00  -0.00
   8   6    -0.00  -0.00   0.00     0.00   0.00   0.00     0.00   0.00  -0.00
   9   6    -0.00   0.00  -0.00     0.00  -0.00   0.00    -0.00   0.00  -0.00
  10   9     0.00   0.00  -0.00    -0.00  -0.00   0.00    -0.00  -0.00   0.00
  11   6    -0.00   0.00  -0.00     0.00  -0.00  -0.00     0.00   0.00  -0.00
  12   6    -0.00  -0.00  -0.00     0.00   0.00   0.00     0.00   0.00   0.00
  13   6     0.00  -0.00  -0.00    -0.00   0.00   0.00     0.00  -0.00  -0.00
  14   6     0.00  -0.00  -0.00     0.00  -0.00  -0.00     0.00  -0.00  -0.00
  15   6     0.00   0.00   0.00     0.00   0.00   0.00     0.00   0.00   0.00
  16   6    -0.00   0.00   0.00     0.00  -0.00  -0.00     0.00  -0.00  -0.00
  17   6     0.00  -0.00   0.00    -0.00  -0.00  -0.00    -0.00  -0.00   0.00
  18   8    -0.00  -0.00   0.00    -0.00  -0.00   0.00     0.00   0.00  -0.00
  19   8     0.00   0.00   0.00    -0.00  -0.00   0.00    -0.00  -0.00  -0.00
  20   1    -0.03  -0.11  -0.06    -0.46  -0.67  -0.44    -0.12  -0.20  -0.10
  21   1    -0.91   0.18   0.01     0.09   0.02   0.01     0.24  -0.07   0.01
  22   1     0.00   0.18  -0.09     0.06  -0.20   0.13    -0.15   0.80  -0.41
  23   1    -0.01  -0.01   0.00     0.00   0.00  -0.00    -0.02  -0.03   0.02
  24   1    -0.00   0.00  -0.00     0.00  -0.00   0.00    -0.00   0.01  -0.00
  25   1     0.00  -0.00   0.00    -0.00   0.00  -0.00     0.00  -0.00   0.00
  26   1     0.00   0.00   0.00    -0.00  -0.00  -0.00    -0.00  -0.00  -0.00
  27   1    -0.00   0.00   0.00     0.00   0.00  -0.00    -0.00   0.00   0.00
  28   1    -0.00   0.00   0.00    -0.00   0.00   0.00    -0.00   0.00   0.00
  29   1    -0.00  -0.00  -0.00    -0.00  -0.00  -0.00    -0.00  -0.00  -0.00
  30   1     0.00  -0.00  -0.00    -0.00   0.00   0.00    -0.00   0.00   0.00
  31   1    -0.00  -0.00  -0.00     0.00   0.00   0.00     0.00   0.00   0.00
                     79                     80                     81
                        a                      a                      a 
 Frequencies --  3076.2970              3077.3822              3084.6649
 Red. masses --     1.7404                 1.7814                 1.8315
 Frc consts  --     0.0000                 0.0000                 0.0000
 IR Inten    --     6.5460                 1.8728                85.1117
 Raman Activ --     0.0000                 0.0000                 0.0000
 Depolar     --     0.0000                 0.0000                 0.0000
 Atom AN      X      Y      Z        X      Y      Z        X      Y      Z
   1   6     0.00  -0.00   0.00     0.00   0.00   0.00     0.00  -0.00   0.00
   2   6    -0.00   0.00   0.00    -0.00   0.00   0.00    -0.00   0.00  -0.00
   3   1     0.00  -0.00   0.00    -0.00  -0.00   0.00     0.00  -0.00   0.00
   4   6    -0.00  -0.00   0.00    -0.00   0.00  -0.00    -0.00  -0.00   0.00
   5   6    -0.00  -0.00   0.00    -0.00  -0.00   0.00    -0.00  -0.00   0.00
   6   6    -0.00   0.00  -0.00    -0.00   0.01  -0.00    -0.00   0.01  -0.00
   7   6    -0.00   0.00   0.00    -0.00   0.00   0.00    -0.00  -0.00   0.00
   8   6     0.00  -0.00   0.00    -0.00  -0.00   0.00     0.00  -0.00   0.00
   9   6    -0.00   0.00  -0.00     0.00  -0.00   0.00    -0.00   0.00  -0.00
  10   9    -0.00   0.00  -0.00     0.00   0.00   0.00    -0.00  -0.00  -0.00
  11   6    -0.01   0.00   0.00    -0.00  -0.00  -0.00    -0.01   0.00   0.00
  12   6    -0.05  -0.06  -0.02    -0.08  -0.10  -0.03    -0.09  -0.12  -0.04
  13   6    -0.06   0.12   0.04    -0.06   0.12   0.03     0.01  -0.01  -0.00
  14   6     0.13  -0.01  -0.00    -0.01   0.00   0.00    -0.16   0.02   0.00
  15   6    -0.08  -0.11  -0.03     0.09   0.11   0.03    -0.01  -0.01  -0.00
  16   6    -0.03   0.05   0.02     0.05  -0.11  -0.03    -0.06   0.13   0.04
  17   6     0.00   0.00   0.00     0.00   0.00   0.00    -0.00  -0.00  -0.00
  18   8    -0.00  -0.00  -0.00    -0.00  -0.00   0.00     0.00   0.00  -0.00
  19   8    -0.00  -0.00  -0.00     0.00   0.00   0.00    -0.00  -0.00   0.00
  20   1    -0.00  -0.00  -0.00    -0.00  -0.00  -0.00    -0.00  -0.00  -0.00
  21   1     0.00  -0.00   0.00     0.00  -0.00   0.00     0.00  -0.00   0.00
  22   1    -0.00   0.00  -0.00    -0.00   0.00  -0.00    -0.00   0.00  -0.00
  23   1     0.00   0.00  -0.00     0.00   0.01  -0.00     0.01   0.01  -0.00
  24   1     0.01  -0.01   0.00     0.01  -0.02   0.01     0.01  -0.02   0.01
  25   1     0.00  -0.00   0.00    -0.00   0.00  -0.00     0.00  -0.00   0.00
  26   1     0.17   0.23   0.07     0.28   0.36   0.12     0.33   0.43   0.14
  27   1     0.21  -0.46  -0.14     0.19  -0.42  -0.13    -0.02   0.04   0.01
  28   1    -0.51   0.05   0.01     0.04  -0.01  -0.00     0.57  -0.06  -0.01
  29   1     0.29   0.39   0.12    -0.31  -0.41  -0.13     0.04   0.05   0.01
  30   1     0.10  -0.21  -0.06    -0.18   0.39   0.12     0.21  -0.46  -0.14
  31   1     0.00   0.00   0.00    -0.00  -0.00  -0.00     0.00   0.00   0.00
                     82                     83                     84
                        a                      a                      a 
 Frequencies --  3088.8472              3096.1316              3098.1803
 Red. masses --     1.8807                 1.7860                 1.9230
 Frc consts  --     0.0000                 0.0000                 0.0000
 IR Inten    --   216.1941                 6.3356                86.5288
 Raman Activ --     0.0000                 0.0000                 0.0000
 Depolar     --     0.0000                 0.0000                 0.0000
 Atom AN      X      Y      Z        X      Y      Z        X      Y      Z
   1   6     0.00   0.00   0.00    -0.00   0.01  -0.01     0.00  -0.00   0.00
   2   6    -0.00  -0.00   0.00    -0.00   0.00  -0.00    -0.00  -0.00   0.00
   3   1    -0.00   0.00  -0.00     0.00  -0.00   0.00    -0.00   0.00  -0.00
   4   6    -0.00   0.00  -0.00     0.01   0.00  -0.00    -0.00  -0.00   0.00
   5   6    -0.00  -0.00   0.00     0.11   0.15  -0.09    -0.01  -0.01   0.01
   6   6    -0.00   0.01  -0.00     0.07  -0.13   0.07    -0.00   0.00  -0.00
   7   6    -0.00  -0.00  -0.00     0.00  -0.00   0.00     0.00   0.00  -0.00
   8   6    -0.00  -0.00   0.00    -0.00   0.00  -0.00    -0.00  -0.00   0.00
   9   6     0.00  -0.00   0.00    -0.00   0.01  -0.00    -0.00   0.00  -0.00
  10   9     0.00   0.00   0.00    -0.00  -0.00   0.00     0.00   0.00  -0.00
  11   6     0.00   0.00   0.00     0.00   0.00  -0.00     0.01  -0.00  -0.00
  12   6    -0.08  -0.10  -0.03    -0.00  -0.01  -0.00     0.05   0.07   0.02
  13   6     0.06  -0.12  -0.04    -0.00   0.01   0.00    -0.05   0.12   0.04
  14   6     0.01   0.00   0.00    -0.01   0.00   0.00    -0.17   0.02   0.00
  15   6    -0.08  -0.10  -0.03    -0.01  -0.01  -0.00    -0.08  -0.11  -0.03
  16   6     0.06  -0.14  -0.04     0.00  -0.01  -0.00     0.04  -0.08  -0.03
  17   6     0.00   0.00   0.00    -0.00  -0.00  -0.00     0.00   0.00   0.00
  18   8    -0.00  -0.00   0.00     0.00   0.00   0.00    -0.00  -0.00   0.00
  19   8     0.00   0.00   0.00     0.00   0.00   0.00    -0.00  -0.00  -0.00
  20   1    -0.00  -0.00  -0.00     0.00   0.01   0.00     0.00  -0.00   0.00
  21   1    -0.00   0.00   0.00     0.00   0.00  -0.00    -0.00   0.00   0.00
  22   1    -0.00   0.00  -0.00     0.00  -0.03   0.02    -0.00   0.00  -0.00
  23   1     0.01   0.02  -0.01    -0.41  -0.54   0.31     0.04   0.05  -0.03
  24   1     0.02  -0.03   0.01    -0.26   0.48  -0.24     0.00  -0.00   0.00
  25   1    -0.00   0.00  -0.00     0.01  -0.02   0.01     0.00  -0.00   0.00
  26   1     0.27   0.35   0.11     0.02   0.02   0.01    -0.18  -0.23  -0.07
  27   1    -0.19   0.41   0.12     0.01  -0.02  -0.01     0.18  -0.39  -0.12
  28   1    -0.05   0.00   0.00     0.04  -0.00  -0.00     0.57  -0.06  -0.01
  29   1     0.26   0.34   0.10     0.02   0.03   0.01     0.26   0.35   0.11
  30   1    -0.22   0.48   0.14    -0.01   0.03   0.01    -0.13   0.28   0.09
  31   1    -0.00  -0.00  -0.00    -0.00  -0.00  -0.00     0.00   0.00   0.00
                     85                     86                     87
                        a                      a                      a 
 Frequencies --  3106.5221              3107.9561              3329.4627
 Red. masses --     1.8767                 1.8453                 1.8507
 Frc consts  --     0.0000                 0.0000                 0.0000
 IR Inten    --    50.8476                 7.8167               189.8281
 Raman Activ --     0.0000                 0.0000                 0.0000
 Depolar     --     0.0000                 0.0000                 0.0000
 Atom AN      X      Y      Z        X      Y      Z        X      Y      Z
   1   6    -0.00   0.00  -0.00     0.00   0.00   0.00     0.00  -0.00  -0.00
   2   6    -0.00   0.00  -0.00    -0.00   0.00  -0.00     0.00  -0.00   0.00
   3   1     0.00  -0.00   0.00     0.00  -0.01   0.00    -0.00   0.01  -0.00
   4   6     0.00  -0.00   0.00    -0.01   0.00   0.00    -0.00   0.00   0.00
   5   6     0.09   0.12  -0.07    -0.03  -0.04   0.02     0.00   0.00  -0.00
   6   6    -0.09   0.17  -0.08     0.03  -0.05   0.02    -0.00   0.00  -0.00
   7   6    -0.01  -0.00   0.00     0.00  -0.00   0.00    -0.00   0.00  -0.00
   8   6     0.00   0.00  -0.00     0.01   0.01  -0.00    -0.00  -0.00   0.00
   9   6    -0.03   0.06  -0.03    -0.11   0.21  -0.11     0.00  -0.00   0.00
  10   9    -0.00   0.00  -0.00    -0.00  -0.00   0.00     0.00   0.00  -0.00
  11   6     0.00   0.00  -0.00    -0.00   0.00  -0.00     0.00   0.00   0.00
  12   6     0.01   0.01   0.00    -0.00  -0.00  -0.00    -0.00  -0.00  -0.00
  13   6    -0.00   0.00   0.00     0.00  -0.00  -0.00     0.00  -0.00  -0.00
  14   6    -0.00   0.00   0.00     0.00  -0.00  -0.00     0.00  -0.00  -0.00
  15   6    -0.00  -0.00  -0.00     0.00   0.00   0.00     0.00  -0.00  -0.00
  16   6     0.00  -0.00  -0.00    -0.00   0.00   0.00     0.00  -0.00  -0.00
  17   6    -0.00   0.00  -0.00    -0.00  -0.00  -0.00    -0.00  -0.00  -0.01
  18   8     0.00  -0.00   0.00     0.00   0.00  -0.00    -0.00  -0.00   0.00
  19   8    -0.00   0.00  -0.00    -0.00  -0.00  -0.00    -0.08  -0.19  -0.11
  20   1     0.00   0.00   0.00    -0.00  -0.00  -0.00     0.00   0.00   0.00
  21   1     0.00   0.00  -0.00     0.00  -0.00   0.00    -0.00   0.00   0.00
  22   1     0.00  -0.02   0.01    -0.00   0.00  -0.00     0.00  -0.00   0.00
  23   1    -0.31  -0.41   0.24     0.10   0.14  -0.08    -0.00  -0.00   0.00
  24   1     0.32  -0.58   0.29    -0.09   0.16  -0.08    -0.00   0.00  -0.00
  25   1     0.12  -0.23   0.12     0.39  -0.74   0.38    -0.00   0.00  -0.00
  26   1    -0.02  -0.03  -0.01     0.01   0.01   0.00     0.00   0.00   0.00
  27   1     0.01  -0.01  -0.00    -0.00   0.01   0.00    -0.00   0.00   0.00
  28   1     0.01  -0.00  -0.00    -0.01   0.00   0.00    -0.00   0.00  -0.00
  29   1     0.01   0.01   0.00    -0.00  -0.01  -0.00    -0.00  -0.00  -0.00
  30   1    -0.00   0.01   0.00     0.00  -0.00  -0.00    -0.00   0.00   0.00
  31   1     0.00  -0.00   0.00     0.00   0.00   0.00     0.34   0.76   0.49
