31
 energy: -49.336948264940 gnorm: 0.037879141522 xtb: 6.7.1 (edcfbbe)
C           -3.57366078358438       -1.11424777210811       -1.43681609820092
C           -3.14598362884214       -0.66048368107017       -0.04315928491231
H           -3.54870667976608       -1.35323761103072        0.70647839059238
C           -1.63307384864527       -0.63167836294144        0.11594924674794
C           -0.99294881028474       -1.54536699086531        0.98380108208873
C            0.37629629998534       -1.55432002067973        1.11815015976262
C            1.18253737360460       -0.64229884457088        0.39590867780017
C            2.59514115008726       -0.63600390150442        0.51813076275480
C            3.33835853434170        0.27321593189052       -0.20337103169615
C            2.70611962449603        1.20578846754735       -1.06487861444018
C            1.34374276684937        1.21136634730492       -1.19466153231761
C            0.53800763705675        0.29102070504812       -0.47490368157955
C           -0.86845440513440        0.27136649405449       -0.59503161257424
O            4.70328590758586        0.36966525128783       -0.16713568396247
C            5.40076781992668       -0.56011895128609        0.67619516493568
C           -3.70960315972889        0.70832037357379        0.29066656298449
O           -4.25082077668772        1.45456635843849       -0.50072843291185
O           -3.57830585088346        1.11226104692988        1.57825756160679
H           -3.17690948509241       -2.11411241544693       -1.63091303289789
H           -4.66379006360342       -1.14954374601283       -1.51663384533312
H           -3.18989046870903       -0.43482243041274       -2.20253197948340
H           -1.59765105003068       -2.25217448365484        1.54488587252958
H            0.85593864765852       -2.26563733362941        1.78452545370371
H            3.05960220165255       -1.35433413306145        1.18327990692803
H            3.32581437607305        1.90750305122019       -1.61400019781183
H            0.86271606050002        1.92541586651472       -1.85682006523571
H           -1.34276488136074        0.98736965935910       -1.26274176300420
H            5.10928882085020       -0.43216354740328        1.72479415672860
H            6.45993989305552       -0.32896589786443        0.55898715779043
H            5.21126671645053       -1.59204456812827        0.35957758633558
H           -3.13931484354802        0.42657393735144        2.10756751014470
31
 energy: -49.338736565116 gnorm: 0.016519066539 xtb: 6.7.1 (edcfbbe)
C           -3.56228418135960       -1.11520255459736       -1.43069249004748
C           -3.14125022085410       -0.66309857056345       -0.03444138236526
H           -3.55149755295478       -1.36149463794608        0.70507980637390
C           -1.63024329520243       -0.63028925950815        0.11552509391072
C           -0.99195846921421       -1.54179562221412        0.97796117329908
C            0.36994617184177       -1.54882721313209        1.11123698958256
C            1.17334426086173       -0.63948639107289        0.39279143473004
C            2.57990454194656       -0.63411192110129        0.51521222292009
C            3.33102886519232        0.26709154673174       -0.19856909945747
C            2.69800571606128        1.19657085443520       -1.05767867228630
C            1.34081352969344        1.20484356215976       -1.18903681571586
C            0.53475328303567        0.28947304756358       -0.47311748244932
C           -0.86813215395668        0.26948845020927       -0.59174657284947
O            4.69369618748764        0.35901876535556       -0.15930442650707
C            5.39985958651026       -0.55627786296561        0.67320253332495
C           -3.69662642140974        0.71018513223537        0.28499064670566
O           -4.22867011913671        1.44597215355141       -0.51232117324360
O           -3.57042129337477        1.10989239366425        1.56394906890260
H           -3.16980021953526       -2.11026271264858       -1.63214186876529
H           -4.64775331042857       -1.13933622577647       -1.50739990832820
H           -3.18595433439412       -0.42998967396359       -2.18707256598381
H           -1.59058113600515       -2.25159468689290        1.53267582656114
H            0.84767536807145       -2.25767744643004        1.77343346336705
H            3.03650186431310       -1.35185858060289        1.17840707077111
H            3.32037797529846        1.89197817547280       -1.60130839825283
H            0.86272205911334        1.91683332614069       -1.84767736432028
H           -1.34261767780508        0.98437314769934       -1.25201574090546
H            5.11325114268347       -0.42621519693883        1.71962332476019
H            6.45232411823728       -0.31297622150247        0.54536028533757
H            5.21542605624049       -1.58576737136219        0.35651455288339
H           -3.13489524668443        0.43342039284980        2.11138886512047
31
 energy: -49.339092851134 gnorm: 0.006538721369 xtb: 6.7.1 (edcfbbe)
C           -3.55537445262841       -1.11575356898656       -1.42965857803210
C           -3.13977420217836       -0.66628280136624       -0.02939874466096
H           -3.55423898400949       -1.36699893843110        0.70408412369310
C           -1.63122607519263       -0.63208803673066        0.11873957513498
C           -0.99280025270121       -1.54643701630675        0.97578921801328
C            0.36657489920049       -1.55145583595988        1.10854475928555
C            1.16686878289135       -0.63992420882947        0.39259126707563
C            2.57106235825575       -0.63432564454026        0.51443552975409
C            3.32600694228278        0.26376937306293       -0.19614567493065
C            2.69060732263420        1.19214961764043       -1.05376044207714
C            1.33546532498638        1.20206910027212       -1.18479710673105
C            0.53000202730189        0.28821841799210       -0.46959436023632
C           -0.87207303696139        0.26903075042076       -0.58556366634391
O            4.68605135927527        0.35489994943379       -0.15701653747449
C            5.39705392994724       -0.55062670801137        0.66895085093894
C           -3.68995508399693        0.71168029930788        0.28178674381713
O           -4.20169288735783        1.44622869079947       -0.52751139745211
O           -3.55599671033231        1.11472468647547        1.55056045247948
H           -3.16184436446828       -2.10702670702642       -1.63396675528193
H           -4.63913844657180       -1.13588066990101       -1.50661519120024
H           -3.17925110264070       -0.42423882404528       -2.17767702684300
H           -1.58795296914819       -2.25897580610752        1.52664363348070
H            0.84527762289111       -2.25935341006245        1.76760639496289
H            3.02412586710743       -1.35309707353521        1.17700054849352
H            3.31577275398384        1.88386474515588       -1.59466428497888
H            0.85791341370387        1.91284356933356       -1.84176883569476
H           -1.34788770383120        0.98366946274137       -1.24197092298192
H            5.11798022543162       -0.42312816317378        1.71696898494590
H            6.44574079313371       -0.29893645428110        0.53387030440297
H            5.22059535034176       -1.58210763230824        0.35676350086471
H           -3.13094760707729        0.44636763581731        2.11860203464940
31
 energy: -49.339178088008 gnorm: 0.003360984098 xtb: 6.7.1 (edcfbbe)
C           -3.55312473967338       -1.11644694231889       -1.42994872913060
C           -3.13982183461469       -0.66778824920242       -0.02763330287666
H           -3.55775805005029       -1.36599543069995        0.70549833978804
C           -1.63265009697425       -0.63625856189725        0.12097137515470
C           -0.99393375044409       -1.55319099792950        0.97558820799032
C            0.36555265665150       -1.55702573455304        1.10822445969947
C            1.16421641939352       -0.64242424585204        0.39370809249374
C            2.56838399334575       -0.63608086323436        0.51494053038469
C            3.32334146436096        0.26252077428341       -0.19523335199549
C            2.68603841235087        1.19109988056167       -1.05210290190119
C            1.33108347723791        1.20160083461217       -1.18191152083928
C            0.52685153493745        0.28678940478089       -0.46649811143973
C           -0.87529385328072        0.26753927904004       -0.58132853745375
O            4.68198169739309        0.35500845822000       -0.15786409260256
C            5.39662361142793       -0.54576259865548        0.66557898105118
C           -3.67686502495628        0.71853132917753        0.27773739884587
O           -4.18338844571347        1.44943421084298       -0.53871749588274
O           -3.55341463143043        1.11981359183268        1.54424147354353
H           -3.15816672737027       -2.10653372781012       -1.63493031062396
H           -4.63665845554353       -1.13600548993293       -1.50908598402639
H           -3.17472231543089       -0.42223982267759       -2.17432541913851
H           -1.58837012448073       -2.26822042445418        1.52374383949475
H            0.84590076605883       -2.26604724823896        1.76472595920774
H            3.02129466078647       -1.35593090140091        1.17708688399074
H            3.31258896745424        1.88183525422772       -1.59269071814233
H            0.85252573552758        1.91234345347617       -1.83804490942740
H           -1.35269211034768        0.98447218413214       -1.23413102733565
H            5.12186954490426       -0.42061201947722        1.71554640632583
H            6.44425686308591       -0.29043474402883        0.52747704639545
H            5.22501756788539       -1.57971272244986        0.35709483525098
H           -3.13372211821832        0.45860086847595        2.12511098027203
31
 energy: -49.339228556871 gnorm: 0.003166717523 xtb: 6.7.1 (edcfbbe)
C           -3.55183922796608       -1.11726856372016       -1.43019279839532
C           -3.14147687006908       -0.66914339794964       -0.02629136353173
H           -3.56408848661191       -1.36336816088920        0.70728494532834
C           -1.63476862445945       -0.64192496892633        0.12415340269641
C           -0.99511770147466       -1.56240495254200        0.97520531227383
C            0.36510592931239       -1.56502681708039        1.10771780063828
C            1.16256883483854       -0.64652822023182        0.39541098241330
C            2.56741687961413       -0.63897106253235        0.51570164961365
C            3.32066298236112        0.26172294815224       -0.19455776745132
C            2.68134477835194        1.19104798176367       -1.05025797657081
C            1.32611506150749        1.20169397146845       -1.17791419110656
C            0.52373094573405        0.28493016398624       -0.46211521206671
C           -0.87865819122365        0.26555071565059       -0.57545999350676
O            4.67845022806413        0.35681967554716       -0.15985158258187
C            5.39738734701852       -0.54024188471245        0.66213810175078
C           -3.67097427257886        0.72295608710796        0.27471928972268
O           -4.15923061774518        1.45693043532273       -0.55204242726281
O           -3.54616337348468        1.13067916576221        1.53647707356208
H           -3.15427337603450       -2.10658233855664       -1.63507311791250
H           -4.63534547381157       -1.13863327686998       -1.51264550087198
H           -3.17128618246266       -0.42124356077123       -2.17238616768749
H           -1.58952068337946       -2.28031591892405        1.52037548247312
H            0.84735823640641       -2.27601486469281        1.76138334044289
H            3.02169300953352       -1.35989527948329        1.17678409041774
H            3.30840076598457        1.88193979449716       -1.59112842598699
H            0.84564900185985        1.91302019640991       -1.83270051850839
H           -1.35766228725380        0.98496307589918       -1.22512377290818
H            5.12564368275672       -0.41687265909048        1.71385802264999
H            6.44454907247724       -0.28220186251259        0.52207165944034
H            5.22971297477486       -1.57650374133595        0.35666396118149
H           -3.13843926776726        0.47376611810366        2.13062409881732
31
 energy: -49.339252782575 gnorm: 0.002740266398 xtb: 6.7.1 (edcfbbe)
C           -3.55230553755442       -1.11823374630395       -1.42892133656500
C           -3.14246693310733       -0.66858420167693       -0.02570662564249
H           -3.56854891810195       -1.35845654652526        0.70999938223765
C           -1.63546104432088       -0.64550025948095        0.12591655157235
C           -0.99534930515715       -1.56856975230502        0.97393657263528
C            0.36538831836950       -1.57108418476195        1.10600069179641
C            1.16282756560786       -0.65025549529769        0.39597309053745
C            2.56828442923441       -0.64155941567344        0.51566536973971
C            3.31942626753225        0.26146014343480       -0.19438339479617
C            2.67918778571169        1.19174826549841       -1.04866743935005
C            1.32373419103214        1.20192983401177       -1.17472318387684
C            0.52290102064256        0.28313397565980       -0.45940933968404
C           -0.87942288141225        0.26388964477819       -0.57184161928887
O            4.67734628039678        0.35886296942497       -0.16138006505590
C            5.39866534890551       -0.53719927133999        0.66071125558062
C           -3.66505706546823        0.72770490618464        0.27098625980551
O           -4.14534477279645        1.46249231920718       -0.56000865198697
O           -3.54599703115834        1.13816643302242        1.53229170241705
H           -3.15327591098298       -2.10768043767914       -1.63262838746611
H           -4.63584759634535       -1.14165074965366       -1.51309848591669
H           -3.17136789628890       -0.42297421147212       -2.17200118557593
H           -1.59017649134036       -2.28794947592981        1.51737335645342
H            0.84825309444350       -2.28374212146800        1.75794545350545
H            3.02437818179773       -1.36288230768733        1.17539651883552
H            3.30547764404512        1.88378318873643       -1.58962077289814
H            0.84156465653775        1.91415426658058       -1.82780693186899
H           -1.35907974033152        0.98497196038082       -1.21960436209378
H            5.12699502318075       -0.41377216517118        1.71266205925902
H            6.44568244036155       -0.27805356689724        0.52033100749515
H            5.23214829185724       -1.57393409030202        0.35551073750061
H           -3.14561432101754        0.48266289155545        2.13193016976757
31
 energy: -49.339280399744 gnorm: 0.002092747562 xtb: 6.7.1 (edcfbbe)
C           -3.55303654791453       -1.12070610926027       -1.42504403449923
C           -3.14351165087699       -0.66660518359214       -0.02391642807639
H           -3.57428813455731       -1.34961058930285        0.71565302383896
C           -1.63588731948574       -0.64949749851089        0.12841598925673
C           -0.99521295697990       -1.57679933361699        0.97095952930436
C            0.36599820288005       -1.57994334385208        1.10162352147787
C            1.16367301784354       -0.65606993423008        0.39558011322522
C            2.56971203905292       -0.64580913695669        0.51425708110368
C            3.31789187203082        0.26093099971552       -0.19436844023620
C            2.67664039291938        1.19313480622278       -1.04569654862130
C            1.32104802844739        1.20248786002667       -1.16959231928719
C            0.52246440929195        0.28043290177887       -0.45593079527885
C           -0.87958088462067        0.26193796248383       -0.56674726833378
O            4.67629031991268        0.36163093804760       -0.16312725297497
C            5.40050473886167       -0.53340098044300        0.65945576608734
C           -3.65745001858729        0.73474080018441        0.26418542806114
O           -4.12403639941883        1.47140845939528       -0.57294975463882
O           -3.54786522094556        1.14975946472274        1.52546659032177
H           -3.15184720796161       -2.11024669277883       -1.62642337751805
H           -4.63654885375826       -1.14748523024443       -1.51012097202405
H           -3.17343639892929       -0.42715562837683       -2.17066664665348
H           -1.59026667481432       -2.29854567856283        1.51147226622205
H            0.84914878390274       -2.29595944516705        1.75006957791690
H            3.02848463375189       -1.36781037844045        1.17132989496355
H            3.30131067831103        1.88740218176259       -1.58588143990817
H            0.83641180046660        1.91631180570918       -1.81936919970290
H           -1.35977359228843        0.98560498579662       -1.21138304644040
H            5.12800245543986       -0.40924869610725        1.71100312007876
H            6.44694986202127       -0.27211170492485        0.51876235134770
H            5.23542754069763       -1.57004806375194        0.35361968106506
H           -3.16027182041999        0.49414926112314        2.13219198699552
31
 energy: -49.339303244132 gnorm: 0.002059338539 xtb: 6.7.1 (edcfbbe)
C           -3.55378027975612       -1.12482734140580       -1.41934649287790
C           -3.14405346931673       -0.66387292260881       -0.02089392336226
H           -3.57830905805900       -1.33989607514769        0.72310373859680
C           -1.63599793913367       -0.65177295267165        0.13079344094259
C           -0.99484410958917       -1.58411802897612        0.96686505723856
C            0.36667053955359       -1.58876706219587        1.09526271155908
C            1.16442093754123       -0.66174836844528        0.39366328870218
C            2.57067660850011       -0.65033986868785        0.51131271619486
C            3.31667509216763        0.26030139971295       -0.19444825974106
C            2.67459472779387        1.19502711080968       -1.04206728902165
C            1.31901456698635        1.20374123574172       -1.16432616236369
C            0.52231314497700        0.27837375840702       -0.45313844529341
C           -0.87949856656338        0.26130001744868       -0.56194817734325
O            4.67540800211823        0.36374217712494       -0.16399175402813
C            5.40206118488841       -0.53022442533209        0.65873198980944
C           -3.65013587710587        0.74202928134546        0.25633043023562
O           -4.10078828818753        1.48048450015186       -0.58787517861584
O           -3.55173870009828        1.16154110370648        1.51774944226899
H           -3.15018683950767       -2.11412029773878       -1.61760970068542
H           -4.63723940698616       -1.15503383096595       -1.50375502891305
H           -3.17678330728390       -0.43314812384594       -2.16806788945079
H           -1.58957646741348       -2.30826919840201        1.50444603946731
H            0.84979876613605       -2.30884067491798        1.73926792507228
H            3.03154726619035       -1.37376500616097        1.16509158399981
H            3.29785983033084        1.89184874677550       -1.58028957139879
H            0.83230470022486        1.91951921056704       -1.81025645086148
H           -1.35997365769081        0.98778063820632       -1.20304394783424
H            5.12862064988604       -0.40597032059758        1.70973767215525
H            6.44759237362775       -0.26592014671161        0.51778012168045
H            5.23914798264053       -1.56660947304477        0.35190920529425
H           -3.17885531259834        0.50443373670888        2.13184130564635
31
 energy: -49.339328875162 gnorm: 0.002105200505 xtb: 6.7.1 (edcfbbe)
C           -3.55519590979771       -1.13155054311193       -1.41118839298492
C           -3.14416360963435       -0.66015983713503       -0.01647277593099
H           -3.58003186535931       -1.32858853253792        0.73327390216411
C           -1.63574844326575       -0.65193112958298        0.13270362389686
C           -0.99419434232437       -1.59039211120388        0.96116651947498
C            0.36757622904166       -1.59773327121207        1.08625179946103
C            1.16525736435600       -0.66723861738371        0.38964273101204
C            2.57146829355236       -0.65540719526350        0.50628823470382
C            3.31618549448496        0.25975102032151       -0.19468341098430
C            2.67349450141360        1.19811829883081       -1.03746682669176
C            1.31798618469810        1.20655187348320       -1.15871857344383
C            0.52259401005097        0.27753291104482       -0.45123193293060
C           -0.87916296895540        0.26264960353986       -0.55762035527133
O            4.67502293370608        0.36524269065010       -0.16376929831178
C            5.40342927560442       -0.52796502410716        0.65862866035727
C           -3.64310621756464        0.74989955561964        0.24731042549140
O           -4.07451814112718        1.48985149334640       -0.60538917491396
O           -3.55902149525577        1.17389841403463        1.50907069371445
H           -3.14855491671346       -2.12035448404636       -1.60464405325073
H           -4.63864735109485       -1.16592208741287       -1.49304201608066
H           -3.18230024690161       -0.44252925840928       -2.16434097239659
H           -1.58823250343350       -2.31705797433849        1.49571940289659
H            0.85049286206591       -2.32297015737826        1.72444570110330
H            3.03374516726321       -1.38152797476163        1.15582048044762
H            3.29575662913181        1.89804726174435       -1.57230932148982
H            0.82977196837169        1.92500330705838       -1.80018228715967
H           -1.35968372921177        0.99255035683296       -1.19449615697372
H            5.12856573473015       -0.40495642538007        1.70909029690665
H            6.44790502783160       -0.25991419101725        0.51821421826027
H            5.24362089503800       -1.56398066213512        0.35011288405202
H           -3.20336573642815        0.51396148876059        2.13064437194509
31
 energy: -49.339357733233 gnorm: 0.002295682389 xtb: 6.7.1 (edcfbbe)
C           -3.55789431717313       -1.14176731238829       -1.39993321211004
C           -3.14385897419897       -0.65553454433507       -0.01052513569574
H           -3.57882471633243       -1.31550277752722        0.74689956982166
C           -1.63500211878703       -0.64970511826057        0.13369503706694
C           -0.99307975459236       -1.59556722445473        0.95325022902071
C            0.36893801764983       -1.60686894665747        1.07396696514658
C            1.16635613627347       -0.67225752984021        0.38299796700310
C            2.57236134439835       -0.66108119009563        0.49875581655127
C            3.31688355655455        0.25953182306011       -0.19504568120555
C            2.67380732291779        1.20310416511716       -1.03153223342831
C            1.31836793336971        1.21185139687451       -1.15253015421013
C            0.52344317837318        0.27862232733904       -0.45038653979222
C           -0.87855249324389        0.26665860297997       -0.55395413953853
O            4.67548976590360        0.36617632967275       -0.16221511425254
C            5.40460338718095       -0.52707185483392        0.65905052436590
C           -3.63656954663621        0.75851713654806        0.23716117990541
O           -4.04442937095898        1.49931972780431       -0.62620926433513
O           -3.57134394448158        1.18713805796473        1.49923266450220
H           -3.14732908358431       -2.13001416983932       -1.58607127711630
H           -4.64142012978622       -1.18157327339671       -1.47705093469591
H           -3.19077468088060       -0.45691638416085       -2.15963074686178
H           -1.58634472539524       -2.32482760837490        1.48460778752518
H            0.85167077326243       -2.33835001836252        1.70488981528856
H            3.03511826007782       -1.39173813363704        1.14275581199505
H            3.29570848078499        1.90692024841469       -1.56126743927440
H            0.82950180626736        1.93423385371485       -1.78872097582544
H           -1.35896733067113        1.00081551735035       -1.18575465113539
H            5.12733367140101       -0.40768843413641        1.70912700968571
H            6.44815648322605       -0.25475798500512        0.52099267427168
H            5.24903985819240       -1.56262061292983        0.34750873899178
H           -3.23544369483869        0.52383273024496        2.12876410540856
31
 energy: -49.339383637929 gnorm: 0.002380386730 xtb: 6.7.1 (edcfbbe)
C           -3.56182451491060       -1.15429874845406       -1.38697636650000
C           -3.14312879640048       -0.65085043159011       -0.00421930776210
H           -3.57442718403892       -1.30262932636557        0.76205969500875
C           -1.63364726568633       -0.64538553961883        0.13327246670953
C           -0.99142526636590       -1.59869392617722        0.94408886873377
C            0.37079329354242       -1.61456433365965        1.06013026453960
C            1.16785699377151       -0.67578336151282        0.37453332490542
C            2.57365946389516       -0.66651863780611        0.48965292432955
C            3.31906758167225        0.25982084307845       -0.19555785065862
C            2.67591664587168        1.20969693410184       -1.02492197958122
C            1.32048046912261        1.21949293500233       -1.14639981397614
C            0.52496509932953        0.28193394149150       -0.45076736942386
C           -0.87754526565341        0.27303268871821       -0.55162658941044
O            4.67718030548328        0.36652544248598       -0.15958765642178
C            5.40541432830503       -0.52821559331932        0.65978916271641
C           -3.63213338830447        0.76640407011192        0.22758116733817
O           -4.01624600375453        1.50657513951508       -0.64695267595884
O           -3.58844701332764        1.19928641675670        1.48952320319356
H           -3.14714008533510       -2.14226018144050       -1.56399781582463
H           -4.64550141885822       -1.20018776014442       -1.45780867740251
H           -3.20129505318999       -0.47521716199337       -2.15496014355390
H           -1.58438443477446       -2.33006465342234        1.47255712370216
H            0.85361344135446       -2.35224708485869        1.68350627876218
H            3.03580247049851       -1.40308985393282        1.12747211877659
H            3.29818188832803        1.91774885086597       -1.54850755157126
H            0.83211468107769        1.94689413301765       -1.77713756385169
H           -1.35780561349020        1.01174881685493       -1.17816535430805
H            5.12436109434292       -0.41500529634643        1.70965815034995
H            6.44860827593186       -0.25210595572826        0.52669464547930
H            5.25451348275022       -1.56308514610827        0.34349622663703
H           -3.27063311691421        0.53392157932788        2.12639949209590
31
 energy: -49.339400262559 gnorm: 0.001945027372 xtb: 6.7.1 (edcfbbe)
C           -3.56534535942696       -1.16479964667830       -1.37647368386035
C           -3.14227768267978       -0.64791967639042        0.00037857222179
H           -3.56936642325069       -1.29378070641349        0.77385725550340
C           -1.63215834436982       -0.64150278608982        0.13208489962319
C           -0.98962674874220       -1.60007730581558        0.93675840035549
C            0.37267533352985       -1.61918975226868        1.04947051546723
C            1.16935788362537       -0.67719355934660        0.36758566044786
C            2.57512299286913       -0.67008907107747        0.48236915569099
C            3.32165516319563        0.26059656779039       -0.19584808325873
C            2.67853114273688        1.21577932465656       -1.01935259659106
C            1.32303388501322        1.22685119045152       -1.14145547958235
C            0.52649330609543        0.28590254991278       -0.45140875135027
C           -0.87653897788709        0.27895721153138       -0.55047379848006
O            4.67930675506778        0.36669913570053       -0.15718873359619
C            5.40581743249752       -0.53067821435391        0.65983899464712
C           -3.63044689664419        0.77153090406373        0.22088748770323
O           -3.99685373214671        1.50994388941137       -0.66261391908807
O           -3.60479641647168        1.20790239573783        1.48169621566692
H           -3.14797327154756       -2.15294318737794       -1.54587351904291
H           -4.64914457639961       -1.21513821866542       -1.44207763731077
H           -3.20971341784439       -0.49132058143342       -2.15162582023358
H           -1.58293302493292       -2.33277882632295        1.46304931862038
H            0.85604249748069       -2.36095436603605        1.66742880498937
H            3.03614924068496       -1.41182117319612        1.11519608583385
H            3.30146455705320        1.92712352424436       -1.53791909316583
H            0.83578821795254        1.95875067928277       -1.76800976910270
H           -1.35683589080980        1.02109675516107       -1.17305316962360
H            5.12071075034336       -0.42446084551433        1.70966826591641
H            6.44926882431963       -0.25219176325989        0.53280077350764
H            5.25860305407627       -1.56466929871328        0.33805092858809
H           -3.29906517911536        0.54325364985895        2.12508111657634
31
 energy: -49.339411744212 gnorm: 0.001322083496 xtb: 6.7.1 (edcfbbe)