
                                 *****************
                                 * O   R   C   A *
                                 *****************

                                            #,                                       
                                            ###                                      
                                            ####                                     
                                            #####                                    
                                            ######                                   
                                           ########,                                 
                                     ,,################,,,,,                         
                               ,,#################################,,                 
                          ,,##########################################,,             
                       ,#########################################, ''#####,          
                    ,#############################################,,   '####,        
                  ,##################################################,,,,####,       
                ,###########''''           ''''###############################       
              ,#####''   ,,,,##########,,,,          '''####'''          '####       
            ,##' ,,,,###########################,,,                        '##       
           ' ,,###''''                  '''############,,,                           
         ,,##''                                '''############,,,,        ,,,,,,###''
      ,#''                                            '''#######################'''  
     '                                                          ''''####''''         
             ,#######,   #######,   ,#######,      ##                                
            ,#'     '#,  ##    ##  ,#'     '#,    #''#        ,####,   ,####,        
            ##       ##  ##   ,#'  ##            #'  '#       #'       #'  '#        
            ##       ##  #######   ##           ,######,      #####,   #    #        
            '#,     ,#'  ##    ##  '#,     ,#' ,#      #,     #,   #   #,  ,#        
             '#######'   ##     ##  '#######'  #'      '#     '####' # '####'        



                #########################################################
                #                        -***-                          #
                #          Department of theory and spectroscopy        #
                #                                                       #
                #                      Frank Neese                      #
                #                                                       #
                #     Directorship, Architecture, Infrastructure        #
                #                    SHARK, DRIVERS                     #
                #        Core code/Algorithms in most modules           #
                #                                                       #
                #        Max Planck Institute fuer Kohlenforschung      #
                #                Kaiser Wilhelm Platz 1                 #
                #                 D-45470 Muelheim/Ruhr                 #
                #                      Germany                          #
                #                                                       #
                #                  All rights reserved                  #
                #                        -***-                          #
                #########################################################


                         Program Version 6.0.0  -   RELEASE  -


 With contributions from (in alphabetic order):
   Daniel Aravena         : Magnetic Suceptibility
   Michael Atanasov       : Ab Initio Ligand Field Theory (pilot matlab implementation)
   Alexander A. Auer      : GIAO ZORA, VPT2 properties, NMR spectrum
   Ute Becker             : All parallelization in ORCA, NUMFREQ, NUMCALC
   Giovanni Bistoni       : ED, misc. LED, open-shell LED, HFLD
   Martin Brehm           : Molecular dynamics
   Dmytro Bykov           : pre 5.0 version of the SCF Hessian
   Marcos Casanova-Páez   : Triplet and SCS-CIS(D). UHF-(DLPNO)-IP/EA/STEOM-CCSD. UHF-CVS-IP/STEOM-CCSD
   Vijay G. Chilkuri      : MRCI spin determinant printing, contributions to CSF-ICE
   Pauline Colinet        : FMM embedding
   Dipayan Datta          : RHF DLPNO-CCSD density
   Achintya Kumar Dutta   : EOM-CC, STEOM-CC
   Nicolas Foglia         : Exact transition moments, OPA infrastructure, MCD improvements
   Dmitry Ganyushin       : Spin-Orbit,Spin-Spin,Magnetic field MRCI
   Miquel Garcia          : C-PCM and meta-GGA Hessian, CCSD/C-PCM, Gaussian charge scheme
   Tiago L. C. Gouveia    : GS-ROHF, GS-ROCIS
   Yang Guo               : DLPNO-NEVPT2, F12-NEVPT2, CIM, IAO-localization
   Andreas Hansen         : Spin unrestricted coupled pair/coupled cluster methods
   Ingolf Harden          : AUTO-CI MPn and infrastructure 
   Benjamin Helmich-Paris : MC-RPA, TRAH-(SCF,CASSCF), AVAS, COSX integrals, SCF dyn. polar.
   Lee Huntington         : MR-EOM, pCC
   Robert Izsak           : Overlap fitted RIJCOSX, COSX-SCS-MP3, EOM
   Riya Kayal             : Wick's Theorem for AUTO-CI, AUTO-CI UHF-CCSDT
   Emily Kempfer          : AUTO-CI, RHF CISDT and CCSDT
   Christian Kollmar      : KDIIS, OOCD, Brueckner-CCSD(T), CCSD density, CASPT2, CASPT2-K, improved NEVPT2
   Axel Koslowski         : Symmetry handling
   Simone Kossmann        : Meta GGA functionals, TD-DFT gradient, OOMP2, (MP2 Hessian; deprecated post 5.0)
   Lucas Lang             : DCDCAS
   Marvin Lechner         : AUTO-CI (C++ implementation), FIC-MRCC
   Spencer Leger          : CASSCF response
   Dagmar Lenk            : GEPOL surface, SMD, ORCA-2-JSON
   Dimitrios Liakos       : Extrapolation schemes; Compound Job, initial MDCI parallelization
   Dimitrios Manganas     : Further ROCIS development; embedding schemes. LFT, Crystal Embedding
   Dimitrios Pantazis     : SARC Basis sets
   Anastasios Papadopoulos: AUTO-CI, single reference methods and gradients
   Taras Petrenko         : pre 6.0 DFT Hessian and TD-DFT gradient, (ASA, deprecated), ECA, 1-Electron XAS/XES, NRVS
   Peter Pinski           : DLPNO-MP2, DLPNO-MP2 Gradient
   Christoph Reimann      : Effective Core Potentials
   Marius Retegan         : Local ZFS, SOC
   Christoph Riplinger    : Optimizer, TS searches, QM/MM, DLPNO-CCSD(T), (RO)-DLPNO pert. Triples
   Michael Roemelt        : Original ROCIS implementation
   Masaaki Saitow         : Open-shell DLPNO-CCSD energy and density
   Barbara Sandhoefer     : DKH picture change effects
   Kantharuban Sivalingam : CASSCF convergence/infrastructure, NEVPT2 and variants, FIC-MRCI
   Bernardo de Souza      : ESD, SOC TD-DFT
   Georgi Stoychev        : AutoAux, RI-MP2 NMR, DLPNO-MP2 response, X2C
   Van Anh Tran           : RI-MP2 g-tensors
   Willem Van den Heuvel  : Paramagnetic NMR
   Zikuan Wang            : NOTCH, Electric field optimization 
   Frank Wennmohs         : Technical directorship and infrastructure
   Hang Xu                : AUTO-CI-Response properties 


 We gratefully acknowledge several colleagues who have allowed us to
 interface, adapt or use parts of their codes:
   Stefan Grimme, W. Hujo, H. Kruse, P. Pracht,  : VdW corrections, initial TS optimization,
                  C. Bannwarth, S. Ehlert,         DFT functionals, gCP, sTDA/sTD-DF
                  L. Wittmann, M. Mueller
   Ed Valeev, F. Pavosevic, A. Kumar             : LibInt (2-el integral package), F12 methods
   Garnet Chan, S. Sharma, J. Yang, R. Olivares  : DMRG
   Ulf Ekstrom                                   : XCFun DFT Library
   Mihaly Kallay                                 : mrcc  (arbitrary order and MRCC methods)
   Frank Weinhold                                : gennbo (NPA and NBO analysis)
   Simon Mueller                                 : openCOSMO-RS
   Christopher J. Cramer and Donald G. Truhlar   : smd solvation model
   Lars Goerigk                                  : TD-DFT with DH, B97 family of functionals
   V. Asgeirsson, H. Jonsson                     : NEB implementation
   FAccTs GmbH                                   : IRC, NEB, NEB-TS, DLPNO-Multilevel, CI-OPT
                                                   MM, QMMM, 2- and 3-layer-ONIOM, Crystal-QMMM,
                                                   LR-CPCM, SF, NACMEs, symmetry and pop. for TD-DFT,
                                                   nearIR, NL-DFT gradient (VV10), updates on ESD,
                                                   ML-optimized integration grids, MBIS, APM,
                                                   GOAT, DOCKER, SOLVATOR, interface openCOSMO-RS
   S Lehtola, MJT Oliveira, MAL Marques          : LibXC Library
   Liviu Ungur et al                             : ANISO software


 Your calculation uses the libint2 library for the computation of 2-el integrals
 For citations please refer to: http://libint.valeyev.net

 Your ORCA version has been built with support for libXC version: 6.2.2
 For citations please refer to: https://libxc.gitlab.io

 This ORCA versions uses:
   CBLAS   interface :  Fast vector & matrix operations
   LAPACKE interface :  Fast linear algebra routines
   SCALAPACK package :  Parallel linear algebra routines
   Shared memory     :  Shared parallel matrices
   BLAS/LAPACK       :  OpenBLAS 0.3.27  USE64BITINT DYNAMIC_ARCH NO_AFFINITY SkylakeX SINGLE_THREADED
        Core in use  :  SkylakeX
   Copyright (c) 2011-2014, The OpenBLAS Project


Your calculation utilizes the geometrical counterpoise correction gCP
Please cite in your paper:
H.Kruse, S. Grimme J.Chem.Phys., 136, (2012), 154101 
   

Your calculation utilizes the atom-pairwise dispersion correction
based on EEQ partial charges (D4)


Your calculation utilizes the SMD solvation module
Please cite in your paper:
A.V. Marenich, C.J. Cramer, D.G. Truhlar J. Phys. Chem. B, 113, (2009), 6378 

================================================================================

----- Orbital basis set information -----
Your calculation utilizes the basis: def2-mTZVPP
   Stefan Grimme, Andreas Hansen, Sebastian Ehlert, and Jan-Michael Mewes 
   J. Chem. Phys. 154, 064103 (2021). DOI: 10.1063/5.0040021

----- AuxJ basis set information -----
Your calculation utilizes the auxiliary basis: def2/J
   F. Weigend, Phys. Chem. Chem. Phys. 8, 1057 (2006).

================================================================================
                                        WARNINGS
                       Please study these warnings very carefully!
================================================================================

Using LibXC functional ID 497 : Re-regularized SCAN exchange by Furness et al
[ 1]  J. W. Furness, A. D. Kaplan, J. Ning, J. P. Perdew, and J. Sun.,  J. Phys. Chem. Lett. 11, 8208-8215 (2020)
[ 2]  J. W. Furness, A. D. Kaplan, J. Ning, J. P. Perdew, and J. Sun.,  J. Phys. Chem. Lett. 11, 9248-9248 (2020)
Using LibXC functional ID 498 : Re-regularized SCAN correlation by Furness et al
[ 1]  J. W. Furness, A. D. Kaplan, J. Ning, J. P. Perdew, and J. Sun.,  J. Phys. Chem. Lett. 11, 8208-8215 (2020)
[ 2]  J. W. Furness, A. D. Kaplan, J. Ning, J. P. Perdew, and J. Sun.,  J. Phys. Chem. Lett. 11, 9248-9248 (2020)
Using LibXC functional ID 497 : Re-regularized SCAN exchange by Furness et al
[ 1]  J. W. Furness, A. D. Kaplan, J. Ning, J. P. Perdew, and J. Sun.,  J. Phys. Chem. Lett. 11, 8208-8215 (2020)
[ 2]  J. W. Furness, A. D. Kaplan, J. Ning, J. P. Perdew, and J. Sun.,  J. Phys. Chem. Lett. 11, 9248-9248 (2020)
Using LibXC functional ID 498 : Re-regularized SCAN correlation by Furness et al
[ 1]  J. W. Furness, A. D. Kaplan, J. Ning, J. P. Perdew, and J. Sun.,  J. Phys. Chem. Lett. 11, 8208-8215 (2020)
[ 2]  J. W. Furness, A. D. Kaplan, J. Ning, J. P. Perdew, and J. Sun.,  J. Phys. Chem. Lett. 11, 9248-9248 (2020)

================================================================================
                                       INPUT FILE
================================================================================
NAME = sp_solv.inp
|  1> ! r2scan-3c def2/J RI DEFGRID2 scfconv6 printgap
|  2> %output
|  3>     printlevel normal
|  4> end
|  5> %cpcm
|  6>     smd true
|  7>     smdsolvent "water"
|  8> end
|  9> * xyz 0 1
| 10> C -1.8305360842 -1.2657594187 -0.3884214196
| 11> C -2.4370999292 -0.0624184719 0.323072368
| 12> C -1.5873222073 1.2020603721 0.200093841
| 13> C -0.2040580371 1.0609723815 0.8431500905
| 14> C 0.7786918728 0.3724471277 -0.066418068
| 15> O 0.9022971893 0.584699253 -1.2538472449
| 16> O 1.5420028672 -0.493953904 0.5973708855
| 17> C 2.5499502228 -1.1863494927 -0.1432941353
| 18> H -2.5242553226 -2.1029069338 -0.3759531722
| 19> H -1.602090786 -1.0209003523 -1.424098642
| 20> H -0.9108910219 -1.5827686935 0.0981944627
| 21> H -3.4197636281 0.144263343 -0.1053148709
| 22> H -2.5782898278 -0.3009424499 1.3792931512
| 23> H -2.1166824566 2.0255731355 0.6802890554
| 24> H -1.4515320192 1.4533587176 -0.8541720379
| 25> H -0.2525372777 0.518945327 1.7868035861
| 26> H 0.2055872184 2.0554956216 1.033486744
| 27> H 3.0557759867 -1.8239270029 0.5746570543
| 28> H 3.2417441411 -0.4713427873 -0.5898775006
| 29> H 2.0896050395 -1.7767127817 -0.936728075
| 30> *
| 31> 
| 32>                          ****END OF INPUT****
================================================================================

                       ****************************
                       * Single Point Calculation *
                       ****************************

---------------------------------
CARTESIAN COORDINATES (ANGSTROEM)
---------------------------------
  C     -1.830536   -1.265759   -0.388421
  C     -2.437100   -0.062418    0.323072
  C     -1.587322    1.202060    0.200094
  C     -0.204058    1.060972    0.843150
  C      0.778692    0.372447   -0.066418
  O      0.902297    0.584699   -1.253847
  O      1.542003   -0.493954    0.597371
  C      2.549950   -1.186349   -0.143294
  H     -2.524255   -2.102907   -0.375953
  H     -1.602091   -1.020900   -1.424099
  H     -0.910891   -1.582769    0.098194
  H     -3.419764    0.144263   -0.105315
  H     -2.578290   -0.300942    1.379293
  H     -2.116682    2.025573    0.680289
  H     -1.451532    1.453359   -0.854172
  H     -0.252537    0.518945    1.786804
  H      0.205587    2.055496    1.033487
  H      3.055776   -1.823927    0.574657
  H      3.241744   -0.471343   -0.589878
  H      2.089605   -1.776713   -0.936728

----------------------------
CARTESIAN COORDINATES (A.U.)
----------------------------
  NO LB      ZA    FRAG     MASS         X           Y           Z
   0 C     6.0000    0    12.011   -3.459212   -2.391939   -0.734010
   1 C     6.0000    0    12.011   -4.605451   -0.117954    0.610518
   2 C     6.0000    0    12.011   -2.999604    2.271565    0.378123
   3 C     6.0000    0    12.011   -0.385614    2.004947    1.593323
   4 C     6.0000    0    12.011    1.471514    0.703823   -0.125512
   5 O     8.0000    0    15.999    1.705095    1.104921   -2.369428
   6 O     8.0000    0    15.999    2.913963   -0.933438    1.128867
   7 C     6.0000    0    12.011    4.818708   -2.241876   -0.270787
   8 H     1.0000    0     1.008   -4.770151   -3.973918   -0.710449
   9 H     1.0000    0     1.008   -3.027513   -1.929222   -2.691156
  10 H     1.0000    0     1.008   -1.721335   -2.990999    0.185561
  11 H     1.0000    0     1.008   -6.462417    0.272618   -0.199016
  12 H     1.0000    0     1.008   -4.872262   -0.568699    2.606486
  13 H     1.0000    0     1.008   -3.999950    3.827778    1.285560
  14 H     1.0000    0     1.008   -2.742998    2.746450   -1.614151
  15 H     1.0000    0     1.008   -0.477226    0.980665    3.376569
  16 H     1.0000    0     1.008    0.388504    3.884324    1.953007
  17 H     1.0000    0     1.008    5.774580   -3.446723    1.085944
  18 H     1.0000    0     1.008    6.126009   -0.890709   -1.114707
  19 H     1.0000    0     1.008    3.948781   -3.357501   -1.770160

--------------------------------
INTERNAL COORDINATES (ANGSTROEM)
--------------------------------
 C      0   0   0     0.000000000000     0.00000000     0.00000000
 C      1   0   0     1.523867626174     0.00000000     0.00000000
 C      2   1   0     1.528447788334   113.22959429     0.00000000
 C      3   2   1     1.531942207027   113.08210574   297.53313015
 C      4   3   2     1.505715326842   112.20236939    82.24222359
 O      5   4   3     1.212566406064   125.31304158    42.88522052
 O      5   4   3     1.331882200756   111.74361700   221.24539739
 C      7   5   4     1.429669261035   117.44523462   181.96907232
 H      1   2   3     1.087298395546   110.40624181   186.86633706
 H      1   2   3     1.088471646698   110.49672894   306.95332712
 H      1   2   3     1.087675014804   110.96610148    67.08611037
 H      2   1   3     1.091723840629   108.93929327   120.43202364
 H      2   1   3     1.091984715283   109.30438965   237.90443923
 H      3   2   1     1.090404965577   108.63032701   176.58530186
 H      3   2   1     1.092275778843   109.70105715    58.54755183
 H      4   3   2     1.089323406678   111.67081070   319.58008136
 H      4   3   2     1.092297465033   109.14290120   199.51160809
 H      8   7   5     1.085273557950   105.68778000   179.42997723
 H      8   7   5     1.090527448681   109.99028717    59.39413701
 H      8   7   5     1.090863840016   109.96185091   299.41339659

---------------------------
INTERNAL COORDINATES (A.U.)
---------------------------
 C      0   0   0     0.000000000000     0.00000000     0.00000000
 C      1   0   0     2.879692477817     0.00000000     0.00000000
 C      2   1   0     2.888347729950   113.22959429     0.00000000
 C      3   2   1     2.894951224276   113.08210574   297.53313015
 C      4   3   2     2.845389603378   112.20236939    82.24222359
 O      5   4   3     2.291418426654   125.31304158    42.88522052
 O      5   4   3     2.516892602074   111.74361700   221.24539739
 C      7   5   4     2.701683365442   117.44523462   181.96907232
 H      1   2   3     2.054696193435   110.40624181   186.86633706
 H      1   2   3     2.056913316798   110.49672894   306.95332712
 H      1   2   3     2.055407900688   110.96610148    67.08611037
 H      2   1   3     2.063059072662   108.93929327   120.43202364
 H      2   1   3     2.063552054312   109.30438965   237.90443923
 H      3   2   1     2.060566760008   108.63032701   176.58530186
 H      3   2   1     2.064102084730   109.70105715    58.54755183
 H      4   3   2     2.058522909892   111.67081070   319.58008136
 H      4   3   2     2.064143065689   109.14290120   199.51160809
 H      8   7   5     2.050869804912   105.68778000   179.42997723
 H      8   7   5     2.060798219531   109.99028717    59.39413701
 H      8   7   5     2.061433907028   109.96185091   299.41339659

---------------------
BASIS SET INFORMATION
---------------------
There are 3 groups of distinct atoms

 Group   1 Type C   : 11s6p1d contracted to 5s3p1d pattern {62111/411/1}
 Group   2 Type O   : 11s6p2d contracted to 5s3p2d pattern {62111/411/11}
 Group   3 Type H   : 4s1p contracted to 2s1p pattern {31/1}

Atom   0C    basis set group =>   1
Atom   1C    basis set group =>   1
Atom   2C    basis set group =>   1
Atom   3C    basis set group =>   1
Atom   4C    basis set group =>   1
Atom   5O    basis set group =>   2
Atom   6O    basis set group =>   2
Atom   7C    basis set group =>   1
Atom   8H    basis set group =>   3
Atom   9H    basis set group =>   3
Atom  10H    basis set group =>   3
Atom  11H    basis set group =>   3
Atom  12H    basis set group =>   3
Atom  13H    basis set group =>   3
Atom  14H    basis set group =>   3
Atom  15H    basis set group =>   3
Atom  16H    basis set group =>   3
Atom  17H    basis set group =>   3
Atom  18H    basis set group =>   3
Atom  19H    basis set group =>   3
---------------------------------
AUXILIARY/J BASIS SET INFORMATION
---------------------------------
There are 3 groups of distinct atoms

 Group   1 Type C   : 12s5p4d2f1g contracted to 6s4p3d1f1g pattern {711111/2111/211/2/1}
 Group   2 Type O   : 12s5p4d2f1g contracted to 6s4p3d1f1g pattern {711111/2111/211/2/1}
 Group   3 Type H   : 5s2p1d contracted to 3s1p1d pattern {311/2/1}

Atom   0C    basis set group =>   1
Atom   1C    basis set group =>   1
Atom   2C    basis set group =>   1
Atom   3C    basis set group =>   1
Atom   4C    basis set group =>   1
Atom   5O    basis set group =>   2
Atom   6O    basis set group =>   2
Atom   7C    basis set group =>   1
Atom   8H    basis set group =>   3
Atom   9H    basis set group =>   3
Atom  10H    basis set group =>   3
Atom  11H    basis set group =>   3
Atom  12H    basis set group =>   3
Atom  13H    basis set group =>   3
Atom  14H    basis set group =>   3
Atom  15H    basis set group =>   3
Atom  16H    basis set group =>   3
Atom  17H    basis set group =>   3
Atom  18H    basis set group =>   3
Atom  19H    basis set group =>   3

Checking for AutoStart:
The File: sp_solv.gbw exists
Trying to determine its content:
     ... Fine, the file contains calculation information
     ... Fine, the calculation information was read
     ... Fine, the file contains a basis set
     ... Fine, the basis set was read
     ... Fine, the file contains a geometry
     ... Fine, the geometry was read
     ... Fine, the file contains a set of orbitals
     ... Fine, the orbitals can be read
     => possible old guess file was deleted
     => GBW file was renamed to GES file
     => GES file is set as startup file
     => Guess is set to MORead
     ... now leaving AutoStart

------------------------------------------------------------------------------
                             ORCA STARTUP CALCULATIONS
                           -- RI-GTO INTEGRALS CHOSEN --
------------------------------------------------------------------------------
------------------------------------------------------------------------------
                   ___                                                        
                  /   \      - P O W E R E D   B Y -                         
                 /     \                                                     
                 |  |  |   _    _      __       _____    __    __             
                 |  |  |  | |  | |    /  \     |  _  \  |  |  /  |          
                  \  \/   | |  | |   /    \    | | | |  |  | /  /          
                 / \  \   | |__| |  /  /\  \   | |_| |  |  |/  /          
                |  |  |   |  __  | /  /__\  \  |    /   |      \           
                |  |  |   | |  | | |   __   |  |    \   |  |\   \          
                \     /   | |  | | |  |  |  |  | |\  \  |  | \   \       
                 \___/    |_|  |_| |__|  |__|  |_| \__\ |__|  \__/        
                                                                              
                      - O R C A' S   B I G   F R I E N D -                    
                                      &                                       
                       - I N T E G R A L  F E E D E R -                       
                                                                              
 v1 FN, 2020, v2 2021, v3 2022-2024                                           
------------------------------------------------------------------------------


----------------------
SHARK INTEGRAL PACKAGE
----------------------

Number of atoms                             ...     20
Number of basis functions                   ...    222
Number of shells                            ...    110
Maximum angular momentum                    ...      2
Integral batch strategy                     ... SHARK/LIBINT Hybrid
RI-J (if used) integral strategy            ... SPLIT-RIJ (Revised 2003 algorithm where possible)
Printlevel                                  ...      1
Contraction scheme used                     ... SEGMENTED contraction
Prescreening option                         ... SCHWARTZ
   Thresh                                   ... 1.000e-10
   Tcut                                     ... 1.000e-11
   Tpresel                                  ... 1.000e-11 
Coulomb Range Separation                    ... NOT USED
Exchange Range Separation                   ... NOT USED
Multipole approximations                    ... NOT USED
Finite Nucleus Model                        ... NOT USED
CABS basis                                  ... NOT available
Auxiliary Coulomb fitting basis             ... AVAILABLE
   # of basis functions in Aux-J            ...    524
   # of shells in Aux-J                     ...    180
   Maximum angular momentum in Aux-J        ...      4
Auxiliary J/K fitting basis                 ... NOT available
Auxiliary Correlation fitting basis         ... NOT available
Auxiliary 'external' fitting basis          ... NOT available

Checking pre-screening integrals            ... done (  0.0 sec) Dimension = 110
Check shell pair data                       ... done (  0.0 sec)
Shell pair information
Shell pair cut-off parameter TPreSel        ...   1.0e-11
Total number of shell pairs                 ...      6105
Shell pairs after pre-screening             ...      5474
Total number of primitive shell pairs       ...     21533
Primitive shell pairs kept                  ...     13678
          la=0 lb=0:   1835 shell pairs
          la=1 lb=0:   2064 shell pairs
          la=1 lb=1:    606 shell pairs
          la=2 lb=0:    580 shell pairs
          la=2 lb=1:    336 shell pairs
          la=2 lb=2:     53 shell pairs

Calculating one electron integrals          ... done (  0.0 sec)
Calculating RI/J V-Matrix + Cholesky decomp.... done (  0.1 sec)
Calculating Nuclear repulsion               ... done (  0.0 sec) ENN=    401.562321947471 Eh

Diagonalization of the overlap matrix:
Smallest eigenvalue                        ... 9.431e-05
Time for diagonalization                   ...    0.005 sec
Threshold for overlap eigenvalues          ... 1.000e-07
Number of eigenvalues below threshold      ... 0
Time for construction of square roots      ...    0.020 sec
Total time needed                          ...    0.033 sec

-------------------
DFT GRID GENERATION
-------------------

General Integration Accuracy     IntAcc      ... 4.388
Radial Grid Type                 RadialGrid  ... OptM3 with GC (2021)
Angular Grid (max. ang.)         AngularGrid ... 4 (Lebedev-302)
Angular grid pruning method      GridPruning ... 4 (adaptive)
Weight generation scheme         WeightScheme... mBecke (2022)
Basis function cutoff            BFCut       ... 1.0000e-10
Integration weight cutoff        WCut        ... 1.0000e-14
Partially contracted basis set               ... off
Rotationally invariant grid construction     ... off
Angular grids for H and He will be reduced by one unit
Diffuse basis detected: some atoms will have their outermost
                        angular grid increased by 1.

Total number of grid points                  ...    87241
Total number of batches                      ...     1377
Average number of points per batch           ...       63
Average number of grid points per atom       ...     4362
Initializing property integral containers    ... done (  0.0 sec)

SHARK setup successfully completed in   1.2 seconds

Maximum memory used throughout the entire STARTUP-calculation: 39.6 MB
-------------------------------------------------------------------------------
                                 ORCA GUESS
                   Start orbitals & Density for SCF / CASSCF
-------------------------------------------------------------------------------

------------
SCF SETTINGS
------------
Hamiltonian:
 Density Functional     Method          .... DFT(GTOs)
  Functional kind                       .... Exchange
  Functional name                       .... Re-regularized SCAN exchange by Furness et al
  Functional family                     .... MGGA
  Functional refs                              
    [ 0] J. W. Furness, A. D. Kaplan, J. Ning, J. P. Perdew, and J. Sun.,  J. Phys. Chem. Lett. 11, 8208-8215 (2020), doi: 10.1021/acs.jpclett.0c02405
    [ 1] J. W. Furness, A. D. Kaplan, J. Ning, J. P. Perdew, and J. Sun.,  J. Phys. Chem. Lett. 11, 9248-9248 (2020), doi: 10.1021/acs.jpclett.0c03077
  Functional external parameters        .... 6
    Parameter  0 _c1        =  6.670000e-01 : c1 parameter        
    Parameter  1 _c2        =  8.000000e-01 : c2 parameter        
    Parameter  2 _d         =  1.240000e+00 : d parameter         
    Parameter  3 _k1        =  6.500000e-02 : k1 parameter        
    Parameter  4 _eta       =  1.000000e-03 : eta parameter       
    Parameter  5 _dp2       =  3.610000e-01 : dp2 parameter       
  Functional kind                       .... Correlation
  Functional name                       .... Re-regularized SCAN correlation by Furness et al
  Functional family                     .... MGGA
  Functional refs                              
    [ 0] J. W. Furness, A. D. Kaplan, J. Ning, J. P. Perdew, and J. Sun.,  J. Phys. Chem. Lett. 11, 8208-8215 (2020), doi: 10.1021/acs.jpclett.0c02405
    [ 1] J. W. Furness, A. D. Kaplan, J. Ning, J. P. Perdew, and J. Sun.,  J. Phys. Chem. Lett. 11, 9248-9248 (2020), doi: 10.1021/acs.jpclett.0c03077
  Functional external parameters        .... 1
    Parameter  0 _eta       =  1.000000e-03 : Regularization parameter
 Gradients option       PostSCFGGA      .... off
 RI-approximation to the Coulomb term is turned on
   Number of AuxJ basis functions       .... 524


General Settings:
 Integral files         IntName         .... sp_solv
 Hartree-Fock type      HFTyp           .... RHF
 Total Charge           Charge          ....    0
 Multiplicity           Mult            ....    1
 Number of Electrons    NEL             ....   64
 Basis Dimension        Dim             ....  222
 Nuclear Repulsion      ENuc            ....    401.5623219475 Eh

Convergence Acceleration:
 AO-DIIS                CNVDIIS         .... on
   Start iteration      DIISMaxIt       ....    12
   Startup error        DIISStart       ....  0.200000
   # of expansion vecs  DIISMaxEq       ....     5
   Bias factor          DIISBfac        ....   1.050
   Max. coefficient     DIISMaxC        ....  10.000
 MO-DIIS                CNVKDIIS        .... off
 Trust-Rad. Augm. Hess. CNVTRAH         .... auto
   Auto Start mean grad. ratio tolernc. ....  1.125000
   Auto Start start iteration           ....     1
   Auto Start num. interpolation iter.  ....    10
   Max. Number of Micro iterations      ....    24
   Max. Number of Macro iterations      .... Maxiter - #DIIS iter
   Number of Davidson start vectors     ....     2
   Converg. threshold    (grad. norm)   ....   3.330e-04
   Grad. Scal. Fac. for Micro threshold ....   0.100
   Minimum threshold for Micro iter.    ....   1.000e-02
   NR start threshold (gradient norm)   ....   1.000e-04
   Initial trust radius                 ....   0.400
   Minimum AH scaling param. (alpha)    ....   1.000
   Maximum AH scaling param. (alpha)    .... 1000.000
   Quad. conv. algorithm                .... NR
   White noise on init. David. guess    .... on
   Maximum white noise                  ....   0.010
   Pseudo random numbers                .... off
   Inactive MOs                         .... canonical
   Orbital update algorithm             .... Taylor
   Preconditioner                       .... Diag
   Full preconditioner red. dimension   ....   250
   COSX micro iterations for RIJONX calc.... off
 SOSCF                  CNVSOSCF        .... on
   Start iteration      SOSCFMaxIt      ....   150
   Startup grad/error   SOSCFStart      ....  0.003300
   Hessian update       SOSCFHessUp     .... L-BFGS
 Level Shifting         CNVShift        .... on
   Level shift para.    LevelShift      ....    0.2500
   Turn off err/grad.   ShiftErr        ....    0.0010
 Zerner damping         CNVZerner       .... off
 Static damping         CNVDamp         .... on
   Fraction old density DampFac         ....    0.7000
   Max. Damping (<1)    DampMax         ....    0.9800
   Min. Damping (>=0)   DampMin         ....    0.0000
   Turn off err/grad.   DampErr         ....    0.1000

SCF Procedure:
 Maximum # iterations   MaxIter         ....   125
 SCF integral mode      SCFMode         .... Direct
   Integral package                     .... SHARK and LIBINT hybrid scheme
 Reset frequency        DirectResetFreq ....    20
 Integral Threshold     Thresh          ....  1.000e-10 Eh
 Primitive CutOff       TCut            ....  1.000e-11 Eh

Convergence Tolerance:
 Convergence Check Mode ConvCheckMode   .... Total+1el-Energy
 Convergence forced     ConvForced      .... 0
 Energy Change          TolE            ....  1.000e-06 Eh
 1-El. energy change                    ....  1.000e-03 Eh
 Orbital Gradient       TolG            ....  3.330e-04
 Orbital Rotation angle TolX            ....  3.330e-04
 DIIS Error             TolErr          ....  1.000e-06

---------------------
INITIAL GUESS: MOREAD
---------------------
Guess MOs are being read from file: sp_solv.ges
Input Geometry matches current geometry (good)
Atom 0: N(Shells)= 9 and 6 - projection required
Input basis set needs projection
NBasis(read)= 136
NBasis(calc)= 222
Basis set overlap was calculated
Using GuessMode=FMatrix for the initial guess
C*T matrix was formed
Effective Fockian was calculated
Effective Fockian was diagonalized
Initial density was built
                      ------------------
                      INITIAL GUESS DONE (   0.0 sec)
                      ------------------
             **** ENERGY FILE WAS UPDATED (sp_solv.en.tmp) ****
Finished Guess after   0.3 sec
Maximum memory used throughout the entire GUESS-calculation: 15.4 MB

-------------------------------------------------------------------------------------------
                                      ORCA LEAN-SCF
                              memory conserving SCF solver
-------------------------------------------------------------------------------------------

--------------------
CPCM SOLVATION MODEL
--------------------
CPCM parameters:
  Epsilon                                         ...      78.3550
  Refrac                                          ...       1.3328
  Rsolv                                           ...       1.3000
  Surface type                                    ... GAUSSIAN VDW
  Discretization scheme                           ... Constant charge density
    Threshold for H atoms                         ...       5.0000 (charges/Ang^2)
    Threshold for non-H atoms                     ...       5.0000 (charges/Ang^2)
  Epsilon function type                           ...         CPCM
Solvent:                                          ... WATER
SMD-CDS solvent descriptors:
  Soln                                            ...       1.3328
  Soln25                                          ...       1.3323
  Sola                                            ...       0.0000
  Solb                                            ...       0.0000
  Solg                                            ...       0.0000
  Solc                                            ...       0.0000
  Solh                                            ...       0.0000
Radii:
  Scheme                                          ... Element-dependent radii
  Radius for C  used is    3.4960 Bohr (=   1.8500 Ang.)
  Radius for O  used is    2.8724 Bohr (=   1.5200 Ang.)
  Radius for H  used is    2.2677 Bohr (=   1.2000 Ang.)
Calculating surface                               ...        done! (  0.0s)
Cavity surface points                             ...         1483
Cavity Volume                                     ...     874.1456
Cavity Surface-area                               ...     572.9084
Calculating surface distance matrix               ...        done! (  0.0s)
Performing Cholesky decomposition & store         ...        done! (  0.1s)
Overall time for CPCM initialization              ...                 0.1s

----------------------------------------D-I-I-S--------------------------------------------
Iteration    Energy (Eh)           Delta-E    RMSDP     MaxDP     DIISErr   Damp  Time(sec)
-------------------------------------------------------------------------------------------
               ***  Starting incremental Fock matrix formation  ***
    1    -386.0504961842069065     0.00e+00  5.61e-03  2.97e-01  6.26e-01  0.700   3.5
    2    -386.1098536953915641    -5.94e-02  4.31e-03  1.99e-01  4.41e-01  0.700   3.2
    3    -386.1518384531627248    -4.20e-02  3.11e-03  1.36e-01  3.10e-01  0.700   3.1
    4    -386.1813418532627225    -2.95e-02  2.20e-03  9.36e-02  2.17e-01  0.700   3.1
                               ***Turning on AO-DIIS***
    5    -386.2020551812623239    -2.07e-02  1.58e-03  6.39e-02  1.52e-01  0.700   3.1
    6    -386.2165763536493728    -1.45e-02  1.12e-03  4.43e-02  1.06e-01  0.700   3.1
    7    -386.2267689435186071    -1.02e-02  7.85e-04  3.09e-02  7.41e-02  0.700   3.0
    8    -386.2339122018964304    -7.14e-03  1.84e-03  7.17e-02  5.20e-02  0.000   3.0
                              *** Initializing SOSCF ***
---------------------------------------S-O-S-C-F--------------------------------------
Iteration    Energy (Eh)           Delta-E    RMSDP     MaxDP     MaxGrad    Time(sec)
--------------------------------------------------------------------------------------
    9    -386.2506118694291786    -1.67e-02  1.16e-05  3.23e-04  1.82e-04     3.2
               *** Restarting incremental Fock matrix formation ***
   10    -386.2506120645907117    -1.95e-07  6.64e-06  1.73e-04  5.39e-05     3.5
                  *** Gradient check signals convergence ***

               *****************************************************
               *                     SUCCESS                       *
               *           SCF CONVERGED AFTER  10 CYCLES          *
               *****************************************************


SMD CDS free energy correction energy :                 4.98869     Kcal/mol
Total Energy after SMD CDS correction =              -386.242662083 Eh
             **** ENERGY FILE WAS UPDATED (sp_solv.en.tmp) ****

----------------
TOTAL SCF ENERGY
----------------

Total Energy       :       -386.24266208294915 Eh          -10510.19716 eV

Components:
Nuclear Repulsion  :        401.56232194747059 Eh           10927.06630 eV
Electronic Energy  :       -787.79716830421444 Eh          -21437.05079 eV
One Electron Energy:      -1320.54783588629630 Eh          -35933.93346 eV
Two Electron Energy:        532.75066758208186 Eh           14496.88267 eV
CPCM Dielectric    :         -0.01576570784683 Eh              -0.42901 eV
SMD CDS (Gcds)     :          0.00794998164159 Eh               0.21633 eV

Virial components:
Potential Energy   :       -770.88577678994943 Eh          -20976.86843 eV
Kinetic Energy     :        384.64311470700022 Eh           10466.67127 eV
Virial Ratio       :          2.00415852335526

DFT components:
N(Alpha)           :       32.000049091676 electrons
N(Beta)            :       32.000049091676 electrons
N(Total)           :       64.000098183351 electrons
E(X)               :      -52.084371602776 Eh       
E(C)               :       -2.039876383379 Eh       
E(XC)              :      -54.124247986155 Eh       

CPCM Solvation Model Properties:
Surface-charge          :         -0.04590292415711
Corrected charge        :          0.00000000000000
Outlying charge corr.   :          0.00016239132028 Eh               0.00442 eV
Free-energy (cav+disp)  :          0.00794998164159 Eh               0.21633 eV

---------------
SCF CONVERGENCE
---------------

  Last Energy change         ...    1.9516e-07  Tolerance :   1.0000e-06
  Last MAX-Density change    ...    1.7279e-04  Tolerance :   1.0000e-05
  Last RMS-Density change    ...    6.6360e-06  Tolerance :   1.0000e-06
  Last DIIS Error            ...    1.8160e-04  Tolerance :   1.0000e-06
  Last Orbital Gradient      ...    5.3937e-05  Tolerance :   3.3300e-04
  Last Orbital Rotation      ...    1.2261e-04  Tolerance :   3.3300e-04


----------------
ORBITAL ENERGIES
----------------

  NO   OCC          E(Eh)            E(eV) 
   0   2.0000     -19.003987      -517.1248 
   1   2.0000     -18.944175      -515.4972 
   2   2.0000     -10.162190      -276.5273 
   3   2.0000     -10.076121      -274.1852 
   4   2.0000     -10.036074      -273.0954 
   5   2.0000     -10.024261      -272.7740 
   6   2.0000     -10.018640      -272.6211 
   7   2.0000     -10.009227      -272.3649 
   8   2.0000      -1.079166       -29.3656 
   9   2.0000      -0.989165       -26.9166 
  10   2.0000      -0.772222       -21.0132 
  11   2.0000      -0.719899       -19.5895 
  12   2.0000      -0.679317       -18.4851 
  13   2.0000      -0.616804       -16.7841 
  14   2.0000      -0.545702       -14.8493 
  15   2.0000      -0.521862       -14.2006 
  16   2.0000      -0.473623       -12.8879 
  17   2.0000      -0.462478       -12.5847 
  18   2.0000      -0.451345       -12.2817 
  19   2.0000      -0.421597       -11.4722 
  20   2.0000      -0.409336       -11.1386 
  21   2.0000      -0.390299       -10.6206 
  22   2.0000      -0.369987       -10.0679 
  23   2.0000      -0.360137        -9.7998 
  24   2.0000      -0.347202        -9.4478 
  25   2.0000      -0.333975        -9.0879 
  26   2.0000      -0.325307        -8.8521 
  27   2.0000      -0.295696        -8.0463 
  28   2.0000      -0.292711        -7.9651 
  29   2.0000      -0.286881        -7.8064 
  30   2.0000      -0.279534        -7.6065 
  31   2.0000      -0.253529        -6.8989 
  32   0.0000      -0.022517        -0.6127 
  33   0.0000       0.068964         1.8766 
  34   0.0000       0.098418         2.6781 
  35   0.0000       0.114008         3.1023 
  36   0.0000       0.128537         3.4977 
  37   0.0000       0.130394         3.5482 
  38   0.0000       0.142161         3.8684 
  39   0.0000       0.146559         3.9881 
  40   0.0000       0.154520         4.2047 
  41   0.0000       0.165606         4.5064 
  42   0.0000       0.175967         4.7883 
*Only the first 10 virtual orbitals were printed.

                    ********************************
                    * MULLIKEN POPULATION ANALYSIS *
                    ********************************

-----------------------
MULLIKEN ATOMIC CHARGES
-----------------------
   0 C :   -0.524993
   1 C :   -0.287315
   2 C :   -0.255865
   3 C :   -0.315362
   4 C :    0.369889
   5 O :   -0.500076
   6 O :   -0.203097
   7 C :   -0.329517
   8 H :    0.161510
   9 H :    0.163642
  10 H :    0.165745
  11 H :    0.154348
  12 H :    0.154850
  13 H :    0.161747
  14 H :    0.163813
  15 H :    0.185405
  16 H :    0.201194
  17 H :    0.178389
  18 H :    0.177672
  19 H :    0.178021
Sum of atomic charges:    0.0000000

--------------------------------
MULLIKEN REDUCED ORBITAL CHARGES
--------------------------------
  0 C s       :     3.324194  s :     3.324194
      pz      :     1.055958  p :     3.173610
      px      :     1.076892
      py      :     1.040761
      dz2     :     0.007308  d :     0.027189
      dxz     :     0.003865
      dyz     :     0.003959
      dx2y2   :     0.004404
      dxy     :     0.007652

  1 C s       :     3.259492  s :     3.259492
      pz      :     1.043973  p :     2.990615
      px      :     1.037728
      py      :     0.908914
      dz2     :     0.008875  d :     0.037207
      dxz     :     0.004419
      dyz     :     0.006576
      dx2y2   :     0.008690
      dxy     :     0.008647

  2 C s       :     3.205571  s :     3.205571
      pz      :     1.069994  p :     3.013924
      px      :     0.930123
      py      :     1.013807
      dz2     :     0.007831  d :     0.036370
      dxz     :     0.005954
      dyz     :     0.005305
      dx2y2   :     0.007908
      dxy     :     0.009372

  3 C s       :     3.217312  s :     3.217312
      pz      :     0.981279  p :     3.063439
      px      :     0.960797
      py      :     1.121364
      dz2     :     0.005954  d :     0.034610
      dxz     :     0.008754
      dyz     :     0.005997
      dx2y2   :     0.005820
      dxy     :     0.008086

  4 C s       :     3.172164  s :     3.172164
      pz      :     0.757138  p :     2.333312
      px      :     0.801604
      py      :     0.774570
      dz2     :     0.027069  d :     0.124635
      dxz     :     0.038445
      dyz     :     0.035250
      dx2y2   :     0.013265
      dxy     :     0.010605

  5 O s       :     3.833978  s :     3.833978
      pz      :     1.325863  p :     4.645017
      px      :     1.680808
      py      :     1.638346
      dz2     :     0.008656  d :     0.021081
      dxz     :     0.004295
      dyz     :     0.004768
      dx2y2   :     0.002247
      dxy     :     0.001116

  6 O s       :     3.708200  s :     3.708200
      pz      :     1.635646  p :     4.455787
      px      :     1.376695
      py      :     1.443445
      dz2     :     0.007889  d :     0.039110
      dxz     :     0.013001
      dyz     :     0.011184
      dx2y2   :     0.002558
      dxy     :     0.004478

  7 C s       :     3.345073  s :     3.345073
      pz      :     1.026475  p :     2.941683
      px      :     0.898642
      py      :     1.016566
      dz2     :     0.004186  d :     0.042761
      dxz     :     0.011022
      dyz     :     0.010769
      dx2y2   :     0.005673
      dxy     :     0.011111

  8 H s       :     0.820196  s :     0.820196
      pz      :     0.003675  p :     0.018294
      px      :     0.006554
      py      :     0.008065

  9 H s       :     0.818196  s :     0.818196
      pz      :     0.010268  p :     0.018162
      px      :     0.004012
      py      :     0.003882

 10 H s       :     0.815757  s :     0.815757
      pz      :     0.005097  p :     0.018499
      px      :     0.009043
      py      :     0.004359

 11 H s       :     0.827776  s :     0.827776
      pz      :     0.004627  p :     0.017876
      px      :     0.009602
      py      :     0.003647

 12 H s       :     0.827287  s :     0.827287
      pz      :     0.010539  p :     0.017863
      px      :     0.003544
      py      :     0.003780

 13 H s       :     0.820270  s :     0.820270
      pz      :     0.004907  p :     0.017983
      px      :     0.005149
      py      :     0.007927

 14 H s       :     0.818184  s :     0.818184
      pz      :     0.010675  p :     0.018003
      px      :     0.003545
      py      :     0.003784

 15 H s       :     0.796707  s :     0.796707
      pz      :     0.009449  p :     0.017888
      px      :     0.003175
      py      :     0.005263

 16 H s       :     0.780496  s :     0.780496
      pz      :     0.003771  p :     0.018310
      px      :     0.004563
      py      :     0.009976

 17 H s       :     0.803740  s :     0.803740
      pz      :     0.006493  p :     0.017871
      px      :     0.004975
      py      :     0.006403

 18 H s       :     0.804462  s :     0.804462
      pz      :     0.004873  p :     0.017866
      px      :     0.006558
      py      :     0.006435

 19 H s       :     0.804120  s :     0.804120
      pz      :     0.008050  p :     0.017859
      px      :     0.003958
      py      :     0.005851


------------------------
MULLIKEN OVERLAP CHARGES
------------------------
B(  0-C ,  1-C ) :   0.3671 B(  0-C ,  2-C ) :  -0.2605 B(  0-C ,  3-C ) :   0.0609 
B(  0-C ,  8-H ) :   0.7579 B(  0-C ,  9-H ) :   0.8355 B(  0-C , 10-H ) :   0.8457 
B(  0-C , 12-H ) :  -0.1029 B(  1-C ,  2-C ) :   0.5507 B(  1-C ,  3-C ) :  -0.2611 
B(  1-C ,  9-H ) :  -0.0989 B(  1-C , 10-H ) :  -0.0950 B(  1-C , 11-H ) :   0.7925 
B(  1-C , 12-H ) :   0.9163 B(  1-C , 13-H ) :  -0.0722 B(  2-C ,  3-C ) :   0.1929 
B(  2-C ,  4-C ) :  -0.0569 B(  2-C , 11-H ) :  -0.0935 B(  2-C , 12-H ) :  -0.0971 
B(  2-C , 13-H ) :   0.8113 B(  2-C , 14-H ) :   0.8581 B(  2-C , 15-H ) :  -0.0796 
B(  2-C , 16-H ) :  -0.0576 B(  3-C ,  4-C ) :   0.2609 B(  3-C ,  5-O ) :  -0.1689 
B(  3-C ,  6-O ) :  -0.0790 B(  3-C , 10-H ) :   0.0539 B(  3-C , 13-H ) :  -0.0736 
B(  3-C , 14-H ) :  -0.1182 B(  3-C , 15-H ) :   0.8568 B(  3-C , 16-H ) :   0.7329 
B(  4-C ,  5-O ) :   0.9316 B(  4-C ,  6-O ) :   0.4237 B(  4-C ,  7-C ) :  -0.2026 
B(  4-C , 15-H ) :  -0.1254 B(  5-O ,  6-O ) :  -0.2223 B(  5-O ,  7-C ) :   0.0569 
B(  6-O ,  7-C ) :   0.3393 B(  6-O , 17-H ) :  -0.0776 B(  6-O , 18-H ) :  -0.0609 
B(  6-O , 19-H ) :  -0.0628 B(  7-C , 17-H ) :   0.7897 B(  7-C , 18-H ) :   0.8183 
B(  7-C , 19-H ) :   0.8192 B(  9-H , 10-H ) :  -0.0515 B( 18-H , 19-H ) :  -0.0594 



                     *******************************
                     * LOEWDIN POPULATION ANALYSIS *
                     *******************************

----------------------
LOEWDIN ATOMIC CHARGES
----------------------
   0 C :   -0.425895
   1 C :   -0.310818
   2 C :   -0.289754
   3 C :   -0.226747
   4 C :    0.353099
   5 O :   -0.493044
   6 O :   -0.613716
   7 C :   -0.044138
   8 H :    0.154184
   9 H :    0.156436
  10 H :    0.160371
  11 H :    0.156281
  12 H :    0.155891
  13 H :    0.162681
  14 H :    0.168595
  15 H :    0.187389
  16 H :    0.196446
  17 H :    0.188198
  18 H :    0.182270
  19 H :    0.182272

-------------------------------
LOEWDIN REDUCED ORBITAL CHARGES
-------------------------------
  0 C s       :     2.970838  s :     2.970838
      pz      :     1.141286  p :     3.391993
      px      :     1.140660
      py      :     1.110047
      dz2     :     0.017174  d :     0.063064
      dxz     :     0.009268
      dyz     :     0.008969
      dx2y2   :     0.009554
      dxy     :     0.018098

  1 C s       :     2.937294  s :     2.937294
      pz      :     1.130063  p :     3.293254
      px      :     1.103732
      py      :     1.059459
      dz2     :     0.020242  d :     0.080271
      dxz     :     0.009400
      dyz     :     0.013558
      dx2y2   :     0.018260
      dxy     :     0.018811

  2 C s       :     2.932332  s :     2.932332
      pz      :     1.131128  p :     3.278587
      px      :     1.044691
      py      :     1.102768
      dz2     :     0.018335  d :     0.078834
      dxz     :     0.012727
      dyz     :     0.010926
      dx2y2   :     0.016127
      dxy     :     0.020720

  3 C s       :     2.919562  s :     2.919562
      pz      :     1.079425  p :     3.234333
      px      :     1.039470
      py      :     1.115438
      dz2     :     0.013109  d :     0.072852
      dxz     :     0.017878
      dyz     :     0.013521
      dx2y2   :     0.013110
      dxy     :     0.015233

  4 C s       :     2.742164  s :     2.742164
      pz      :     0.990241  p :     2.634476
      px      :     0.838240
      py      :     0.805995
      dz2     :     0.064181  d :     0.270261
      dxz     :     0.081265
      dyz     :     0.076342
      dx2y2   :     0.024477
      dxy     :     0.023996

  5 O s       :     3.542296  s :     3.542296
      pz      :     1.493465  p :     4.727929
      px      :     1.635452
      py      :     1.599012
      dz2     :     0.080962  d :     0.222819
      dxz     :     0.059289
      dyz     :     0.054417
      dx2y2   :     0.013008
      dxy     :     0.015144

  6 O s       :     3.470225  s :     3.470225
      pz      :     1.643692  p :     4.668034
      px      :     1.489704
      py      :     1.534638
      dz2     :     0.083552  d :     0.475457
      dxz     :     0.095221
      dyz     :     0.087641
      dx2y2   :     0.086285
      dxy     :     0.122759

  7 C s       :     2.908938  s :     2.908938
      pz      :     1.039551  p :     3.032600
      px      :     0.954513
      py      :     1.038535
      dz2     :     0.008830  d :     0.102600
      dxz     :     0.027817
      dyz     :     0.027622
      dx2y2   :     0.011405
      dxy     :     0.026927

  8 H s       :     0.801887  s :     0.801887
      pz      :     0.008152  p :     0.043929
      px      :     0.016069
      py      :     0.019708

  9 H s       :     0.799736  s :     0.799736
      pz      :     0.025832  p :     0.043828
      px      :     0.009035
      py      :     0.008962

 10 H s       :     0.794980  s :     0.794980
      pz      :     0.012133  p :     0.044649
      px      :     0.022420
      py      :     0.010096

 11 H s       :     0.800409  s :     0.800409
      pz      :     0.011013  p :     0.043310
      px      :     0.023627
      py      :     0.008670

 12 H s       :     0.800818  s :     0.800818
      pz      :     0.026068  p :     0.043291
      px      :     0.008288
      py      :     0.008935

 13 H s       :     0.793457  s :     0.793457
      pz      :     0.011991  p :     0.043862
      px      :     0.012345
      py      :     0.019527

 14 H s       :     0.787048  s :     0.787048
      pz      :     0.027215  p :     0.044357
      px      :     0.008022
      py      :     0.009119

 15 H s       :     0.768110  s :     0.768110
      pz      :     0.023900  p :     0.044501
      px      :     0.007327
      py      :     0.013274

 16 H s       :     0.758312  s :     0.758312
      pz      :     0.008658  p :     0.045242
      px      :     0.011324
      py      :     0.025261

 17 H s       :     0.770865  s :     0.770865
      pz      :     0.016707  p :     0.040936
      px      :     0.010252
      py      :     0.013976

 18 H s       :     0.775987  s :     0.775987
      pz      :     0.010735  p :     0.041743
      px      :     0.014576
      py      :     0.016431

 19 H s       :     0.776044  s :     0.776044
      pz      :     0.018395  p :     0.041683
      px      :     0.010212
      py      :     0.013076


---------------------------------
LOEWDIN BOND ORDERS (THRESH 0.050000)
---------------------------------
B(  0-C ,  1-C ) :   1.1410 B(  0-C ,  2-C ) :   0.0634 B(  0-C ,  8-H ) :   0.9259 
B(  0-C ,  9-H ) :   0.9239 B(  0-C , 10-H ) :   0.9103 B(  1-C ,  2-C ) :   1.1137 
B(  1-C ,  3-C ) :   0.0632 B(  1-C , 11-H ) :   0.8934 B(  1-C , 12-H ) :   0.8945 
B(  2-C ,  3-C ) :   1.0764 B(  2-C ,  4-C ) :   0.0722 B(  2-C , 13-H ) :   0.8865 
B(  2-C , 14-H ) :   0.8770 B(  3-C ,  4-C ) :   0.9343 B(  3-C ,  5-O ) :   0.1809 
B(  3-C ,  6-O ) :   0.1857 B(  3-C , 15-H ) :   0.8586 B(  3-C , 16-H ) :   0.8514 
B(  4-C ,  5-O ) :   2.1348 B(  4-C ,  6-O ) :   1.4612 B(  4-C ,  7-C ) :   0.0908 
B(  4-C , 16-H ) :   0.0502 B(  5-O ,  6-O ) :   0.4535 B(  5-O ,  7-C ) :   0.0694 
B(  6-O ,  7-C ) :   1.3578 B(  6-O , 17-H ) :   0.1005 B(  6-O , 18-H ) :   0.0990 
B(  6-O , 19-H ) :   0.0991 B(  7-C , 17-H ) :   0.8597 B(  7-C , 18-H ) :   0.8547 
B(  7-C , 19-H ) :   0.8543 

------------------------------------------
LOEWDIN REDUCED ORBITAL POPULATIONS PER MO
-------------------------------------------
THRESHOLD FOR PRINTING IS 0.1%%
                      0         1         2         3         4         5   
                 -19.00399 -18.94418 -10.16219 -10.07612 -10.03607 -10.02426
                   2.00000   2.00000   2.00000   2.00000   2.00000   2.00000
                  --------  --------  --------  --------  --------  --------
 2 C  s               0.0       0.0       0.0       0.0       0.0      99.7
 3 C  s               0.0       0.0       0.0       0.0      99.7       0.0
 4 C  s               0.0       0.0      98.9       0.0       0.0       0.0
 5 O  s               0.0      99.9       0.0       0.0       0.0       0.0
 5 O  pz              0.0       0.0       0.2       0.0       0.0       0.0
 5 O  dz2             0.0       0.0       0.3       0.0       0.0       0.0
 6 O  s              99.9       0.0       0.0       0.0       0.0       0.0
 6 O  dxz             0.0       0.0       0.1       0.1       0.0       0.0
 6 O  dxy             0.0       0.0       0.1       0.1       0.0       0.0
 7 C  s               0.0       0.0       0.0      99.4       0.0       0.0

                      6         7         8         9        10        11   
                 -10.01864 -10.00923  -1.07917  -0.98917  -0.77222  -0.71990
                   2.00000   2.00000   2.00000   2.00000   2.00000   2.00000
                  --------  --------  --------  --------  --------  --------
 0 C  s               0.0      99.7       0.0       0.0       5.7      11.0
 0 C  pz              0.0       0.0       0.0       0.0       0.4       0.2
 0 C  px              0.0       0.0       0.0       0.0       0.1       0.3
 0 C  py              0.1       0.0       0.0       0.0       1.5       0.7
 1 C  s              99.7       0.0       0.0       0.0      13.9      12.8
 1 C  pz              0.0       0.0       0.0       0.0       0.1       0.3
 1 C  px              0.0       0.0       0.0       0.0       1.5       0.1
 1 C  py              0.0       0.1       0.0       0.0       0.5       0.5
 2 C  s               0.0       0.0       0.1       0.0      20.0       1.1
 2 C  pz              0.0       0.0       0.0       0.0       0.3       0.2
 2 C  px              0.0       0.0       0.2       0.1       0.4       3.2
 2 C  py              0.1       0.0       0.0       0.0       1.3       1.3
 3 C  s               0.0       0.0       1.0       0.2      18.0       6.1
 3 C  pz              0.0       0.0       0.6       0.5       0.6       0.1
 3 C  px              0.0       0.0       1.0       0.0       1.2       2.3
 3 C  py              0.0       0.0       0.5       0.0       0.1       0.2
 4 C  s               0.0       0.0      17.0       3.0       2.1       4.0
 4 C  pz              0.0       0.0       0.3      18.7       3.8       5.6
 4 C  px              0.0       0.0       2.7       0.9       3.3       0.6
 4 C  py              0.0       0.0       1.8       4.0       0.7       0.5
 4 C  dz2             0.0       0.0       0.2       1.5       0.0       0.0
 4 C  dxz             0.0       0.0       0.1       0.3       0.0       0.0
 4 C  dyz             0.0       0.0       0.4       0.0       0.0       0.0
 4 C  dxy             0.0       0.0       0.4       0.2       0.0       0.1
 5 O  s               0.0       0.0      14.9      40.2       1.1       1.1
 5 O  pz              0.0       0.0       3.1       3.0       0.3       0.6
 5 O  px              0.0       0.0       0.0       0.1       0.1       0.1
 5 O  py              0.0       0.0       0.2       0.1       0.0       0.0
 5 O  dz2             0.0       0.0       0.8       0.1       0.2       0.6
 5 O  dxz             0.0       0.0       0.1       0.1       0.2       0.1
 5 O  dyz             0.0       0.0       0.5       0.1       0.0       0.0
 6 O  s               0.0       0.0      39.2      19.6       0.1       0.0
 6 O  pz              0.0       0.0       2.2       0.3       0.1       0.3
 6 O  px              0.0       0.0       0.1       0.3       1.6       8.3
 6 O  py              0.0       0.0       0.5       0.3       1.0       6.2
 6 O  dz2             0.0       0.0       0.0       0.2       0.1       0.1
 6 O  dxz             0.0       0.0       0.1       0.4       0.0       0.4
 6 O  dyz             0.0       0.0       0.3       0.7       0.0       0.2
 6 O  dxy             0.0       0.0       0.5       0.0       0.2       0.0
 7 C  s               0.0       0.0       4.2       2.1       1.2      10.3
 7 C  pz              0.0       0.0       0.7       0.9       0.1       0.2
 7 C  px              0.0       0.0       2.9       0.9       0.1       0.1
 7 C  py              0.0       0.0       1.6       0.4       0.0       0.1
 7 C  dxz             0.0       0.0       0.1       0.1       0.0       0.0
 7 C  dxy             0.0       0.0       0.2       0.1       0.0       0.0
 8 H  s               0.0       0.0       0.0       0.0       0.7       1.8
 9 H  s               0.0       0.0       0.0       0.0       0.7       1.7
 9 H  pz              0.0       0.0       0.0       0.0       0.1       0.1
10 H  s               0.0       0.0       0.0       0.0       0.8       1.6
10 H  px              0.0       0.0       0.0       0.0       0.0       0.1
11 H  s               0.0       0.0       0.0       0.0       1.7       2.1
11 H  px              0.0       0.0       0.0       0.0       0.1       0.2
12 H  s               0.0       0.0       0.0       0.0       1.7       1.9
12 H  pz              0.0       0.0       0.0       0.0       0.1       0.2
13 H  s               0.0       0.0       0.0       0.0       2.5       0.2
13 H  py              0.0       0.0       0.0       0.0       0.1       0.0
14 H  s               0.0       0.0       0.0       0.0       2.5       0.2
14 H  pz              0.0       0.0       0.0       0.0       0.2       0.0
15 H  s               0.0       0.0       0.1       0.0       2.6       1.3
15 H  pz              0.0       0.0       0.0       0.0       0.2       0.1
16 H  s               0.0       0.0       0.0       0.0       2.4       1.2
16 H  py              0.0       0.0       0.0       0.0       0.2       0.1
17 H  s               0.0       0.0       0.2       0.2       0.2       2.3
18 H  s               0.0       0.0       0.3       0.1       0.2       1.8
19 H  s               0.0       0.0       0.3       0.1       0.2       1.8

                     12        13        14        15        16        17   
                  -0.67932  -0.61680  -0.54570  -0.52186  -0.47362  -0.46248
                   2.00000   2.00000   2.00000   2.00000   2.00000   2.00000
                  --------  --------  --------  --------  --------  --------
 0 C  s              11.8      13.2       4.5       0.9       0.2       0.2
 0 C  pz              0.0       0.2       1.7       1.1       0.1       0.5
 0 C  px              0.1       0.3       1.5       1.2       0.0       2.1
 0 C  py              0.0       1.5       2.5       0.6       1.0       0.2
 1 C  s               3.0       2.8       9.4       3.6       0.1       0.0
 1 C  pz              0.4       0.5       1.5       1.5       1.6       0.9
 1 C  px              0.1       0.2       3.3       1.8       0.0       2.0
 1 C  py              4.3       8.9       0.0       0.9       0.1       0.0
 1 C  dxy             0.1       0.2       0.0       0.0       0.0       0.0
 2 C  s               5.1      10.2       3.6       4.5       0.0       0.1
 2 C  pz              0.2       0.1       0.4       2.0       8.2       0.6
 2 C  px              2.1       4.4       2.0       0.1       0.0       0.3
 2 C  py              1.1       0.1       3.6       1.7       0.9       2.6
 3 C  s               7.6       5.7       0.0       2.7       2.0       0.0
 3 C  pz              0.0       0.2       0.1       2.6      15.9       0.6
 3 C  px              1.1       4.4       3.6       1.0       2.2       2.3
 3 C  py              0.8       0.1       1.5       0.1       2.4       8.5
 3 C  dxz             0.0       0.1       0.1       0.0       0.1       0.0
 3 C  dyz             0.0       0.0       0.0       0.0       0.1       0.0
 4 C  s               0.6       1.1       2.7       1.7       2.5       0.3
 4 C  pz              0.3       1.0       1.2       0.3       0.1       0.2
 4 C  px              1.6       2.3       0.3       1.0       9.2       6.3
 4 C  py              2.1       1.6       0.0       3.4       2.7      10.0
 4 C  dxz             0.1       0.1       0.0       0.0       0.0       0.0
 4 C  dyz             0.1       0.1       0.0       0.0       0.0       0.0
 5 O  s               0.0       0.3       1.0       2.2       3.1       2.0
 5 O  pz              0.0       0.3       1.6       2.1       8.1       7.5
 5 O  px              0.1       0.1       0.2       0.2       8.0       2.1
 5 O  py              0.1       0.1       0.1       1.9       0.8       2.7
 5 O  dz2             0.1       0.1       0.2       0.0       0.2       0.2
 5 O  dxz             0.1       0.1       0.0       0.0       0.9       0.3
 5 O  dyz             0.1       0.1       0.0       0.3       0.1       0.4
 6 O  s               0.6       1.3       3.0       3.1       0.4       0.1
 6 O  pz              0.2       0.1       1.4       7.0       3.4       0.1
 6 O  px              7.3       0.2       2.4       6.6       0.2      12.9
 6 O  py              5.1       0.2       3.9       5.9       3.2       9.3
 6 O  dz2             0.1       0.3       0.1       0.1       0.6       0.0
 6 O  dxz             0.8       0.2       0.2       0.1       0.5       0.1
 6 O  dyz             0.4       0.1       0.0       0.1       0.1       0.5
 6 O  dx2y2           0.1       0.1       0.0       0.0       0.0       0.1
 6 O  dxy             0.6       0.9       0.6       0.0       0.4       0.1
 7 C  s              15.3       5.0       4.0       2.3       0.0       0.1
 7 C  pz              0.0       0.2       4.0       8.5       4.2       0.5
 7 C  px              0.2       0.6       2.9       1.8       0.0       2.2
 7 C  py              0.1       0.3       0.7       0.4       1.4       8.2
 7 C  dxz             0.0       0.0       0.2       0.2       0.0       0.0
 8 H  s               2.5       3.9       1.8       0.3       0.4       0.7
 8 H  px              0.1       0.1       0.1       0.0       0.0       0.0
 8 H  py              0.1       0.2       0.0       0.0       0.0       0.0
 9 H  s               2.2       3.5       2.7       1.0       0.0       0.1
 9 H  pz              0.2       0.3       0.1       0.0       0.0       0.0
10 H  s               2.3       4.1       2.2       0.7       0.1       0.5
10 H  px              0.1       0.2       0.1       0.0       0.0       0.0
11 H  s               0.6       1.0       4.5       1.7       0.1       0.7
11 H  px              0.0       0.1       0.2       0.1       0.0       0.0
12 H  s               0.5       0.7       4.8       2.9       0.3       0.1
12 H  pz              0.1       0.0       0.3       0.2       0.0       0.0
13 H  s               1.1       3.5       1.6       2.1       1.0       0.5
13 H  py              0.1       0.2       0.0       0.1       0.0       0.0
14 H  s               1.0       2.5       2.3       3.4       1.8       0.4
14 H  pz              0.1       0.2       0.2       0.2       0.0       0.0
15 H  s               1.1       1.6       0.1       2.3       5.1       1.7
15 H  pz              0.1       0.1       0.0       0.1       0.1       0.1
15 H  py              0.0       0.0       0.0       0.1       0.2       0.0
16 H  s               1.8       2.0       0.1       1.9       2.8       2.5
16 H  py              0.1       0.2       0.0       0.1       0.1       0.1
17 H  s               4.0       1.7       1.3       0.2       1.1       0.2
17 H  pz              0.1       0.1       0.1       0.1       0.0       0.0
17 H  py              0.1       0.0       0.0       0.0       0.0       0.0
18 H  s               3.2       1.6       3.1       2.8       0.8       1.5
18 H  px              0.1       0.0       0.0       0.0       0.0       0.0
18 H  py              0.1       0.1       0.1       0.1       0.0       0.0
19 H  s               3.2       1.6       2.8       3.3       0.2       2.7
19 H  pz              0.2       0.1       0.1       0.0       0.0       0.1

                     18        19        20        21        22        23   
                  -0.45135  -0.42160  -0.40934  -0.39030  -0.36999  -0.36014
                   2.00000   2.00000   2.00000   2.00000   2.00000   2.00000
                  --------  --------  --------  --------  --------  --------
 0 C  s               0.0       0.0       0.2       0.0       0.1       0.1
 0 C  pz              0.7       2.7       2.3      14.1       0.3       2.4
 0 C  px              0.0       6.0       0.0       0.0      11.0       5.2
 0 C  py              0.0       0.2      10.0       2.0       5.7       4.6
 0 C  dxy             0.0       0.0       0.0       0.0       0.1       0.0
 1 C  s               0.0       0.1       0.2       0.0       0.3       0.2
 1 C  pz              1.5       4.4       9.5       7.8       0.0       1.4
 1 C  px              0.1      12.5       0.7       0.1       8.1       1.0
 1 C  py              0.4       0.0       0.0       5.2       0.4       9.8
 2 C  s               0.2       0.2       0.3       0.0       0.0       0.0
 2 C  pz              2.2       1.5       7.0       0.7       0.1       1.7
 2 C  px              1.0       0.6       2.5       3.7       1.2      13.0
 2 C  py              0.2       6.0       7.2       0.9       1.7       0.1
 2 C  dxz             0.0       0.0       0.0       0.0       0.0       0.1
 3 C  s               0.4       0.2       0.7       0.1       0.2       0.1
 3 C  pz              0.0       0.0       0.2      13.2       0.3       0.0
 3 C  px              1.6       3.2       0.1       0.1       1.9       4.9
 3 C  py              0.4       7.9       0.4       2.0       3.7       6.0
 3 C  dxz             0.0       0.0       0.0       0.0       0.0       0.3
 4 C  s               0.8       0.0       0.4       0.1       0.0       0.4
 4 C  pz              7.0       0.1       1.0       2.7       0.2       1.1
 4 C  px              0.3       0.1       0.2       0.4       6.0       2.2
 4 C  py              0.6       0.2       0.1       0.9       3.5       3.7
 4 C  dz2             0.1       0.0       0.1       0.2       0.0       0.0
 4 C  dyz             0.1       0.0       0.1       0.0       0.1       0.0
 4 C  dx2y2           0.0       0.2       0.0       0.0       0.0       0.0
 5 O  s               8.9       0.1       0.6       0.8       0.0       0.1
 5 O  pz             23.0       0.7       6.0       6.4       0.9       0.1
 5 O  px              0.2       0.1       0.0       0.1       7.9       0.4
 5 O  py              4.6       0.0       0.0       3.2       5.7       4.0
 5 O  dz2             0.2       0.0       0.1       0.0       0.0       0.0
 5 O  dxz             0.0       0.0       0.0       0.1       0.2       0.0
 5 O  dyz             0.2       0.0       0.0       0.1       0.2       0.1
 5 O  dx2y2           0.0       0.1       0.1       0.0       0.1       0.0
 5 O  dxy             0.0       0.0       0.1       0.2       0.0       0.0
 6 O  s               1.0       0.0       0.3       0.0       0.0       0.0
 6 O  pz             16.7       0.8       5.9       0.8       0.0       0.0
 6 O  px              1.3       4.9       2.1       0.0       0.0       1.8
 6 O  py              5.3       4.8       0.1       0.0       0.1       1.0
 6 O  dz2             0.4       0.1       0.2       0.0       0.0       0.0
 6 O  dxz             0.2       0.0       0.3       0.0       0.0       0.4
 6 O  dyz             0.0       0.4       0.1       0.1       0.0       0.2
 6 O  dx2y2           0.0       0.6       0.1       0.1       2.0       0.0
 6 O  dxy             0.1       0.0       0.2       0.2       0.0       0.0
 7 C  s               0.8       0.0       0.2       0.0       0.0       0.0
 7 C  pz              0.3       1.4       4.0       4.1       0.0       5.2
 7 C  px              9.7       6.9       2.1       1.7       3.4       4.5
 7 C  py              0.9       7.0       8.5       0.6       9.7       3.3
 7 C  dxz             0.0       0.0       0.1       0.0       0.1       0.1
 7 C  dyz             0.1       0.0       0.1       0.1       0.0       0.2
 8 H  s               0.0       1.2       2.8       0.5       6.9       0.0
 8 H  py              0.0       0.1       0.0       0.0       0.1       0.0
 9 H  s               0.3       0.4       1.1       6.1       0.2       1.2
 9 H  pz              0.0       0.0       0.0       0.1       0.0       0.0
10 H  s               0.1       2.0       1.6       1.3       2.4       2.0
10 H  py              0.0       0.0       0.0       0.0       0.1       0.0
11 H  s               0.1       5.9       0.3       1.1       1.9       0.3
11 H  px              0.0       0.2       0.0       0.1       0.0       0.0
12 H  s               0.6       0.5       2.5       4.1       0.0       0.0
12 H  pz              0.0       0.0       0.1       0.1       0.0       0.0
13 H  s               0.2       0.6       7.4       0.1       0.2       3.3
13 H  py              0.0       0.0       0.1       0.0       0.0       0.1
14 H  s               1.2       0.6       0.9       0.8       0.0       1.0
15 H  s               0.0       0.3       0.1       7.3       0.4       0.4
15 H  pz              0.0       0.0       0.0       0.1       0.0       0.0
16 H  s               0.2       4.9       0.0       0.1       2.4       1.5
16 H  pz              0.0       0.0       0.0       0.1       0.0       0.0
16 H  px              0.0       0.0       0.0       0.0       0.0       0.1
16 H  py              0.0       0.1       0.0       0.0       0.0       0.0
17 H  s               3.2       0.1       6.5       2.7       0.4       7.1
17 H  pz              0.1       0.0       0.1       0.0       0.0       0.1
18 H  s               1.4       3.3       0.9       0.1       5.0       0.3
18 H  pz              0.0       0.1       0.0       0.0       0.1       0.0
18 H  px              0.0       0.0       0.1       0.0       0.0       0.1
19 H  s               0.0       4.4       0.0       1.1       3.2       1.3
19 H  pz              0.0       0.1       0.0       0.0       0.1       0.0

                     24        25        26        27        28        29   
                  -0.34720  -0.33397  -0.32531  -0.29570  -0.29271  -0.28688
                   2.00000   2.00000   2.00000   2.00000   2.00000   2.00000
                  --------  --------  --------  --------  --------  --------
 0 C  s               0.0       0.0       0.0       0.7       0.0       0.0
 0 C  pz              0.0      18.9       0.2       5.8       3.2       0.1
 0 C  px             16.6       0.4       0.4       3.8       1.7       5.3
 0 C  py              2.1       1.9       2.6       9.9       3.5       4.6
 0 C  dz2             0.0       0.2       0.0       0.0       0.3       0.1
 0 C  dxz             0.0       0.1       0.0       0.0       0.2       0.0
 0 C  dx2y2           0.1       0.0       0.0       0.0       0.0       0.2
 0 C  dxy             0.2       0.0       0.0       0.0       0.0       0.3
 1 C  s               0.2       0.0       0.0       0.2       0.1       0.4
 1 C  pz              0.3       2.6       0.5       9.0      10.2       0.0
 1 C  px              0.8       0.1       0.5       5.1       2.8      12.8
 1 C  py              0.2       0.1       1.9       5.0       6.1       8.2
 1 C  dz2             0.0       0.1       0.0       0.2       0.5       0.1
 1 C  dxz             0.0       0.0       0.0       0.0       0.2       0.0
 1 C  dyz             0.0       0.1       0.0       0.3       0.0       0.0
 1 C  dx2y2           0.0       0.0       0.0       0.2       0.2       0.3
 1 C  dxy             0.1       0.0       0.0       0.1       0.0       0.3
 2 C  s               0.7       0.1       0.0       0.0       0.3       0.4
 2 C  pz              0.0      17.4       0.0       8.2       4.3       0.0
 2 C  px              1.2       2.8       0.2       4.9       1.5       6.2
 2 C  py              1.8       0.6       0.4       4.1       4.8      13.9
 2 C  dz2             0.0       0.2       0.0       0.2       0.2       0.1
 2 C  dxz             0.0       0.0       0.0       0.0       0.2       0.0
 2 C  dyz             0.0       0.0       0.0       0.3       0.0       0.0
 2 C  dx2y2           0.0       0.0       0.0       0.2       0.2       0.1
 2 C  dxy             0.0       0.0       0.0       0.2       0.1       0.3
 3 C  s               0.1       0.1       0.2       0.1       0.4       0.1
 3 C  pz              0.0       9.6       1.1       0.1       3.3       0.0
 3 C  px              3.5       3.8       0.7       1.1       4.1       4.3
 3 C  py             10.6       1.9       1.2       0.6       0.8       4.2
 3 C  dz2             0.1       0.2       0.0       0.0       0.1       0.1
 3 C  dxz             0.0       0.0       0.0       0.2       0.0       0.0
 3 C  dyz             0.1       0.1       0.0       0.0       0.0       0.1
 3 C  dx2y2           0.2       0.1       0.0       0.0       0.0       0.0
 3 C  dxy             0.0       0.0       0.0       0.1       0.0       0.2
 4 C  s               0.1       0.0       0.5       0.4       0.0       0.0
 4 C  pz              0.2       0.6       3.6       0.7       0.0       0.0
 4 C  px              1.9       0.1       0.1       1.2       0.0       0.2
 4 C  py              2.9       0.1       0.3       0.1       0.0       0.1
 4 C  dz2             0.0       0.1       0.5       0.0       0.1       0.1
 4 C  dxz             0.2       0.1       0.1       0.0       0.1       0.1
 4 C  dyz             0.2       0.0       0.3       0.0       0.1       0.2
 4 C  dxy             0.0       0.0       0.1       0.0       0.0       0.0
 5 O  s               0.0       0.1       0.6       0.1       0.0       0.0
 5 O  pz              1.2       0.6       6.7       0.5       0.1       0.4
 5 O  px              6.8       0.3       1.4       0.4       5.1       3.2
 5 O  py              8.1       0.8       0.0       1.0       1.2       6.4
 5 O  dz2             0.0       0.0       0.3       0.2       0.0       0.0
 6 O  s               0.0       0.2       4.0       0.2       0.1       0.0
 6 O  pz              0.1       0.0      31.4       2.5       0.3       0.3
 6 O  px              0.5       0.2       1.4       0.2       2.6       0.1
 6 O  py              0.3       0.4       0.4       1.1       1.9       0.1
 6 O  dz2             0.0       0.0       1.2       0.2       0.0       0.0
 6 O  dxz             0.2       0.1       0.3       0.0       0.0       0.1
 6 O  dyz             0.0       0.0       0.1       0.0       0.2       0.0
 6 O  dx2y2           0.8       0.1       0.0       0.1       0.0       0.0
 6 O  dxy             0.1       0.0       1.3       0.2       0.3       0.0
 7 C  s               0.0       0.0       0.2       0.1       0.0       0.0
 7 C  pz              0.5       0.1      16.4       0.3       0.0       0.1
 7 C  px              3.4       0.0       0.3       0.0       0.7       0.0
 7 C  py              2.9       0.2       0.8       0.6       0.2       0.0
 7 C  dxz             0.0       0.0       0.1       0.0       0.0       0.0
 7 C  dxy             0.0       0.0       0.6       0.0       0.0       0.0
 8 H  s               7.4       0.3       0.4       0.3       0.2       7.7
 8 H  pz              0.0       0.2       0.0       0.1       0.0       0.0
 8 H  py              0.1       0.0       0.0       0.1       0.0       0.0
 9 H  s               0.6      10.3       0.0       2.0       3.9       1.2
 9 H  pz              0.0       0.1       0.0       0.0       0.0       0.0
 9 H  px              0.1       0.0       0.0       0.0       0.0       0.0
 9 H  py              0.0       0.0       0.0       0.1       0.0       0.0
10 H  s               4.9       4.7       0.2       0.6       4.9       1.7
10 H  pz              0.1       0.0       0.0       0.1       0.0       0.0
10 H  px              0.0       0.1       0.0       0.0       0.0       0.0
11 H  s               0.6       0.3       0.2       1.1       8.7       4.8
11 H  pz              0.0       0.0       0.0       0.2       0.0       0.0
11 H  px              0.0       0.0       0.0       0.0       0.1       0.0
11 H  py              0.0       0.0       0.0       0.0       0.0       0.1
12 H  s               0.5       1.3       0.1       5.9       9.1       0.6
12 H  px              0.0       0.0       0.0       0.0       0.0       0.1
[...]
 4 C  py              0.1       0.5       3.2       0.3       0.0       0.0
 4 C  dz2             0.3       0.1       0.4       5.7       0.0       0.0
 4 C  dxz             0.0       0.6       4.1       0.2       0.0       0.0
 4 C  dyz             0.3       0.5       4.2       0.6       0.0       0.0
 4 C  dx2y2           0.0       0.0       0.1       0.0       0.0       0.0
 4 C  dxy             0.0       0.5       3.4       0.0       0.0       0.0
 5 O  s               1.0       1.1       0.8      19.5       0.0       0.0
 5 O  pz              0.1       0.8       0.3      20.6       0.0       0.0
 5 O  px              0.1       0.1       0.2       0.3       0.0       0.0
 5 O  py              0.1       0.2       0.0       0.7       0.0       0.0
 5 O  dz2             0.2       1.6       0.0      29.0       0.0       0.0
 5 O  dxz             0.0       0.0       1.1       1.0       0.0       0.0
 5 O  dyz             0.1       0.5       0.5       3.1       0.0       0.0
 5 O  dxy             0.0       0.0       0.3       0.1       0.0       0.0
 6 O  s               1.0      25.7       6.2       1.4       0.0       0.0
 6 O  pz              0.5       8.6       1.0       0.3       0.0       0.0
 6 O  px              0.0       3.9      16.0       0.3       0.0       0.0
 6 O  py              0.1       1.0      13.9       0.2       0.0       0.0
 6 O  dz2             0.3       0.5       0.4       0.0       0.0       0.0
 6 O  dxz             0.0       3.9      12.5       0.5       0.0       0.0
 6 O  dyz             0.2       0.7      11.7       0.2       0.0       0.0
 6 O  dx2y2           0.2       1.0       0.5       0.1       0.0       0.0
 6 O  dxy             0.1      19.7       4.7       1.0       0.0       0.0
 7 C  s               0.0       1.8       0.7       0.2       7.8      39.9
 7 C  pz              0.1       1.9       0.5       0.0       0.0       0.0
 7 C  px              0.0       4.0       1.1       0.2       0.0       0.0
 7 C  py              0.0       1.9       0.5       0.1       0.0       0.0
 7 C  dz2             0.0       0.1       0.1       0.0       0.0       0.0
 7 C  dxz             0.0       5.0       1.1       0.4       0.0       0.0
 7 C  dyz             0.1       2.2       0.7       0.2       0.0       0.0
 7 C  dx2y2           0.0       0.7       0.2       0.0       0.0       0.0
 7 C  dxy             0.0       5.2       0.8       0.1       0.0       0.0
 8 H  s               0.5       0.0       0.0       0.0       0.0       0.0
 8 H  px              0.4       0.0       0.0       0.0       0.0       0.0
 8 H  py              0.9       0.0       0.0       0.0       0.0       0.0
 9 H  s               0.3       0.0       0.0       0.0       0.0       0.0
 9 H  pz              0.8       0.0       0.0       0.0       0.0       0.0
11 H  s               1.6       0.0       0.0       0.0       0.0       0.0
11 H  pz              0.2       0.0       0.0       0.0       0.0       0.0
11 H  px              3.4       0.0       0.0       0.0       0.0       0.0
11 H  py              0.2       0.0       0.0       0.0       0.0       0.0
12 H  s               1.1       0.0       0.0       0.0       0.0       0.0
12 H  pz              2.1       0.0       0.0       0.0       0.0       0.0
12 H  px              0.4       0.0       0.0       0.0       0.0       0.0
13 H  s               2.9       0.0       0.0       0.0       0.0       0.0
13 H  pz              1.0       0.0       0.0       0.0       0.0       0.0
13 H  px              2.1       0.0       0.0       0.0       0.0       0.0
13 H  py              3.1       0.0       0.0       0.0       0.0       0.0
14 H  s               1.7       0.0       0.0       0.0       0.0       0.0
14 H  pz              3.1       0.0       0.0       0.0       0.0       0.0
14 H  py              0.9       0.0       0.0       0.0       0.0       0.0
15 H  s               4.3       0.1       0.1       0.0       0.0       0.0
15 H  pz              8.4       0.1       0.0       0.0       0.0       0.0
15 H  py              1.1       0.0       0.1       0.0       0.0       0.0
16 H  s               3.6       0.0       0.0       0.0       0.0       0.0
16 H  pz              0.5       0.0       0.0       0.0       0.0       0.0
16 H  px              1.6       0.0       0.0       0.0       0.0       0.0
16 H  py              5.6       0.0       0.0       0.1       0.0       0.0
17 H  s               0.0       0.2       0.1       0.1       0.0       0.0
17 H  pz              0.0       0.9       0.1       0.1       0.0       0.0
18 H  s               0.0       0.3       0.0       0.0       0.0       0.0
18 H  py              0.0       0.8       0.1       0.0       0.0       0.0
19 H  s               0.1       0.3       0.0       0.0       0.0       0.0
19 H  pz              0.0       0.2       0.0       0.0       0.0       0.0
19 H  px              0.1       0.6       0.1       0.0       0.0       0.0

                    216       217       218       219       220       221   
                  22.01840  22.07701  22.16056  22.32479  43.70329  43.78253
                   0.00000   0.00000   0.00000   0.00000   0.00000   0.00000
                  --------  --------  --------  --------  --------  --------
 0 C  s              21.0      13.5       2.0       0.1       0.0       0.0
 1 C  s              23.1       1.3      27.0       0.3       0.0       0.0
 2 C  s               0.8      79.6       7.7       1.2       0.0       0.0
 3 C  s               8.3       2.5      58.7       0.4       0.0       0.0
 4 C  s               0.0       0.5       1.3      96.8       0.0       0.1
 5 O  s               0.0       0.0       0.0       0.2      68.0      31.8
 5 O  pz              0.0       0.0       0.0       0.1       0.0       0.0
 6 O  s               0.0       0.0       0.0       0.1      31.9      68.0
 7 C  s              46.5       2.2       2.8       0.4       0.0       0.0



                      *****************************
                      * MAYER POPULATION ANALYSIS *
                      *****************************

  NA   - Mulliken gross atomic population
  ZA   - Total nuclear charge
  QA   - Mulliken gross atomic charge
  VA   - Mayer's total valence
  BVA  - Mayer's bonded valence
  FA   - Mayer's free valence

  ATOM       NA         ZA         QA         VA         BVA        FA
  0 C      6.5250     6.0000    -0.5250     3.7462     3.7462     0.0000
  1 C      6.2873     6.0000    -0.2873     3.6719     3.6719     0.0000
  2 C      6.2559     6.0000    -0.2559     3.6184     3.6184    -0.0000
  3 C      6.3154     6.0000    -0.3154     3.6357     3.6357     0.0000
  4 C      5.6301     6.0000     0.3699     3.8110     3.8110    -0.0000
  5 O      8.5001     8.0000    -0.5001     1.8733     1.8733    -0.0000
  6 O      8.2031     8.0000    -0.2031     1.9599     1.9599     0.0000
  7 C      6.3295     6.0000    -0.3295     3.7532     3.7532     0.0000
  8 H      0.8385     1.0000     0.1615     0.9581     0.9581     0.0000
  9 H      0.8364     1.0000     0.1636     0.9584     0.9584     0.0000
 10 H      0.8343     1.0000     0.1657     0.9573     0.9573     0.0000
 11 H      0.8457     1.0000     0.1543     0.9563     0.9563     0.0000
 12 H      0.8451     1.0000     0.1549     0.9611     0.9611     0.0000
 13 H      0.8383     1.0000     0.1617     0.9560     0.9560    -0.0000
 14 H      0.8362     1.0000     0.1638     0.9598     0.9598    -0.0000
 15 H      0.8146     1.0000     0.1854     0.9557     0.9557     0.0000
 16 H      0.7988     1.0000     0.2012     0.9454     0.9454     0.0000
 17 H      0.8216     1.0000     0.1784     0.9501     0.9501     0.0000
 18 H      0.8223     1.0000     0.1777     0.9497     0.9497     0.0000
 19 H      0.8220     1.0000     0.1780     0.9498     0.9498     0.0000

  Mayer bond orders larger than 0.100000
B(  0-C ,  1-C ) :   0.8717 B(  0-C ,  8-H ) :   0.9591 B(  0-C ,  9-H ) :   0.9749 
B(  0-C , 10-H ) :   0.9681 B(  1-C ,  2-C ) :   0.9297 B(  1-C , 11-H ) :   0.9593 
B(  1-C , 12-H ) :   0.9965 B(  2-C ,  3-C ) :   0.8382 B(  2-C , 13-H ) :   0.9601 
B(  2-C , 14-H ) :   0.9785 B(  3-C ,  4-C ) :   0.9591 B(  3-C , 15-H ) :   0.9845 
B(  3-C , 16-H ) :   0.9112 B(  4-C ,  5-O ) :   1.7609 B(  4-C ,  6-O ) :   1.0702 
B(  6-O ,  7-C ) :   0.8352 B(  7-C , 17-H ) :   0.9589 B(  7-C , 18-H ) :   0.9574 
B(  7-C , 19-H ) :   0.9573 

-------
TIMINGS
-------

Total SCF time: 0 days 0 hours 0 min 32 sec 

Total time                  ....      32.347 sec
Sum of individual times     ....      31.858 sec  ( 98.5%)

SCF preparation             ....       0.335 sec  (  1.0%)
Fock matrix formation       ....      30.501 sec  ( 94.3%)
  Startup                   ....       0.065 sec  (  0.2% of F)
  Split-RI-J                ....       4.900 sec  ( 16.1% of F)
  XC integration            ....      19.653 sec  ( 64.4% of F)
    Basis function eval.    ....       3.433 sec  ( 17.5% of XC)
    Density eval.           ....       6.067 sec  ( 30.9% of XC)
    XC-Functional eval.     ....       2.465 sec  ( 12.5% of XC)
    XC-Potential eval.      ....       6.664 sec  ( 33.9% of XC)
  CPCM terms                ....       5.310 sec  ( 17.4% of F)
Diagonalization             ....       0.000 sec  (  0.0%)
Density matrix formation    ....       0.282 sec  (  0.9%)
Total Energy calculation    ....       0.056 sec  (  0.2%)
Population analysis         ....       0.126 sec  (  0.4%)
Orbital Transformation      ....       0.063 sec  (  0.2%)
Orbital Orthonormalization  ....       0.000 sec  (  0.0%)
DIIS solution               ....       0.440 sec  (  1.4%)
  MO trafo                  ....       0.000 sec  (  0.0 % of DIIS)
  Orb grad                  ....       0.000 sec  (  0.0 % of DIIS)
  Energy W gradient         ....       0.000 sec  (  0.0 % of DIIS)
  DIIS error                ....       0.015 sec  (  3.5 % of DIIS)
  DIIS work                 ....       0.371 sec  ( 84.2 % of DIIS)
  Form Q                    ....       0.000 sec  (  0.0 % of DIIS)
  Form QpQm                 ....       0.000 sec  (  0.0 % of DIIS)
  Exp/Cayley                ....       0.000 sec  (  0.0 % of DIIS)
  Orb update                ....       0.000 sec  (  0.0 % of DIIS)
  Wake-sleep                ....       0.024 sec  (  5.5 % of DIIS)
SOSCF solution              ....       0.057 sec  (  0.2%)
  MO trafo                  ....       0.044 sec  ( 78.3 % of SOSCF)
  Orb grad                  ....       0.001 sec  (  0.9 % of SOSCF)
  Rot update                ....       0.000 sec  (  0.1 % of SOSCF)
  Step                      ....       0.012 sec  ( 20.6 % of SOSCF)
Finished LeanSCF after  32.5 sec

Maximum memory used throughout the entire LEANSCF-calculation: 30.4 MB


-------------------------------------------------------------------------------
                          DFT DISPERSION CORRECTION                            
                                                                               
                                DFTD4 V3.4.0                                   
-------------------------------------------------------------------------------
The R2SCAN3C composite method is recognized
Using three-body term ABC
Active option DFTDOPT                   ...         5   

-------------------------   ----------------
Dispersion correction           -0.005477272
-------------------------   ----------------

------------------   -----------------
gCP correction             0.012090291
------------------   -----------------

-------------------------   --------------------
FINAL SINGLE POINT ENERGY      -386.236049063646
-------------------------   --------------------


------------------------------------------------------------------------------
                              ORCA PROPERTY CALCULATIONS
------------------------------------------------------------------------------

GBWName                                 ... sp_solv.gbw
Number of atoms                         ...     20
Number of basis functions               ...    222
Max core memory                         ...   1024 MB

Electric properties:
Dipole moment                           ... YES
Quadrupole moment                       ...  NO
Static polarizability (Dipole/Dipole)   ...  NO
Static polarizability (Dipole/Quad.)    ...  NO
Static polarizability (Quad./Quad.)     ...  NO
Static polarizability (Velocity)        ...  NO

Atomic electric properties:
Dipole moment                           ...  NO
Quadrupole moment                       ...  NO
Static polarizability                   ...  NO

Choice of electric origin               ... Center of mass
Position of electric origin             ...    -0.000026    -0.000005     0.000006

General magnetic properties:
Magnetizability                         ...  NO

EPR properties:
g-Tensor (aka g-matrix)                 ...  NO
Zero-Field splitting spin-orbit         ...  NO
Zero-field splitting spin-spin          ...  NO
Hyperfine couplings                     ...  NO (   0 nuclei)
Quadrupole couplings                    ...  NO (   0 nuclei)
Contact density                         ...  NO (   0 nuclei)

NMR properties:
Chemical shifts                         ...  NO (   0 nuclei)
Spin-rotation constants                 ...  NO (   0 nuclei)
Spin-spin couplings                     ...  NO (   0 nuclei,    0 pairs)

Choice of magnetic origin               ... GIAO
Position of magnetic origin             ...     0.000000     0.000000     0.000000

Properties with geometric perturbations:
SCF Hessian                             ...  NO
IR spectrum                             ...  NO
VCD spectrum                            ...  NO
X-ray spectroscopy properties:
SCF XES/XAS/RIXS spectra                ...  NO


-------------
DIPOLE MOMENT
-------------

Method             : SCF
Type of density    : Electron Density
Multiplicity       :   1
Irrep              :   0
Energy             :  -386.2426620829491526 Eh
Relativity type    : 
Basis              : AO
                                X                 Y                 Z
Electronic contribution:      5.901263926       2.328878610      -0.187334744
Nuclear contribution   :     -5.839803097      -2.702324052       1.178528607
                        -----------------------------------------
Total Dipole Moment    :      0.061460829      -0.373445442       0.991193862
                        -----------------------------------------
Magnitude (a.u.)       :      1.060992085
Magnitude (Debye)      :      2.696827560



--------------------
Rotational spectrum 
--------------------
 
Rotational constants in cm-1:             0.112321             0.042309             0.037922 
Rotational constants in MHz :          3367.300422          1268.386565          1136.858047 

Dipole components along the rotational axes: 
x,y,z [a.u.] :     0.057883    -0.194401    -1.041423 
x,y,z [Debye]:     0.147127    -0.494129    -2.647087 

 

Dipole moment calculation done in   0.0 sec 

Maximum memory used throughout the entire PROP-calculation: 14.1 MB

--------------------------------
SUGGESTED CITATIONS FOR THIS RUN
--------------------------------

Below you find a list of papers that are relevant to this ORCA run
We neither can nor want to force you to cite these papers, but we appreciate if you do
You receive ORCA, which is the product of decades of hard work by many enthusiastic individuals, for free
The only thing we kindly ask in return is that you cite our papers,
We deeply appreciate it, if you show your appreciation for ORCA by not just citing the generic ORCA reference.

Please note that relegating all ORCA citations to the supporting information does *not* help us.
SI sections are not indexed - citations you put there will not count into any citation statistics
But we need these citations in order to attract the funding resources that allow us to do what we are doing

Therefore, if you are a happy ORCA user, please consider citing a few of the papers listed below in the main body of your paper

In addition to the list printed below, the program has created the file sp_solv.bibtex that contains the list in bibtex format
You can import this file easily into all common literature databanks and citation aid programs


List of essential papers. We consider these as the minimum necessary citations

  1. Neese,F.
     Software update: the ORCA program system, version 5.0
     WIRES Comput. Molec. Sci., 2022 12(1)e1606
     doi.org/10.1002/wcms.1606
  2. Grimme,S.; Hansen,A.; Ehlert,S.; Mewes,J.
     r2SCAN-3c: A 'Swiss army knife' composite electronic-structure method
     J. Chem. Phys., 2021 154 064103
     doi.org/10.1063/5.0040021

List of papers to cite with high priority. The work reported in these papers was absolutely
necessary for this run to complete.
Our perspective: the developers of density functionals and basis sets usually get cited in chemistry papers
Good! But without the algorithms to do something with them, the functionals or basis sets would not do anything.
Hence, in our opinion, the algorithm design and method developments papers are equally worthy of getting cited

  1. Neese,F.
     An improvement of the resolution of the identity approximation for the formation of the Coulomb matrix
     J. Comp. Chem., 2003 24(14)1740-1747
     doi.org/10.1002/jcc.10318
  2. Garcia-Rates,M.; Neese,F.
     Effect of the Solute Cavity on the Solvation Energy and its Derivatives within the Framework of the Gaussian Charge Scheme
     J. Comput. Chem., 2020 41 922-939
     doi.org/10.1002/jcc.26139
  3. Neese,F.
     The SHARK Integral Generation and Digestion System
     J. Comp. Chem., 2022  1-16
     doi.org/10.1002/jcc.26942
  4. Lehtola,S.; Steigemann,C.; Oliveira,M.; Marques,M.
     Recent developments in Libxc - A comprehensive library of functionals for density functional theory
     Software X, 2018 7 
     doi.org/10.1016/j.softx.2017.11.002
  5. Caldeweyher,E.; Bannwarth,C.; Grimme,S.
     Extension of the D3 dispersion coefficient model
     J. Chem. Phys., 2017 147 034112-XXXX
     doi.org/10.1063/1.4993215
  6. Caldeweyher,E.; Ehlert,S.; Hansen,A.; Neugebauer,H.; Spicher,S.; Bannwarth,C.; Grimme,S.
     A generally applicable atomic-charge dependent London dispersion correction
     J. Chem. Phys., 2019 150 154122-XXXX
     doi.org/10.1063/1.5090222
  7. Caldeweyher,E.; Mewes,J.; Ehlert,S.; Grimme,S.
     Extension and evaluation of the D4 London-dispersion model for periodic systems
     Phys. Chem. Chem. Phys., 2020 22(16)8499-8512
     doi.org/10.1039/D0CP00502A

List of suggested additional citations. These are papers that are important in the 'surrounding' of 
of this run, or papers that preceded the highly important papers. If you like your results we are grateful for a citation.

  1. Neese,F.
     The ORCA program system
     WIRES Comput. Molec. Sci., 2012 2(1)73-78
     doi.org/10.1002/wcms.81
  2. Neese,F.
     Software update: the ORCA program system, version 4.0
     WIRES Comput. Molec. Sci., 2018 8(1)1-6
     doi.org/10.1002/wcms.1327
  3. Neese,F.; Wennmohs,F.; Becker,U.; Riplinger,C.
     The ORCA quantum chemistry program package
     J. Chem. Phys., 2020 152 Art. No. L224108
     doi.org/10.1063/5.0004608

List of optional additional citations

  1. Neese,F.
     Approximate second-order SCF convergence for spin unrestricted wavefunctions
     Chem. Phys. Lett., 2000 325(1-3)93-98
     doi.org/10.1016/s0009-2614(00)00662-x

Timings for individual modules:

Sum of individual times          ...       34.170 sec (=   0.570 min)
Startup calculation              ...        1.251 sec (=   0.021 min)   3.7 %
SCF iterations                   ...       32.809 sec (=   0.547 min)  96.0 %
Property calculations            ...        0.110 sec (=   0.002 min)   0.3 %
                             ****ORCA TERMINATED NORMALLY****
TOTAL RUN TIME: 0 days 0 hours 0 minutes 34 seconds 991 msec
