
                                 *****************
                                 * O   R   C   A *
                                 *****************

                                            #,                                       
                                            ###                                      
                                            ####                                     
                                            #####                                    
                                            ######                                   
                                           ########,                                 
                                     ,,################,,,,,                         
                               ,,#################################,,                 
                          ,,##########################################,,             
                       ,#########################################, ''#####,          
                    ,#############################################,,   '####,        
                  ,##################################################,,,,####,       
                ,###########''''           ''''###############################       
              ,#####''   ,,,,##########,,,,          '''####'''          '####       
            ,##' ,,,,###########################,,,                        '##       
           ' ,,###''''                  '''############,,,                           
         ,,##''                                '''############,,,,        ,,,,,,###''
      ,#''                                            '''#######################'''  
     '                                                          ''''####''''         
             ,#######,   #######,   ,#######,      ##                                
            ,#'     '#,  ##    ##  ,#'     '#,    #''#        ,####,   ,####,        
            ##       ##  ##   ,#'  ##            #'  '#       #'       #'  '#        
            ##       ##  #######   ##           ,######,      #####,   #    #        
            '#,     ,#'  ##    ##  '#,     ,#' ,#      #,     #,   #   #,  ,#        
             '#######'   ##     ##  '#######'  #'      '#     '####' # '####'        



                #########################################################
                #                        -***-                          #
                #          Department of theory and spectroscopy        #
                #                                                       #
                #                      Frank Neese                      #
                #                                                       #
                #     Directorship, Architecture, Infrastructure        #
                #                    SHARK, DRIVERS                     #
                #        Core code/Algorithms in most modules           #
                #                                                       #
                #        Max Planck Institute fuer Kohlenforschung      #
                #                Kaiser Wilhelm Platz 1                 #
                #                 D-45470 Muelheim/Ruhr                 #
                #                      Germany                          #
                #                                                       #
                #                  All rights reserved                  #
                #                        -***-                          #
                #########################################################


                         Program Version 6.0.0  -   RELEASE  -


 With contributions from (in alphabetic order):
   Daniel Aravena         : Magnetic Suceptibility
   Michael Atanasov       : Ab Initio Ligand Field Theory (pilot matlab implementation)
   Alexander A. Auer      : GIAO ZORA, VPT2 properties, NMR spectrum
   Ute Becker             : All parallelization in ORCA, NUMFREQ, NUMCALC
   Giovanni Bistoni       : ED, misc. LED, open-shell LED, HFLD
   Martin Brehm           : Molecular dynamics
   Dmytro Bykov           : pre 5.0 version of the SCF Hessian
   Marcos Casanova-Páez   : Triplet and SCS-CIS(D). UHF-(DLPNO)-IP/EA/STEOM-CCSD. UHF-CVS-IP/STEOM-CCSD
   Vijay G. Chilkuri      : MRCI spin determinant printing, contributions to CSF-ICE
   Pauline Colinet        : FMM embedding
   Dipayan Datta          : RHF DLPNO-CCSD density
   Achintya Kumar Dutta   : EOM-CC, STEOM-CC
   Nicolas Foglia         : Exact transition moments, OPA infrastructure, MCD improvements
   Dmitry Ganyushin       : Spin-Orbit,Spin-Spin,Magnetic field MRCI
   Miquel Garcia          : C-PCM and meta-GGA Hessian, CCSD/C-PCM, Gaussian charge scheme
   Tiago L. C. Gouveia    : GS-ROHF, GS-ROCIS
   Yang Guo               : DLPNO-NEVPT2, F12-NEVPT2, CIM, IAO-localization
   Andreas Hansen         : Spin unrestricted coupled pair/coupled cluster methods
   Ingolf Harden          : AUTO-CI MPn and infrastructure 
   Benjamin Helmich-Paris : MC-RPA, TRAH-(SCF,CASSCF), AVAS, COSX integrals, SCF dyn. polar.
   Lee Huntington         : MR-EOM, pCC
   Robert Izsak           : Overlap fitted RIJCOSX, COSX-SCS-MP3, EOM
   Riya Kayal             : Wick's Theorem for AUTO-CI, AUTO-CI UHF-CCSDT
   Emily Kempfer          : AUTO-CI, RHF CISDT and CCSDT
   Christian Kollmar      : KDIIS, OOCD, Brueckner-CCSD(T), CCSD density, CASPT2, CASPT2-K, improved NEVPT2
   Axel Koslowski         : Symmetry handling
   Simone Kossmann        : Meta GGA functionals, TD-DFT gradient, OOMP2, (MP2 Hessian; deprecated post 5.0)
   Lucas Lang             : DCDCAS
   Marvin Lechner         : AUTO-CI (C++ implementation), FIC-MRCC
   Spencer Leger          : CASSCF response
   Dagmar Lenk            : GEPOL surface, SMD, ORCA-2-JSON
   Dimitrios Liakos       : Extrapolation schemes; Compound Job, initial MDCI parallelization
   Dimitrios Manganas     : Further ROCIS development; embedding schemes. LFT, Crystal Embedding
   Dimitrios Pantazis     : SARC Basis sets
   Anastasios Papadopoulos: AUTO-CI, single reference methods and gradients
   Taras Petrenko         : pre 6.0 DFT Hessian and TD-DFT gradient, (ASA, deprecated), ECA, 1-Electron XAS/XES, NRVS
   Peter Pinski           : DLPNO-MP2, DLPNO-MP2 Gradient
   Christoph Reimann      : Effective Core Potentials
   Marius Retegan         : Local ZFS, SOC
   Christoph Riplinger    : Optimizer, TS searches, QM/MM, DLPNO-CCSD(T), (RO)-DLPNO pert. Triples
   Michael Roemelt        : Original ROCIS implementation
   Masaaki Saitow         : Open-shell DLPNO-CCSD energy and density
   Barbara Sandhoefer     : DKH picture change effects
   Kantharuban Sivalingam : CASSCF convergence/infrastructure, NEVPT2 and variants, FIC-MRCI
   Bernardo de Souza      : ESD, SOC TD-DFT
   Georgi Stoychev        : AutoAux, RI-MP2 NMR, DLPNO-MP2 response, X2C
   Van Anh Tran           : RI-MP2 g-tensors
   Willem Van den Heuvel  : Paramagnetic NMR
   Zikuan Wang            : NOTCH, Electric field optimization 
   Frank Wennmohs         : Technical directorship and infrastructure
   Hang Xu                : AUTO-CI-Response properties 


 We gratefully acknowledge several colleagues who have allowed us to
 interface, adapt or use parts of their codes:
   Stefan Grimme, W. Hujo, H. Kruse, P. Pracht,  : VdW corrections, initial TS optimization,
                  C. Bannwarth, S. Ehlert,         DFT functionals, gCP, sTDA/sTD-DF
                  L. Wittmann, M. Mueller
   Ed Valeev, F. Pavosevic, A. Kumar             : LibInt (2-el integral package), F12 methods
   Garnet Chan, S. Sharma, J. Yang, R. Olivares  : DMRG
   Ulf Ekstrom                                   : XCFun DFT Library
   Mihaly Kallay                                 : mrcc  (arbitrary order and MRCC methods)
   Frank Weinhold                                : gennbo (NPA and NBO analysis)
   Simon Mueller                                 : openCOSMO-RS
   Christopher J. Cramer and Donald G. Truhlar   : smd solvation model
   Lars Goerigk                                  : TD-DFT with DH, B97 family of functionals
   V. Asgeirsson, H. Jonsson                     : NEB implementation
   FAccTs GmbH                                   : IRC, NEB, NEB-TS, DLPNO-Multilevel, CI-OPT
                                                   MM, QMMM, 2- and 3-layer-ONIOM, Crystal-QMMM,
                                                   LR-CPCM, SF, NACMEs, symmetry and pop. for TD-DFT,
                                                   nearIR, NL-DFT gradient (VV10), updates on ESD,
                                                   ML-optimized integration grids, MBIS, APM,
                                                   GOAT, DOCKER, SOLVATOR, interface openCOSMO-RS
   S Lehtola, MJT Oliveira, MAL Marques          : LibXC Library
   Liviu Ungur et al                             : ANISO software


 Your calculation uses the libint2 library for the computation of 2-el integrals
 For citations please refer to: http://libint.valeyev.net

 Your ORCA version has been built with support for libXC version: 6.2.2
 For citations please refer to: https://libxc.gitlab.io

 This ORCA versions uses:
   CBLAS   interface :  Fast vector & matrix operations
   LAPACKE interface :  Fast linear algebra routines
   SCALAPACK package :  Parallel linear algebra routines
   Shared memory     :  Shared parallel matrices
   BLAS/LAPACK       :  OpenBLAS 0.3.27  USE64BITINT DYNAMIC_ARCH NO_AFFINITY SkylakeX SINGLE_THREADED
        Core in use  :  SkylakeX
   Copyright (c) 2011-2014, The OpenBLAS Project


Your calculation utilizes the geometrical counterpoise correction gCP
Please cite in your paper:
H.Kruse, S. Grimme J.Chem.Phys., 136, (2012), 154101 
   

Your calculation utilizes the atom-pairwise dispersion correction
based on EEQ partial charges (D4)


================================================================================

----- Orbital basis set information -----
Your calculation utilizes the basis: def2-mTZVPP
   Stefan Grimme, Andreas Hansen, Sebastian Ehlert, and Jan-Michael Mewes 
   J. Chem. Phys. 154, 064103 (2021). DOI: 10.1063/5.0040021

----- AuxJ basis set information -----
Your calculation utilizes the auxiliary basis: def2/J
   F. Weigend, Phys. Chem. Chem. Phys. 8, 1057 (2006).

================================================================================
                                        WARNINGS
                       Please study these warnings very carefully!
================================================================================

Using LibXC functional ID 497 : Re-regularized SCAN exchange by Furness et al
[ 1]  J. W. Furness, A. D. Kaplan, J. Ning, J. P. Perdew, and J. Sun.,  J. Phys. Chem. Lett. 11, 8208-8215 (2020)
[ 2]  J. W. Furness, A. D. Kaplan, J. Ning, J. P. Perdew, and J. Sun.,  J. Phys. Chem. Lett. 11, 9248-9248 (2020)
Using LibXC functional ID 498 : Re-regularized SCAN correlation by Furness et al
[ 1]  J. W. Furness, A. D. Kaplan, J. Ning, J. P. Perdew, and J. Sun.,  J. Phys. Chem. Lett. 11, 8208-8215 (2020)
[ 2]  J. W. Furness, A. D. Kaplan, J. Ning, J. P. Perdew, and J. Sun.,  J. Phys. Chem. Lett. 11, 9248-9248 (2020)
Using LibXC functional ID 497 : Re-regularized SCAN exchange by Furness et al
[ 1]  J. W. Furness, A. D. Kaplan, J. Ning, J. P. Perdew, and J. Sun.,  J. Phys. Chem. Lett. 11, 8208-8215 (2020)
[ 2]  J. W. Furness, A. D. Kaplan, J. Ning, J. P. Perdew, and J. Sun.,  J. Phys. Chem. Lett. 11, 9248-9248 (2020)
Using LibXC functional ID 498 : Re-regularized SCAN correlation by Furness et al
[ 1]  J. W. Furness, A. D. Kaplan, J. Ning, J. P. Perdew, and J. Sun.,  J. Phys. Chem. Lett. 11, 8208-8215 (2020)
[ 2]  J. W. Furness, A. D. Kaplan, J. Ning, J. P. Perdew, and J. Sun.,  J. Phys. Chem. Lett. 11, 9248-9248 (2020)

================================================================================
                                       INPUT FILE
================================================================================
NAME = sp_gas.inp
|  1> ! r2scan-3c def2/J RI DEFGRID2 scfconv6 printgap
|  2> %output
|  3>     printlevel normal
|  4> end
|  5> * xyz 0 1
|  6> C 3.6286510867 -0.5133281939 0.1470067362
|  7> C 2.1614554672 -0.5136196449 -0.2679718178
|  8> C 1.4189937567 0.6888519592 0.3127887496
|  9> C -0.0248633019 0.8141613103 -0.1807763114
| 10> C -0.9049309842 -0.3068994121 0.3443282408
| 11> Cl -2.6149362744 -0.0494759298 -0.1533975509
| 12> H 3.7173954153 -0.5477765733 1.2303632927
| 13> H 4.1261071782 0.3861443391 -0.2083165944
| 14> H 4.1431558297 -1.3765693966 -0.2673058996
| 15> H 2.0939798772 -0.4870414957 -1.3574309061
| 16> H 1.6957079932 -1.4386430299 0.0743212697
| 17> H 1.9531840145 1.5977261756 0.0297679511
| 18> H 1.4253135451 0.6269458145 1.4026206653
| 19> H -0.0422214974 0.8083105223 -1.2719834949
| 20> H -0.434127896 1.7683558413 0.1560150313
| 21> H -0.6207052152 -1.2757217839 -0.0599204661
| 22> H -0.9066918364 -0.3373360398 1.4326857692
| 23> *
| 24> 
| 25>                          ****END OF INPUT****
================================================================================

                       ****************************
                       * Single Point Calculation *
                       ****************************

---------------------------------
CARTESIAN COORDINATES (ANGSTROEM)
---------------------------------
  C      3.628651   -0.513328    0.147007
  C      2.161455   -0.513620   -0.267972
  C      1.418994    0.688852    0.312789
  C     -0.024863    0.814161   -0.180776
  C     -0.904931   -0.306899    0.344328
  Cl    -2.614936   -0.049476   -0.153398
  H      3.717395   -0.547777    1.230363
  H      4.126107    0.386144   -0.208317
  H      4.143156   -1.376569   -0.267306
  H      2.093980   -0.487041   -1.357431
  H      1.695708   -1.438643    0.074321
  H      1.953184    1.597726    0.029768
  H      1.425314    0.626946    1.402621
  H     -0.042221    0.808311   -1.271983
  H     -0.434128    1.768356    0.156015
  H     -0.620705   -1.275722   -0.059920
  H     -0.906692   -0.337336    1.432686

----------------------------
CARTESIAN COORDINATES (A.U.)
----------------------------
  NO LB      ZA    FRAG     MASS         X           Y           Z
   0 C     6.0000    0    12.011    6.857157   -0.970050    0.277802
   1 C     6.0000    0    12.011    4.084559   -0.970600   -0.506393
   2 C     6.0000    0    12.011    2.681510    1.301742    0.591085
   3 C     6.0000    0    12.011   -0.046985    1.538542   -0.341618
   4 C     6.0000    0    12.011   -1.710072   -0.579956    0.650686
   5 Cl   17.0000    0    35.453   -4.941513   -0.093496   -0.289879
   6 H     1.0000    0     1.008    7.024859   -1.035148    2.325050
   7 H     1.0000    0     1.008    7.797213    0.729707   -0.393661
   8 H     1.0000    0     1.008    7.829430   -2.601339   -0.505135
   9 H     1.0000    0     1.008    3.957048   -0.920375   -2.565173
  10 H     1.0000    0     1.008    3.204424   -2.718641    0.140447
  11 H     1.0000    0     1.008    3.690983    3.019265    0.056253
  12 H     1.0000    0     1.008    2.693452    1.184756    2.650569
  13 H     1.0000    0     1.008   -0.079787    1.527486   -2.403700
  14 H     1.0000    0     1.008   -0.820383    3.341708    0.294826
  15 H     1.0000    0     1.008   -1.172963   -2.410765   -0.113233
  16 H     1.0000    0     1.008   -1.713399   -0.637473    2.707384

--------------------------------
INTERNAL COORDINATES (ANGSTROEM)
--------------------------------
 C      0   0   0     0.000000000000     0.00000000     0.00000000
 C      1   0   0     1.524752527823     0.00000000     0.00000000
 C      2   1   0     1.527897309007   111.34565163     0.00000000
 C      3   2   1     1.531023222744   113.58747589   174.42017826
 C      4   3   2     1.518891391600   111.99753895    68.03813463
 Cl     5   4   3     1.799476564303   110.45043228   175.58097878
 H      1   2   3     1.087530999656   110.46479853    59.61884088
 H      1   2   3     1.087551410215   110.57179114   299.72296856
 H      1   2   3     1.086993774036   110.58358631   179.64107277
 H      2   1   3     1.091870165514   109.33075831   120.84074622
 H      2   1   3     1.090758236313   109.00377917   238.57241208
 H      3   2   1     1.091564173628   108.59828255    54.18312476
 H      3   2   1     1.091607033211   109.39269450   296.94747744
 H      4   3   2     1.091360919217   109.68758906   306.34226212
 H      4   3   2     1.091518721549   109.00690782   188.41340835
 H      5   4   3     1.087574407981   112.18276736   293.39897605
 H      5   4   3     1.088784459170   111.53995246    57.72479439

---------------------------
INTERNAL COORDINATES (A.U.)
---------------------------
 C      0   0   0     0.000000000000     0.00000000     0.00000000
 C      1   0   0     2.881364699590     0.00000000     0.00000000
 C      2   1   0     2.887307474779   111.34565163     0.00000000
 C      3   2   1     2.893214595660   113.58747589   174.42017826
 C      4   3   2     2.870288757295   111.99753895    68.03813463
 Cl     5   4   3     3.400517890942   110.45043228   175.58097878
 H      1   2   3     2.055135751500   110.46479853    59.61884088
 H      1   2   3     2.055174321866   110.57179114   299.72296856
 H      1   2   3     2.054120542205   110.58358631   179.64107277
 H      2   1   3     2.063335586621   109.33075831   120.84074622
 H      2   1   3     2.061234344950   109.00377917   238.57241208
 H      3   2   1     2.062757345757   108.59828255    54.18312476
 H      3   2   1     2.062838338631   109.39269450   296.94747744
 H      4   3   2     2.062373250584   109.68758906   306.34226212
 H      4   3   2     2.062671453775   109.00690782   188.41340835
 H      5   4   3     2.055217781345   112.18276736   293.39897605
 H      5   4   3     2.057504446702   111.53995246    57.72479439

---------------------
BASIS SET INFORMATION
---------------------
There are 3 groups of distinct atoms

 Group   1 Type C   : 11s6p1d contracted to 5s3p1d pattern {62111/411/1}
 Group   2 Type Cl  : 14s9p2d contracted to 5s4p2d pattern {73211/6111/11}
 Group   3 Type H   : 4s1p contracted to 2s1p pattern {31/1}

Atom   0C    basis set group =>   1
Atom   1C    basis set group =>   1
Atom   2C    basis set group =>   1
Atom   3C    basis set group =>   1
Atom   4C    basis set group =>   1
Atom   5Cl   basis set group =>   2
Atom   6H    basis set group =>   3
Atom   7H    basis set group =>   3
Atom   8H    basis set group =>   3
Atom   9H    basis set group =>   3
Atom  10H    basis set group =>   3
Atom  11H    basis set group =>   3
Atom  12H    basis set group =>   3
Atom  13H    basis set group =>   3
Atom  14H    basis set group =>   3
Atom  15H    basis set group =>   3
Atom  16H    basis set group =>   3
---------------------------------
AUXILIARY/J BASIS SET INFORMATION
---------------------------------
There are 3 groups of distinct atoms

 Group   1 Type C   : 12s5p4d2f1g contracted to 6s4p3d1f1g pattern {711111/2111/211/2/1}
 Group   2 Type Cl  : 14s5p5d2f1g contracted to 8s4p3d1f1g pattern {71111111/2111/311/2/1}
 Group   3 Type H   : 5s2p1d contracted to 3s1p1d pattern {311/2/1}

Atom   0C    basis set group =>   1
Atom   1C    basis set group =>   1
Atom   2C    basis set group =>   1
Atom   3C    basis set group =>   1
Atom   4C    basis set group =>   1
Atom   5Cl   basis set group =>   2
Atom   6H    basis set group =>   3
Atom   7H    basis set group =>   3
Atom   8H    basis set group =>   3
Atom   9H    basis set group =>   3
Atom  10H    basis set group =>   3
Atom  11H    basis set group =>   3
Atom  12H    basis set group =>   3
Atom  13H    basis set group =>   3
Atom  14H    basis set group =>   3
Atom  15H    basis set group =>   3
Atom  16H    basis set group =>   3

Checking for AutoStart:
The File: sp_gas.gbw exists
Trying to determine its content:
     ... Fine, the file contains calculation information
     ... Fine, the calculation information was read
     ... Fine, the file contains a basis set
     ... Fine, the basis set was read
     ... Fine, the file contains a geometry
     ... Fine, the geometry was read
     ... Fine, the file contains a set of orbitals
     ... Fine, the orbitals can be read
     => possible old guess file was deleted
     => GBW file was renamed to GES file
     => GES file is set as startup file
     => Guess is set to MORead
     ... now leaving AutoStart

------------------------------------------------------------------------------
                             ORCA STARTUP CALCULATIONS
                           -- RI-GTO INTEGRALS CHOSEN --
------------------------------------------------------------------------------
------------------------------------------------------------------------------
                   ___                                                        
                  /   \      - P O W E R E D   B Y -                         
                 /     \                                                     
                 |  |  |   _    _      __       _____    __    __             
                 |  |  |  | |  | |    /  \     |  _  \  |  |  /  |          
                  \  \/   | |  | |   /    \    | | | |  |  | /  /          
                 / \  \   | |__| |  /  /\  \   | |_| |  |  |/  /          
                |  |  |   |  __  | /  /__\  \  |    /   |      \           
                |  |  |   | |  | | |   __   |  |    \   |  |\   \          
                \     /   | |  | | |  |  |  |  | |\  \  |  | \   \       
                 \___/    |_|  |_| |__|  |__|  |_| \__\ |__|  \__/        
                                                                              
                      - O R C A' S   B I G   F R I E N D -                    
                                      &                                       
                       - I N T E G R A L  F E E D E R -                       
                                                                              
 v1 FN, 2020, v2 2021, v3 2022-2024                                           
------------------------------------------------------------------------------


----------------------
SHARK INTEGRAL PACKAGE
----------------------

Number of atoms                             ...     17
Number of basis functions                   ...    177
Number of shells                            ...     89
Maximum angular momentum                    ...      2
Integral batch strategy                     ... SHARK/LIBINT Hybrid
RI-J (if used) integral strategy            ... SPLIT-RIJ (Revised 2003 algorithm where possible)
Printlevel                                  ...      1
Contraction scheme used                     ... SEGMENTED contraction
Prescreening option                         ... SCHWARTZ
   Thresh                                   ... 1.000e-10
   Tcut                                     ... 1.000e-11
   Tpresel                                  ... 1.000e-11 
Coulomb Range Separation                    ... NOT USED
Exchange Range Separation                   ... NOT USED
Multipole approximations                    ... NOT USED
Finite Nucleus Model                        ... NOT USED
CABS basis                                  ... NOT available
Auxiliary Coulomb fitting basis             ... AVAILABLE
   # of basis functions in Aux-J            ...    417
   # of shells in Aux-J                     ...    147
   Maximum angular momentum in Aux-J        ...      4
Auxiliary J/K fitting basis                 ... NOT available
Auxiliary Correlation fitting basis         ... NOT available
Auxiliary 'external' fitting basis          ... NOT available

Checking pre-screening integrals            ... done (  0.0 sec) Dimension = 89
Check shell pair data                       ... done (  0.0 sec)
Shell pair information
Shell pair cut-off parameter TPreSel        ...   1.0e-11
Total number of shell pairs                 ...      4005
Shell pairs after pre-screening             ...      3576
Total number of primitive shell pairs       ...     14718
Primitive shell pairs kept                  ...      9501
          la=0 lb=0:   1226 shell pairs
          la=1 lb=0:   1394 shell pairs
          la=1 lb=1:    419 shell pairs
          la=2 lb=0:    325 shell pairs
          la=2 lb=1:    186 shell pairs
          la=2 lb=2:     26 shell pairs

Calculating one electron integrals          ... done (  0.0 sec)
Calculating RI/J V-Matrix + Cholesky decomp.... done (  0.1 sec)
Calculating Nuclear repulsion               ... done (  0.0 sec) ENN=    288.278937694237 Eh

Diagonalization of the overlap matrix:
Smallest eigenvalue                        ... 2.172e-04
Time for diagonalization                   ...    0.003 sec
Threshold for overlap eigenvalues          ... 1.000e-07
Number of eigenvalues below threshold      ... 0
Time for construction of square roots      ...    0.013 sec
Total time needed                          ...    0.024 sec

-------------------
DFT GRID GENERATION
-------------------

General Integration Accuracy     IntAcc      ... 4.388
Radial Grid Type                 RadialGrid  ... OptM3 with GC (2021)
Angular Grid (max. ang.)         AngularGrid ... 4 (Lebedev-302)
Angular grid pruning method      GridPruning ... 4 (adaptive)
Weight generation scheme         WeightScheme... mBecke (2022)
Basis function cutoff            BFCut       ... 1.0000e-10
Integration weight cutoff        WCut        ... 1.0000e-14
Partially contracted basis set               ... off
Rotationally invariant grid construction     ... off
Angular grids for H and He will be reduced by one unit

Total number of grid points                  ...    72599
Total number of batches                      ...     1141
Average number of points per batch           ...       63
Average number of grid points per atom       ...     4271
Initializing property integral containers    ... done (  0.0 sec)

SHARK setup successfully completed in   1.0 seconds

Maximum memory used throughout the entire STARTUP-calculation: 32.5 MB
-------------------------------------------------------------------------------
                                 ORCA GUESS
                   Start orbitals & Density for SCF / CASSCF
-------------------------------------------------------------------------------

------------
SCF SETTINGS
------------
Hamiltonian:
 Density Functional     Method          .... DFT(GTOs)
  Functional kind                       .... Exchange
  Functional name                       .... Re-regularized SCAN exchange by Furness et al
  Functional family                     .... MGGA
  Functional refs                              
    [ 0] J. W. Furness, A. D. Kaplan, J. Ning, J. P. Perdew, and J. Sun.,  J. Phys. Chem. Lett. 11, 8208-8215 (2020), doi: 10.1021/acs.jpclett.0c02405
    [ 1] J. W. Furness, A. D. Kaplan, J. Ning, J. P. Perdew, and J. Sun.,  J. Phys. Chem. Lett. 11, 9248-9248 (2020), doi: 10.1021/acs.jpclett.0c03077
  Functional external parameters        .... 6
    Parameter  0 _c1        =  6.670000e-01 : c1 parameter        
    Parameter  1 _c2        =  8.000000e-01 : c2 parameter        
    Parameter  2 _d         =  1.240000e+00 : d parameter         
    Parameter  3 _k1        =  6.500000e-02 : k1 parameter        
    Parameter  4 _eta       =  1.000000e-03 : eta parameter       
    Parameter  5 _dp2       =  3.610000e-01 : dp2 parameter       
  Functional kind                       .... Correlation
  Functional name                       .... Re-regularized SCAN correlation by Furness et al
  Functional family                     .... MGGA
  Functional refs                              
    [ 0] J. W. Furness, A. D. Kaplan, J. Ning, J. P. Perdew, and J. Sun.,  J. Phys. Chem. Lett. 11, 8208-8215 (2020), doi: 10.1021/acs.jpclett.0c02405
    [ 1] J. W. Furness, A. D. Kaplan, J. Ning, J. P. Perdew, and J. Sun.,  J. Phys. Chem. Lett. 11, 9248-9248 (2020), doi: 10.1021/acs.jpclett.0c03077
  Functional external parameters        .... 1
    Parameter  0 _eta       =  1.000000e-03 : Regularization parameter
 Gradients option       PostSCFGGA      .... off
 RI-approximation to the Coulomb term is turned on
   Number of AuxJ basis functions       .... 417


General Settings:
 Integral files         IntName         .... sp_gas
 Hartree-Fock type      HFTyp           .... RHF
 Total Charge           Charge          ....    0
 Multiplicity           Mult            ....    1
 Number of Electrons    NEL             ....   58
 Basis Dimension        Dim             ....  177
 Nuclear Repulsion      ENuc            ....    288.2789376942 Eh

Convergence Acceleration:
 AO-DIIS                CNVDIIS         .... on
   Start iteration      DIISMaxIt       ....    12
   Startup error        DIISStart       ....  0.200000
   # of expansion vecs  DIISMaxEq       ....     5
   Bias factor          DIISBfac        ....   1.050
   Max. coefficient     DIISMaxC        ....  10.000
 MO-DIIS                CNVKDIIS        .... off
 Trust-Rad. Augm. Hess. CNVTRAH         .... auto
   Auto Start mean grad. ratio tolernc. ....  1.125000
   Auto Start start iteration           ....     1
   Auto Start num. interpolation iter.  ....    10
   Max. Number of Micro iterations      ....    24
   Max. Number of Macro iterations      .... Maxiter - #DIIS iter
   Number of Davidson start vectors     ....     2
   Converg. threshold    (grad. norm)   ....   3.330e-04
   Grad. Scal. Fac. for Micro threshold ....   0.100
   Minimum threshold for Micro iter.    ....   1.000e-02
   NR start threshold (gradient norm)   ....   1.000e-04
   Initial trust radius                 ....   0.400
   Minimum AH scaling param. (alpha)    ....   1.000
   Maximum AH scaling param. (alpha)    .... 1000.000
   Quad. conv. algorithm                .... NR
   White noise on init. David. guess    .... on
   Maximum white noise                  ....   0.010
   Pseudo random numbers                .... off
   Inactive MOs                         .... canonical
   Orbital update algorithm             .... Taylor
   Preconditioner                       .... Diag
   Full preconditioner red. dimension   ....   250
   COSX micro iterations for RIJONX calc.... off
 SOSCF                  CNVSOSCF        .... on
   Start iteration      SOSCFMaxIt      ....   150
   Startup grad/error   SOSCFStart      ....  0.003300
   Hessian update       SOSCFHessUp     .... L-BFGS
 Level Shifting         CNVShift        .... on
   Level shift para.    LevelShift      ....    0.2500
   Turn off err/grad.   ShiftErr        ....    0.0010
 Zerner damping         CNVZerner       .... off
 Static damping         CNVDamp         .... on
   Fraction old density DampFac         ....    0.7000
   Max. Damping (<1)    DampMax         ....    0.9800
   Min. Damping (>=0)   DampMin         ....    0.0000
   Turn off err/grad.   DampErr         ....    0.1000

SCF Procedure:
 Maximum # iterations   MaxIter         ....   125
 SCF integral mode      SCFMode         .... Direct
   Integral package                     .... SHARK and LIBINT hybrid scheme
 Reset frequency        DirectResetFreq ....    20
 Integral Threshold     Thresh          ....  1.000e-10 Eh
 Primitive CutOff       TCut            ....  1.000e-11 Eh

Convergence Tolerance:
 Convergence Check Mode ConvCheckMode   .... Total+1el-Energy
 Convergence forced     ConvForced      .... 0
 Energy Change          TolE            ....  1.000e-06 Eh
 1-El. energy change                    ....  1.000e-03 Eh
 Orbital Gradient       TolG            ....  3.330e-04
 Orbital Rotation angle TolX            ....  3.330e-04
 DIIS Error             TolErr          ....  1.000e-06

---------------------
INITIAL GUESS: MOREAD
---------------------
Guess MOs are being read from file: sp_gas.ges
Input Geometry matches current geometry (good)
Atom 0: N(Shells)= 9 and 6 - projection required
Input basis set needs projection
NBasis(read)= 110
NBasis(calc)= 177
Basis set overlap was calculated
Using GuessMode=FMatrix for the initial guess
C*T matrix was formed
Effective Fockian was calculated
Effective Fockian was diagonalized
Initial density was built
                      ------------------
                      INITIAL GUESS DONE (   0.0 sec)
                      ------------------
             **** ENERGY FILE WAS UPDATED (sp_gas.en.tmp) ****
Finished Guess after   0.2 sec
Maximum memory used throughout the entire GUESS-calculation: 11.8 MB

-------------------------------------------------------------------------------------------
                                      ORCA LEAN-SCF
                              memory conserving SCF solver
-------------------------------------------------------------------------------------------

----------------------------------------D-I-I-S--------------------------------------------
Iteration    Energy (Eh)           Delta-E    RMSDP     MaxDP     DIISErr   Damp  Time(sec)
-------------------------------------------------------------------------------------------
               ***  Starting incremental Fock matrix formation  ***
    1    -657.1451055677434852     0.00e+00  3.69e-03  1.04e-01  5.38e-01  0.700   1.9
    2    -657.1832089720915064    -3.81e-02  2.99e-03  7.54e-02  3.77e-01  0.700   1.9
    3    -657.2102123860286156    -2.70e-02  2.19e-03  5.49e-02  2.64e-01  0.700   1.8
                               ***Turning on AO-DIIS***
    4    -657.2291793317081101    -1.90e-02  1.59e-03  3.92e-02  1.85e-01  0.700   1.8
    5    -657.2424866612748247    -1.33e-02  1.13e-03  2.77e-02  1.29e-01  0.700   1.7
    6    -657.2518185371536674    -9.33e-03  7.97e-04  1.95e-02  9.06e-02  0.700   1.8
    7    -657.2583597700863720    -6.54e-03  1.87e-03  4.56e-02  6.34e-02  0.000   1.7
                              *** Initializing SOSCF ***
---------------------------------------S-O-S-C-F--------------------------------------
Iteration    Energy (Eh)           Delta-E    RMSDP     MaxDP     MaxGrad    Time(sec)
--------------------------------------------------------------------------------------
    8    -657.2736520198529888    -1.53e-02  1.20e-05  2.81e-04  1.16e-04     1.8
               *** Restarting incremental Fock matrix formation ***
    9    -657.2736520907972135    -7.09e-08  5.47e-06  1.36e-04  1.45e-05     1.9
                  *** Gradient check signals convergence ***

               *****************************************************
               *                     SUCCESS                       *
               *           SCF CONVERGED AFTER   9 CYCLES          *
               *****************************************************

             **** ENERGY FILE WAS UPDATED (sp_gas.en.tmp) ****

----------------
TOTAL SCF ENERGY
----------------

Total Energy       :       -657.27365209079721 Eh          -17885.32535 eV

Components:
Nuclear Repulsion  :        288.27893769423741 Eh            7844.46870 eV
Electronic Energy  :       -945.55258978503457 Eh          -25729.79405 eV
One Electron Energy:      -1471.41488426927185 Eh          -40039.23456 eV
Two Electron Energy:        525.86229448423728 Eh           14309.44051 eV

Virial components:
Potential Energy   :      -1312.55081692074236 Eh          -35716.32351 eV
Kinetic Energy     :        655.27716482994515 Eh           17830.99817 eV
Virial Ratio       :          2.00304678290044

DFT components:
N(Alpha)           :       28.999992365446 electrons
N(Beta)            :       28.999992365446 electrons
N(Total)           :       57.999984730892 electrons
E(X)               :      -57.490560929092 Eh       
E(C)               :       -1.921357429970 Eh       
E(XC)              :      -59.411918359063 Eh       

---------------
SCF CONVERGENCE
---------------

  Last Energy change         ...    7.0944e-08  Tolerance :   1.0000e-06
  Last MAX-Density change    ...    1.3632e-04  Tolerance :   1.0000e-05
  Last RMS-Density change    ...    5.4696e-06  Tolerance :   1.0000e-06
  Last DIIS Error            ...    1.1576e-04  Tolerance :   1.0000e-06
  Last Orbital Gradient      ...    1.4533e-05  Tolerance :   3.3300e-04
  Last Orbital Rotation      ...    2.7555e-05  Tolerance :   3.3300e-04


----------------
ORBITAL ENERGIES
----------------

  NO   OCC          E(Eh)            E(eV) 
   0   2.0000    -101.196274     -2753.6906 
   1   2.0000     -10.090541      -274.5776 
   2   2.0000     -10.040007      -273.2025 
   3   2.0000     -10.036286      -273.1012 
   4   2.0000     -10.033662      -273.0298 
   5   2.0000     -10.022938      -272.7380 
   6   2.0000      -9.352292      -254.4888 
   7   2.0000      -7.098495      -193.1599 
   8   2.0000      -7.088360      -192.8841 
   9   2.0000      -7.088320      -192.8830 
  10   2.0000      -0.820906       -22.3380 
  11   2.0000      -0.772063       -21.0089 
  12   2.0000      -0.712927       -19.3997 
  13   2.0000      -0.637186       -17.3387 
  14   2.0000      -0.585624       -15.9356 
  15   2.0000      -0.547084       -14.8869 
  16   2.0000      -0.455121       -12.3845 
  17   2.0000      -0.441731       -12.0201 
  18   2.0000      -0.417876       -11.3710 
  19   2.0000      -0.398537       -10.8447 
  20   2.0000      -0.382994       -10.4218 
  21   2.0000      -0.366243        -9.9660 
  22   2.0000      -0.345820        -9.4103 
  23   2.0000      -0.333015        -9.0618 
  24   2.0000      -0.313832        -8.5398 
  25   2.0000      -0.306354        -8.3363 
  26   2.0000      -0.297623        -8.0987 
  27   2.0000      -0.262521        -7.1436 
  28   2.0000      -0.260317        -7.0836 
  29   0.0000       0.007511         0.2044 
  30   0.0000       0.092356         2.5131 
  31   0.0000       0.097939         2.6651 
  32   0.0000       0.105201         2.8627 
  33   0.0000       0.119373         3.2483 
  34   0.0000       0.127867         3.4794 
  35   0.0000       0.136434         3.7126 
  36   0.0000       0.141155         3.8410 
  37   0.0000       0.161588         4.3970 
  38   0.0000       0.168662         4.5895 
  39   0.0000       0.181592         4.9414 
*Only the first 10 virtual orbitals were printed.

                    ********************************
                    * MULLIKEN POPULATION ANALYSIS *
                    ********************************

-----------------------
MULLIKEN ATOMIC CHARGES
-----------------------
   0 C :   -0.465575
   1 C :   -0.251406
   2 C :   -0.280142
   3 C :   -0.250458
   4 C :   -0.181686
   5 Cl:   -0.202555
   6 H :    0.140977
   7 H :    0.143636
   8 H :    0.148225
   9 H :    0.141758
  10 H :    0.137164
  11 H :    0.147070
  12 H :    0.138635
  13 H :    0.151529
  14 H :    0.159073
  15 H :    0.164911
  16 H :    0.158843
Sum of atomic charges:   -0.0000000

--------------------------------
MULLIKEN REDUCED ORBITAL CHARGES
--------------------------------
  0 C s       :     3.326649  s :     3.326649
      pz      :     1.069473  p :     3.111834
      px      :     0.946707
      py      :     1.095653
      dz2     :     0.007707  d :     0.027092
      dxz     :     0.004233
      dyz     :     0.002301
      dx2y2   :     0.005323
      dxy     :     0.007529

  1 C s       :     3.217200  s :     3.217200
      pz      :     1.048866  p :     2.997147
      px      :     0.952271
      py      :     0.996010
      dz2     :     0.010191  d :     0.037059
      dxz     :     0.005218
      dyz     :     0.003821
      dx2y2   :     0.008612
      dxy     :     0.009217

  2 C s       :     3.238907  s :     3.238907
      pz      :     1.037825  p :     3.004539
      px      :     0.945995
      py      :     1.020719
      dz2     :     0.010543  d :     0.036696
      dxz     :     0.004939
      dyz     :     0.003603
      dx2y2   :     0.008200
      dxy     :     0.009411

  3 C s       :     3.218890  s :     3.218890
      pz      :     1.059544  p :     2.995137
      px      :     0.930917
      py      :     1.004676
      dz2     :     0.010055  d :     0.036431
      dxz     :     0.005541
      dyz     :     0.003611
      dx2y2   :     0.007790
      dxy     :     0.009434

  4 C s       :     3.258740  s :     3.258740
      pz      :     1.061413  p :     2.881803
      px      :     0.787230
      py      :     1.033159
      dz2     :     0.010585  d :     0.041144
      dxz     :     0.006252
      dyz     :     0.004320
      dx2y2   :     0.011102
      dxy     :     0.008885

  5 Cls       :     5.948010  s :     5.948010
      pz      :     3.910378  p :    11.209910
      px      :     3.350658
      py      :     3.948874
      dz2     :     0.006952  d :     0.044634
      dxz     :     0.011405
      dyz     :     0.000941
      dx2y2   :     0.014118
      dxy     :     0.011219

  6 H s       :     0.840735  s :     0.840735
      pz      :     0.010903  p :     0.018288
      px      :     0.003653
      py      :     0.003732

  7 H s       :     0.838089  s :     0.838089
      pz      :     0.004433  p :     0.018275
      px      :     0.005222
      py      :     0.008621

  8 H s       :     0.833448  s :     0.833448
      pz      :     0.004729  p :     0.018327
      px      :     0.005371
      py      :     0.008227

  9 H s       :     0.840414  s :     0.840414
      pz      :     0.010929  p :     0.017828
      px      :     0.003433
      py      :     0.003466

 10 H s       :     0.844804  s :     0.844804
      pz      :     0.004213  p :     0.018032
      px      :     0.004895
      py      :     0.008925

 11 H s       :     0.834999  s :     0.834999
      pz      :     0.003969  p :     0.017931
      px      :     0.005260
      py      :     0.008702

 12 H s       :     0.843466  s :     0.843466
      pz      :     0.010980  p :     0.017899
      px      :     0.003417
      py      :     0.003502

 13 H s       :     0.830622  s :     0.830622
      pz      :     0.011181  p :     0.017849
      px      :     0.003310
      py      :     0.003358

 14 H s       :     0.823084  s :     0.823084
      pz      :     0.004077  p :     0.017843
      px      :     0.004492
      py      :     0.009275

 15 H s       :     0.816910  s :     0.816910
      pz      :     0.004471  p :     0.018179
      px      :     0.003618
      py      :     0.010090

 16 H s       :     0.823160  s :     0.823160
      pz      :     0.011721  p :     0.017997
      px      :     0.002827
      py      :     0.003449


------------------------
MULLIKEN OVERLAP CHARGES
------------------------
B(  0-C ,  1-C ) :   0.4691 B(  0-C ,  2-C ) :  -0.1724 B(  0-C ,  6-H ) :   0.8427 
B(  0-C ,  7-H ) :   0.8636 B(  0-C ,  8-H ) :   0.8079 B(  0-C ,  9-H ) :  -0.0686 
B(  1-C ,  2-C ) :   0.4315 B(  1-C ,  3-C ) :  -0.1624 B(  1-C ,  6-H ) :  -0.0828 
B(  1-C ,  7-H ) :  -0.0983 B(  1-C ,  8-H ) :  -0.0789 B(  1-C ,  9-H ) :   0.8587 
B(  1-C , 10-H ) :   0.8345 B(  1-C , 11-H ) :  -0.0742 B(  1-C , 12-H ) :  -0.0843 
B(  2-C ,  3-C ) :   0.3921 B(  2-C ,  4-C ) :  -0.1249 B(  2-C ,  9-H ) :  -0.1043 
B(  2-C , 10-H ) :  -0.0821 B(  2-C , 11-H ) :   0.8365 B(  2-C , 12-H ) :   0.8474 
B(  2-C , 13-H ) :  -0.0838 B(  2-C , 14-H ) :  -0.0962 B(  3-C ,  4-C ) :   0.4127 
B(  3-C ,  5-Cl) :  -0.0817 B(  3-C , 11-H ) :  -0.0917 B(  3-C , 12-H ) :  -0.0811 
B(  3-C , 13-H ) :   0.8540 B(  3-C , 14-H ) :   0.8403 B(  3-C , 15-H ) :  -0.0970 
B(  3-C , 16-H ) :  -0.1025 B(  4-C ,  5-Cl) :   0.4309 B(  4-C , 13-H ) :  -0.0719 
B(  4-C , 14-H ) :  -0.0600 B(  4-C , 15-H ) :   0.8564 B(  4-C , 16-H ) :   0.8439 
B(  5-Cl, 15-H ) :  -0.0812 B(  5-Cl, 16-H ) :  -0.0833 B(  6-H ,  7-H ) :  -0.0531 
B(  9-H , 10-H ) :  -0.0521 B( 15-H , 16-H ) :  -0.0639 


                     *******************************
                     * LOEWDIN POPULATION ANALYSIS *
                     *******************************

----------------------
LOEWDIN ATOMIC CHARGES
----------------------
   0 C :   -0.423037
   1 C :   -0.318281
   2 C :   -0.310046
   3 C :   -0.329256
   4 C :   -0.322919
   5 Cl:   -0.003819
   6 H :    0.150384
   7 H :    0.150473
   8 H :    0.151272
   9 H :    0.152942
  10 H :    0.149718
  11 H :    0.159253
  12 H :    0.155287
  13 H :    0.161222
  14 H :    0.162322
  15 H :    0.157362
  16 H :    0.157123

-------------------------------
LOEWDIN REDUCED ORBITAL CHARGES
-------------------------------
  0 C s       :     2.974087  s :     2.974087
      pz      :     1.151070  p :     3.385523
      px      :     1.077755
      py      :     1.156698
      dz2     :     0.019031  d :     0.063427
      dxz     :     0.008881
      dyz     :     0.005874
      dx2y2   :     0.012636
      dxy     :     0.017006

  1 C s       :     2.938399  s :     2.938399
      pz      :     1.130138  p :     3.299578
      px      :     1.066943
      py      :     1.102497
      dz2     :     0.023590  d :     0.080303
      dxz     :     0.010161
      dyz     :     0.008278
      dx2y2   :     0.018727
      dxy     :     0.019547

  2 C s       :     2.937405  s :     2.937405
      pz      :     1.127893  p :     3.293003
      px      :     1.058887
      py      :     1.106224
      dz2     :     0.024264  d :     0.079638
      dxz     :     0.009996
      dyz     :     0.007590
      dx2y2   :     0.017416
      dxy     :     0.020371

  3 C s       :     2.945907  s :     2.945907
      pz      :     1.135555  p :     3.303684
      px      :     1.068204
      py      :     1.099925
      dz2     :     0.023333  d :     0.079664
      dxz     :     0.011073
      dyz     :     0.007750
      dx2y2   :     0.017066
      dxy     :     0.020443

  4 C s       :     2.994133  s :     2.994133
      pz      :     1.142138  p :     3.238748
      px      :     0.959652
      py      :     1.136958
      dz2     :     0.024911  d :     0.090037
      dxz     :     0.012659
      dyz     :     0.008852
      dx2y2   :     0.023757
      dxy     :     0.019859

  5 Cls       :     5.697730  s :     5.697730
      pz      :     3.901856  p :    11.207092
      px      :     3.376955
      py      :     3.928281
      dz2     :     0.015280  d :     0.098997
      dxz     :     0.024945
      dyz     :     0.002045
      dx2y2   :     0.033125
      dxy     :     0.023602

  6 H s       :     0.806260  s :     0.806260
      pz      :     0.027124  p :     0.043356
      px      :     0.008110
      py      :     0.008123

  7 H s       :     0.806192  s :     0.806192
      pz      :     0.010075  p :     0.043335
      px      :     0.012028
      py      :     0.021231

  8 H s       :     0.805182  s :     0.805182
      pz      :     0.010852  p :     0.043545
      px      :     0.012543
      py      :     0.020150

  9 H s       :     0.803924  s :     0.803924
      pz      :     0.027068  p :     0.043134
      px      :     0.008065
      py      :     0.008002

 10 H s       :     0.806764  s :     0.806764
      pz      :     0.009944  p :     0.043518
      px      :     0.011787
      py      :     0.021787

 11 H s       :     0.797336  s :     0.797336
      pz      :     0.009278  p :     0.043411
      px      :     0.012663
      py      :     0.021470

 12 H s       :     0.801280  s :     0.801280
      pz      :     0.027214  p :     0.043433
      px      :     0.007949
      py      :     0.008270

 13 H s       :     0.795262  s :     0.795262
      pz      :     0.028021  p :     0.043516
      px      :     0.007699
      py      :     0.007796

 14 H s       :     0.794037  s :     0.794037
      pz      :     0.009703  p :     0.043642
      px      :     0.010750
      py      :     0.023189

 15 H s       :     0.797645  s :     0.797645
      pz      :     0.010904  p :     0.044993
      px      :     0.008459
      py      :     0.025630

 16 H s       :     0.798457  s :     0.798457
      pz      :     0.029929  p :     0.044420
      px      :     0.006306
      py      :     0.008185


---------------------------------
LOEWDIN BOND ORDERS (THRESH 0.050000)
---------------------------------
B(  0-C ,  1-C ) :   1.1448 B(  0-C ,  2-C ) :   0.0763 B(  0-C ,  6-H ) :   0.9297 
B(  0-C ,  7-H ) :   0.9290 B(  0-C ,  8-H ) :   0.9301 B(  1-C ,  2-C ) :   1.1017 
B(  1-C ,  3-C ) :   0.0677 B(  1-C ,  9-H ) :   0.8955 B(  1-C , 10-H ) :   0.8939 
B(  2-C ,  3-C ) :   1.1012 B(  2-C ,  4-C ) :   0.0726 B(  2-C , 11-H ) :   0.8864 
B(  2-C , 12-H ) :   0.8903 B(  3-C ,  4-C ) :   1.1160 B(  3-C ,  5-Cl) :   0.1280 
B(  3-C , 13-H ) :   0.8902 B(  3-C , 14-H ) :   0.8892 B(  4-C ,  5-Cl) :   1.3554 
B(  4-C , 15-H ) :   0.8950 B(  4-C , 16-H ) :   0.8968 

------------------------------------------
LOEWDIN REDUCED ORBITAL POPULATIONS PER MO
-------------------------------------------
THRESHOLD FOR PRINTING IS 0.1%%
                      0         1         2         3         4         5   
                 -101.19627 -10.09054 -10.04001 -10.03629 -10.03366 -10.02294
                   2.00000   2.00000   2.00000   2.00000   2.00000   2.00000
                  --------  --------  --------  --------  --------  --------
 0 C  s               0.0       0.0       0.0       0.0       0.0      99.7
 1 C  s               0.0       0.0       0.0       0.1      99.6       0.0
 2 C  s               0.0       0.0       0.0      99.6       0.1       0.0
 3 C  s               0.0       0.0      99.7       0.0       0.0       0.0
 4 C  s               0.0      99.7       0.0       0.0       0.0       0.0
 5 Cl s             100.0       0.0       0.0       0.0       0.0       0.0

                      6         7         8         9        10        11   
                  -9.35229  -7.09850  -7.08836  -7.08832  -0.82091  -0.77206
                   2.00000   2.00000   2.00000   2.00000   2.00000   2.00000
                  --------  --------  --------  --------  --------  --------
 0 C  s               0.0       0.0       0.0       0.0       0.3       8.9
 0 C  px              0.0       0.0       0.0       0.0       0.2       2.3
 1 C  s               0.0       0.0       0.0       0.0       1.3      19.5
 1 C  pz              0.0       0.0       0.0       0.0       0.1       0.5
 1 C  px              0.0       0.0       0.0       0.0       0.2       0.0
 1 C  py              0.0       0.0       0.0       0.0       0.2       1.1
 2 C  s               0.0       0.0       0.0       0.0       3.7      19.0
 2 C  pz              0.0       0.0       0.0       0.0       0.1       0.5
 2 C  px              0.0       0.0       0.0       0.0       1.0       0.1
 2 C  py              0.0       0.0       0.0       0.0       0.1       1.0
 3 C  s               0.0       0.0       0.0       0.0      10.3       6.1
 3 C  pz              0.0       0.0       0.0       0.0       0.4       0.1
 3 C  px              0.0       0.0       0.0       0.0       0.9       4.2
 3 C  py              0.0       0.0       0.0       0.0       1.5       0.0
 4 C  s               0.0       0.0       0.0       0.0      23.9       0.2
 4 C  pz              0.0       0.0       0.0       0.0       0.8       0.0
 4 C  px              0.1       0.0       0.0       0.0       2.8       5.7
 4 C  py              0.0       0.0       0.0       0.0       0.8       0.3
 4 C  dx2y2           0.0       0.0       0.0       0.0       0.1       0.1
 5 Cl s              99.8       0.0       0.0       0.0      38.0      12.9
 5 Cl pz              0.0       8.1      88.5       3.4       0.2       0.0
 5 Cl px              0.0      89.3       5.9       4.8       2.2       0.1
 5 Cl py              0.0       2.6       5.5      91.9       0.0       0.0
 5 Cl dz2             0.0       0.0       0.0       0.0       0.1       0.0
 5 Cl dxz             0.0       0.0       0.0       0.0       0.1       0.0
 5 Cl dx2y2           0.0       0.0       0.0       0.0       0.4       0.0
 6 H  s               0.0       0.0       0.0       0.0       0.0       1.2
 6 H  pz              0.0       0.0       0.0       0.0       0.0       0.1
 7 H  s               0.0       0.0       0.0       0.0       0.0       1.2
 8 H  s               0.0       0.0       0.0       0.0       0.0       1.1
 9 H  s               0.0       0.0       0.0       0.0       0.1       2.6
 9 H  pz              0.0       0.0       0.0       0.0       0.0       0.2
10 H  s               0.0       0.0       0.0       0.0       0.2       2.5
10 H  py              0.0       0.0       0.0       0.0       0.0       0.2
11 H  s               0.0       0.0       0.0       0.0       0.4       2.6
11 H  py              0.0       0.0       0.0       0.0       0.0       0.2
12 H  s               0.0       0.0       0.0       0.0       0.4       2.5
12 H  pz              0.0       0.0       0.0       0.0       0.0       0.2
13 H  s               0.0       0.0       0.0       0.0       1.1       0.8
13 H  pz              0.0       0.0       0.0       0.0       0.1       0.1
14 H  s               0.0       0.0       0.0       0.0       1.2       0.8
15 H  s               0.0       0.0       0.0       0.0       2.8       0.0
15 H  py              0.0       0.0       0.0       0.0       0.2       0.0
16 H  s               0.0       0.0       0.0       0.0       2.8       0.0
16 H  pz              0.0       0.0       0.0       0.0       0.3       0.0

                     12        13        14        15        16        17   
                  -0.71293  -0.63719  -0.58562  -0.54708  -0.45512  -0.44173
                   2.00000   2.00000   2.00000   2.00000   2.00000   2.00000
                  --------  --------  --------  --------  --------  --------
 0 C  s              17.1      11.7       8.3       1.4       0.0       0.1
 0 C  pz              0.1       0.0       0.4       1.2       0.7       6.9
 0 C  px              0.6       1.0       4.4       2.3       1.2       0.3
 0 C  py              0.0       0.1       0.0       0.7       2.6       2.1
 1 C  s               8.9       0.4       7.9       7.0       0.4       0.4
 1 C  pz              0.0       0.0       0.3       4.2       3.4      10.4
 1 C  px              4.5       5.1       3.7       0.5       0.0       3.4
 1 C  py              0.4       2.2       0.4       4.5       6.8       3.3
 1 C  dx2y2           0.1       0.1       0.1       0.0       0.0       0.0
 2 C  s               1.4      12.6       0.0       7.8       0.1       0.0
 2 C  pz              0.0       0.0       0.0       6.1       9.8       3.1
 2 C  px              6.5       0.5       2.3       1.3       1.9       2.6
 2 C  py              1.4       0.2       4.8       2.5       1.3       6.6
 2 C  dx2y2           0.1       0.0       0.1       0.0       0.0       0.0
 3 C  s              14.7       0.8       7.9       5.3       0.1       0.1
 3 C  pz              0.1       0.0       0.6       4.9      14.3       0.8
 3 C  px              0.0       6.6       0.1       1.8       1.8       0.8
 3 C  py              0.1       1.5       5.2       0.4       1.9       7.4
 3 C  dx2y2           0.0       0.1       0.0       0.0       0.0       0.0
 4 C  s               2.6      12.0       6.8       2.3       0.2       0.2
 4 C  pz              0.0       0.2       1.3       3.4      11.4       9.9
 4 C  px              6.2       2.3       0.1       0.1       0.0       5.0
 4 C  py              1.0       0.1       5.3       3.1      10.4       2.6
 5 Cl s              13.1      12.5       2.9       0.4       0.2       0.8
 5 Cl pz              0.0       0.2       0.4       0.4       0.7       3.1
 5 Cl px              0.5       2.9       1.6       0.4       0.9       2.3
 5 Cl py              0.0       0.1       0.4       0.4       1.6       0.1
 5 Cl dxz             0.0       0.1       0.1       0.1       0.1       0.3
 5 Cl dx2y2           0.0       0.3       0.1       0.0       0.0       0.0
 5 Cl dxy             0.0       0.0       0.1       0.1       0.2       0.0
 6 H  s               2.9       2.9       3.2       1.3       0.1       3.0
 6 H  pz              0.3       0.2       0.2       0.1       0.0       0.1
 7 H  s               3.0       2.9       3.3       1.2       1.6       0.7
 7 H  py              0.2       0.2       0.2       0.0       0.0       0.0
 8 H  s               3.0       3.5       3.2       0.3       0.0       0.2
 8 H  py              0.2       0.2       0.2       0.0       0.0       0.0
 9 H  s               1.5       0.1       2.8       5.3       0.5       4.5
 9 H  pz              0.1       0.0       0.2       0.3       0.0       0.2
10 H  s               1.5       0.0       3.8       4.0       3.4       2.5
10 H  py              0.1       0.0       0.2       0.2       0.1       0.1
11 H  s               0.2       3.7       0.2       4.5       2.5       3.4
11 H  py              0.0       0.2       0.0       0.2       0.1       0.1
12 H  s               0.2       3.0       0.0       6.5       2.4       1.4
12 H  pz              0.0       0.3       0.0       0.4       0.1       0.1
13 H  s               2.5       0.2       2.9       4.9       3.7       0.3
13 H  pz              0.2       0.0       0.2       0.3       0.1       0.0
14 H  s               2.7       0.2       4.2       2.2       3.0       2.6
14 H  py              0.2       0.0       0.2       0.1       0.1       0.1
15 H  s               0.4       3.6       4.4       1.3       6.6       2.7
15 H  py              0.0       0.2       0.2       0.0       0.2       0.1
16 H  s               0.5       3.5       3.5       2.9       2.8       4.6
16 H  pz              0.0       0.3       0.3       0.2       0.1       0.2

                     18        19        20        21        22        23   
                  -0.41788  -0.39854  -0.38299  -0.36624  -0.34582  -0.33302
                   2.00000   2.00000   2.00000   2.00000   2.00000   2.00000
                  --------  --------  --------  --------  --------  --------
 0 C  s               0.2       0.0       0.0       0.1       0.1       0.1
 0 C  pz              5.0       0.1      19.0       0.5       0.0      16.3
 0 C  px              6.6       0.4       0.5       9.7       5.5       0.2
 0 C  py              3.2      17.2       0.8       5.6      17.1       0.0
 0 C  dz2             0.0       0.0       0.1       0.0       0.0       0.3
 0 C  dxy             0.0       0.0       0.0       0.0       0.2       0.0
 1 C  s               0.3       0.1       0.0       0.2       0.1       0.0
 1 C  pz              8.5       0.2       3.5       0.4       0.2       5.6
 1 C  px              0.9       0.3       1.5       8.7       6.1       1.1
 1 C  py              1.6      10.8       0.4       0.1       0.8       0.0
 1 C  dxy             0.0       0.0       0.0       0.1       0.1       0.0
 2 C  s               0.0       0.1       0.2       1.0       0.0       0.0
 2 C  pz              1.7       0.3      10.3       2.0       1.3       4.8
 2 C  px             11.6       0.0       0.0       0.6       5.0       0.2
 2 C  py              0.4      10.6       0.4       2.1       2.7       4.4
 2 C  dz2             0.0       0.0       0.1       0.0       0.0       0.2
 2 C  dxy             0.0       0.0       0.0       0.0       0.1       0.0
 3 C  s               0.0       0.1       0.1       0.3       0.0       0.1
 3 C  pz              1.8       0.9       5.1       0.8       1.5      16.6
 3 C  px             12.2       0.7       2.6       1.6       1.1       0.1
 3 C  py              0.4      11.8       2.2       5.1       7.9       0.1
 3 C  dz2             0.0       0.0       0.1       0.0       0.0       0.5
 3 C  dyz             0.0       0.1       0.0       0.0       0.1       0.0
 3 C  dx2y2           0.0       0.0       0.0       0.3       0.0       0.0
 3 C  dxy             0.0       0.0       0.1       0.0       0.2       0.1
 4 C  s               0.2       0.0       0.1       0.2       0.5       0.3
 4 C  pz              6.6       0.5      13.9       0.0       0.4       3.9
 4 C  px              3.6       5.8       0.5       7.6       4.8       1.2
 4 C  py              4.0       8.0       1.7       8.6       3.3       0.7
 4 C  dz2             0.0       0.0       0.2       0.0       0.1       0.1
 4 C  dx2y2           0.0       0.0       0.0       0.4       0.0       0.0
 5 Cl s               2.0       0.7       0.1       1.0       0.3       0.0
 5 Cl pz              0.0       0.3       3.0       4.1       0.6       2.9
 5 Cl px             13.6       5.1       2.6      17.8       5.0       0.2
 5 Cl py              0.3       2.9       0.2       0.4       4.5       0.4
 5 Cl dz2             0.1       0.0       0.1       0.0       0.0       0.1
 5 Cl dxz             0.0       0.0       0.2       0.1       0.0       0.0
 5 Cl dx2y2           0.3       0.0       0.1       0.2       0.0       0.0
 5 Cl dxy             0.0       0.2       0.0       0.0       0.1       0.0
 6 H  s               0.9       0.0       8.1       0.6       0.0       9.8
 6 H  pz              0.0       0.0       0.2       0.0       0.0       0.1
 6 H  py              0.0       0.1       0.0       0.0       0.1       0.0
 7 H  s               0.3       6.0       0.4       0.3      11.2       0.9
 7 H  px              0.0       0.1       0.0       0.1       0.0       0.0
 8 H  s               5.3       3.3       3.3       4.9       3.0       1.2
 8 H  px              0.0       0.1       0.0       0.0       0.2       0.0
 8 H  py              0.1       0.0       0.1       0.1       0.0       0.0
 9 H  s               2.1       0.1       1.1       0.1       0.4       3.6
10 H  s               0.0       3.1       0.2       0.0       2.1       0.0
11 H  s               0.2       3.1       0.0       0.1       4.7       2.8
11 H  px              0.1       0.1       0.0       0.0       0.0       0.0
11 H  py              0.0       0.0       0.0       0.0       0.1       0.0
12 H  s               0.5       0.1       5.5       0.1       0.6       3.8
12 H  pz              0.0       0.0       0.1       0.0       0.0       0.1
12 H  px              0.1       0.0       0.0       0.0       0.0       0.0
13 H  s               0.5       0.3       3.0       0.1       0.7      12.2
13 H  pz              0.0       0.0       0.1       0.0       0.0       0.2
13 H  px              0.1       0.0       0.0       0.0       0.0       0.0
14 H  s               0.6       2.3       0.1       5.2       4.2       0.7
14 H  pz              0.0       0.0       0.0       0.0       0.0       0.1
15 H  s               0.6       2.4       0.1       7.3       0.5       0.4
15 H  px              0.0       0.1       0.0       0.0       0.1       0.0
16 H  s               2.4       0.2       6.8       0.0       1.0       2.3
16 H  pz              0.1       0.0       0.1       0.0       0.0       0.0

                     24        25        26        27        28        29   
                  -0.31383  -0.30635  -0.29762  -0.26252  -0.26032   0.00751
                   2.00000   2.00000   2.00000   2.00000   2.00000   0.00000
                  --------  --------  --------  --------  --------  --------
 0 C  s               0.7       0.0       0.1       0.0       0.1       0.1
 0 C  pz              0.1       7.2       0.1       0.0       0.0       0.0
 0 C  px             13.8       0.1       4.2       0.0       0.6       0.2
 0 C  py              1.0       0.4       6.8       0.0       0.0       0.0
 0 C  dz2             0.0       0.4       0.0       0.0       0.0       0.0
 0 C  dxz             0.1       0.1       0.0       0.0       0.0       0.0
 0 C  dx2y2           0.1       0.0       0.0       0.0       0.0       0.0
 0 C  dxy             0.1       0.0       0.5       0.0       0.0       0.0
 1 C  s               0.5       0.1       0.2       0.0       0.0       1.2
 1 C  pz              0.5      18.3       0.2       0.0       0.0       0.1
 1 C  px             11.1       0.8       4.8       0.0       0.5       0.7
 1 C  py              5.2       0.9      16.0       0.1       0.2       0.3
 1 C  dz2             0.0       0.9       0.0       0.0       0.0       0.0
 1 C  dyz             0.0       0.0       0.1       0.0       0.0       0.0
 1 C  dx2y2           0.4       0.0       0.0       0.0       0.1       0.0
 1 C  dxy             0.2       0.0       0.3       0.0       0.0       0.0
 2 C  s               0.4       0.2       0.2       0.0       0.1       2.2
 2 C  pz              1.7      14.0       0.6       0.1       0.0       0.1
 2 C  px              9.9       0.2       6.4       0.3       2.5       0.5
 2 C  py              3.2       0.2      13.2       0.0       0.3       0.2
 2 C  dz2             0.1       0.8       0.0       0.0       0.0       0.0
 2 C  dxz             0.0       0.0       0.1       0.0       0.0       0.0
 2 C  dx2y2           0.4       0.0       0.1       0.0       0.0       0.0
 2 C  dxy             0.2       0.0       0.3       0.0       0.1       0.2
 3 C  s               0.9       0.1       0.1       0.1       0.4       0.5
 3 C  pz              4.6       3.3       0.6       0.3       0.1       0.1
 3 C  px              8.2       0.2       5.5       0.7       4.3       0.0
 3 C  py              0.1       0.0       7.4       0.1       1.8       0.3
 3 C  dz2             0.1       0.3       0.1       0.0       0.0       0.1
 3 C  dx2y2           0.1       0.0       0.1       0.0       0.0       0.6
 3 C  dxy             0.0       0.0       0.3       0.0       0.1       0.3
 4 C  s               0.2       0.1       0.1       0.0       0.1       8.2
 4 C  pz              0.6       0.3       0.0       3.9       0.0       2.5
 4 C  px              1.2       0.1       0.0       0.4       0.4      25.5
 4 C  py              0.1       0.3       1.8       0.2       4.4       0.9
 4 C  dz2             0.1       0.0       0.0       0.5       0.0       0.2
 4 C  dxz             0.0       0.0       0.0       0.3       0.0       0.3
 4 C  dx2y2           0.1       0.0       0.2       0.0       0.0       0.7
 4 C  dxy             0.1       0.0       0.0       0.0       0.6       0.1
 5 Cl s               0.1       0.0       0.0       0.0       0.0       4.8
 5 Cl pz              0.7       0.0       1.6      75.9       0.8       2.1
 5 Cl px              2.5       0.2       0.8       6.0       4.0      24.1
 5 Cl py              8.3       0.7       0.1       2.6      73.3       0.7
 5 Cl dz2             0.0       0.0       0.0       0.1       0.0       2.0
 5 Cl dxz             0.0       0.0       0.0       0.0       0.0       3.3
 5 Cl dx2y2           0.0       0.0       0.0       0.0       0.0       8.6
 5 Cl dxy             0.1       0.0       0.0       0.0       0.1       1.2
 6 H  s               0.0       6.2       0.0       0.0       0.0       0.0
 6 H  px              0.1       0.0       0.0       0.0       0.0       0.0
 7 H  s               3.1       2.4       1.8       0.0       0.0       0.0
 8 H  s               0.2       0.4       7.1       0.0       0.1       0.1
 8 H  px              0.1       0.0       0.0       0.0       0.0       0.0
 9 H  s               0.4      15.0       0.0       0.0       0.0       0.0
 9 H  px              0.1       0.0       0.0       0.0       0.0       0.0
 9 H  py              0.1       0.0       0.2       0.0       0.0       0.0
10 H  s               7.3       5.9       3.1       0.0       0.4       0.5
10 H  px              0.0       0.0       0.2       0.0       0.0       0.2
11 H  s               5.6       2.9       1.7       0.0       1.3       1.1
11 H  px              0.0       0.0       0.1       0.0       0.0       0.2
12 H  s               1.0      11.7       0.1       0.0       0.0       0.2
12 H  px              0.1       0.0       0.1       0.0       0.0       0.0
12 H  py              0.0       0.0       0.1       0.0       0.0       0.0
13 H  s               1.9       3.6       0.7       0.3       0.0       0.2
14 H  s               0.0       0.1       9.3       0.3       0.0       0.6
15 H  s               0.1       0.0       1.4       2.3       2.7       0.2
15 H  px              0.1       0.0       0.0       0.0       0.0       1.1
16 H  s               1.1       0.4       0.0       5.0       0.0       0.2
16 H  pz              0.0       0.0       0.0       0.0       0.0       0.2
16 H  px              0.0       0.0       0.0       0.0       0.0       1.0

                     30        31        32        33        34        35   
                   0.09236   0.09794   0.10520   0.11937   0.12787   0.13643
                   0.00000   0.00000   0.00000   0.00000   0.00000   0.00000
                  --------  --------  --------  --------  --------  --------
 0 C  s               6.6      17.6       1.0       0.2       6.1       1.5
 0 C  pz              0.0       0.3       0.1       1.6       1.7       3.9
 0 C  px              2.6       2.7       0.0       0.9       3.8       1.0
 0 C  py              0.0       0.5       0.6       1.7       2.3       2.3
 0 C  dz2             0.0       0.1       0.0       0.3       0.0       0.0
 0 C  dxz             0.0       0.2       0.0       0.3       0.0       0.0
 0 C  dyz             0.0       0.0       0.1       0.3       0.1       0.2
 0 C  dx2y2           0.0       0.5       0.0       0.1       0.0       0.0
 0 C  dxy             0.0       0.0       0.0       0.1       0.0       0.6
 1 C  s               0.6      17.2       0.7       0.2       3.8       0.3
 1 C  pz              2.1       0.6       1.8      12.4       0.3       2.9
 1 C  px              9.2       0.9       0.9       1.9       1.3       1.9
 1 C  py              0.8       2.3       7.7       2.2       2.0       3.3
 1 C  dz2             0.2       0.1       0.1       0.2       0.0       0.6
 1 C  dxz             0.3       0.0       0.0       0.3       0.0       0.1
 1 C  dyz             0.0       0.1       0.3       0.6       0.1       0.0
 1 C  dx2y2           0.5       0.1       0.4       0.0       0.0       0.0
 1 C  dxy             0.0       0.0       0.0       0.0       0.2       0.5
 2 C  s               0.7       5.2       9.9       0.3       2.3       1.9
 2 C  pz              0.6       1.3       0.0       5.2      10.3       7.5
 2 C  px              2.5       4.4       2.6       5.8       2.4       3.9
 2 C  py              2.6       1.6       3.9       2.2       6.3       2.9
 2 C  dz2             0.0       0.1       0.0       0.9       0.1       0.5
 2 C  dxz             0.1       0.1       0.1       0.3       0.3       0.2
 2 C  dyz             0.2       0.3       0.0       0.1       0.3       0.3
 2 C  dx2y2           0.2       0.2       0.8       0.2       0.0       0.3
 2 C  dxy             0.0       0.0       0.0       0.0       0.1       0.5
 3 C  s               9.2       0.1       8.6       0.4       1.1       2.9
 3 C  pz              0.7       0.2       0.9       3.1       3.7       6.5
 3 C  px              0.9       1.6       6.3       4.2       1.1       6.9
 3 C  py              1.5       0.2       6.9       0.8       4.7       4.0
 3 C  dz2             0.1       0.0       0.0       0.6       0.2       0.0
 3 C  dxz             0.0       0.3       0.2       0.2       0.0       0.7
 3 C  dyz             0.6       0.0       0.1       0.0       0.6       0.0
 3 C  dx2y2           0.1       0.0       0.7       0.5       0.3       0.1
 3 C  dxy             0.1       0.0       0.2       0.0       0.3       0.3
 4 C  s              14.6       1.4       7.1       2.9       1.1       1.6
 4 C  pz              1.6       0.4       1.1      16.1       2.7       0.2
 4 C  px              3.7       3.0       5.6       0.1       3.9       4.1
 4 C  py              3.3       1.7       8.7       2.3       3.6       2.2
 4 C  dz2             0.4       0.0       0.1       0.3       0.6       0.0
 4 C  dxz             0.1       0.0       0.2       0.0       0.2       0.0
 4 C  dyz             0.5       0.1       0.1       0.3       0.1       0.2
 4 C  dx2y2           0.3       0.0       0.6       0.0       0.1       0.0
 4 C  dxy             0.1       0.0       0.2       0.0       0.3       0.3
 5 Cl s               2.2       0.2       0.5       0.5       0.3       1.7
 5 Cl pz              0.0       0.2       0.1       0.0       0.2       0.2
 5 Cl px              1.1       1.1       0.1       0.1       0.0       0.2
 5 Cl py              0.1       0.0       0.2       0.0       0.1       0.1
 5 Cl dz2             0.3       0.1       0.2       0.2       0.2       0.0
 5 Cl dxz             0.1       0.7       0.0       0.9       0.4       0.5
 5 Cl dyz             0.8       0.2       0.2       0.1       0.1       0.9
 5 Cl dx2y2           0.0       0.8       2.3       0.1       0.4       0.7
 5 Cl dxy             0.2       0.0       0.1       0.4       0.6       0.0
 6 H  s               0.5       2.9       0.0       1.1       0.7       0.1
 6 H  pz              0.4       1.4       0.0       0.3       0.5       0.0
 6 H  px              0.1       0.3       0.0       0.1       0.0       0.0
 6 H  py              0.0       0.0       0.1       0.2       0.1       0.2
 7 H  s               0.2       2.6       0.0       0.0       0.9       3.0
 7 H  pz              0.0       0.4       0.0       0.1       0.0       0.3
 7 H  px              0.3       0.0       0.0       0.0       0.1       0.4
 7 H  py              0.2       1.2       0.0       0.1       0.6       0.5
 8 H  s               0.2       2.3       0.6       3.6       1.9       1.5
 8 H  pz              0.1       0.4       0.1       0.1       0.1       0.0
 8 H  py              0.1       1.2       0.2       0.3       0.3       0.0
 9 H  s               0.4       2.5       0.4       1.3       0.8       2.6
 9 H  pz              0.0       1.6       0.0       0.8       0.6       0.8
 9 H  px              0.4       0.0       0.1       0.4       0.0       0.1
 9 H  py              0.0       0.1       0.2       0.4       0.3       0.0
10 H  s               0.1       3.6       0.5       2.2       3.5       1.5
10 H  pz              0.0       0.5       0.1       0.4       0.4       0.1
10 H  px              0.4       0.2       0.0       0.0       0.5       0.4
10 H  py              0.0       1.4       0.8       0.1       0.7       0.5
11 H  s               0.0       1.1       1.6       0.1       0.5       5.3
11 H  pz              0.0       0.5       0.3       0.5       0.2       0.2
11 H  px              0.0       0.4       0.0       0.3       0.3       0.1
11 H  py              0.1       0.1       1.6       0.0       0.3       0.6
12 H  s               0.2       2.7       1.2       3.8       0.6       2.7
12 H  pz              0.2       0.9       0.9       1.0       0.4       1.7
12 H  px              0.2       0.1       0.1       0.4       0.1       0.3
12 H  py              0.2       0.3       0.0       0.1       0.1       0.3
13 H  s               2.2       0.1       0.2       2.0       1.2       1.5
13 H  pz              1.0       0.0       0.5       0.6       0.7       0.9
13 H  px              0.0       0.3       0.2       0.3       0.0       0.4
13 H  py              0.5       0.0       0.1       0.1       0.6       0.0
14 H  s               1.9       0.1       0.7       0.5       3.6       0.3
14 H  pz              0.8       0.0       0.0       0.3       0.2       0.0
14 H  px              0.2       0.0       0.1       0.1       0.0       0.5
14 H  py              0.3       0.0       1.4       0.0       0.4       0.1
15 H  s               6.8       1.1       2.8       0.2       1.6       0.7
15 H  pz              1.6       0.1       0.0       0.0       0.0       0.1
15 H  px              0.1       0.0       0.0       0.0       0.3       0.3
15 H  py              1.2       0.2       2.1       0.0       0.5       0.0
16 H  s               4.2       0.2       0.0       3.5       3.9       0.2
16 H  pz              1.5       0.0       0.2       1.8       1.2       0.0
16 H  px              0.2       0.0       0.3       0.0       0.1       0.0
16 H  py              0.5       0.1       0.1       0.1       0.1       0.2

                     36        37        38        39        40        41   
                   0.14115   0.16159   0.16866   0.18159   0.18753   0.19390
                   0.00000   0.00000   0.00000   0.00000   0.00000   0.00000
                  --------  --------  --------  --------  --------  --------
 0 C  s               8.0       0.3       0.7       0.2       0.0       0.3
 0 C  pz              1.4       0.7       9.0       0.7       3.9       7.8
 0 C  px             29.0       0.1       1.5       1.3       2.0      10.9
 0 C  py              2.8       2.2       0.4      14.7      20.3       1.7
 0 C  dz2             0.3       0.3       0.2       0.1       1.0       1.1
 0 C  dxz             0.2       0.1       0.6       0.0       0.0       0.1
 0 C  dyz             0.1       0.0       0.0       0.9       0.6       0.0
 0 C  dx2y2           1.3       0.0       0.0       0.2       0.4       0.3
 0 C  dxy             0.0       0.2       0.0       1.8       0.0       0.1
 1 C  s               5.9       1.2       2.5       0.4       0.8       0.5
 1 C  pz              1.9       3.4       7.6       0.3       0.7       0.1
 1 C  px              3.7       1.1       0.4       0.6       0.0       5.2
 1 C  py              2.7       9.4       0.2       4.4       2.8       4.9
 1 C  dz2             0.2       0.2       1.6       0.1       0.0       0.1
 1 C  dxz             0.0       0.1       0.1       0.0       0.2       0.1
 1 C  dyz             0.2       0.6       0.0       0.1       0.3       0.2
 1 C  dx2y2           0.6       0.1       0.0       0.0       0.4       0.0
 1 C  dxy             0.2       0.4       0.0       0.9       0.1       0.1
 2 C  s               0.3       8.6       0.8       0.6       0.1       0.1
 2 C  pz              0.2       1.1       0.3       4.2       0.5       5.3
 2 C  px              2.6       2.5       1.0       0.5       0.7       0.1
 2 C  py              3.1       6.4       2.5       0.5       2.4       3.5
 2 C  dz2             0.1       0.2       0.1       0.8       0.3       0.1
 2 C  dxz             0.2       0.1       0.1       0.0       0.0       0.0
 2 C  dyz             0.1       0.2       0.1       0.0       0.5       0.1
 2 C  dx2y2           0.0       0.0       0.0       0.0       0.2       0.0
 2 C  dxy             1.3       0.0       0.3       0.0       0.0       0.0
 3 C  s               1.1       4.7       2.8       0.9       0.9       0.1
 3 C  pz              2.1       2.4       0.6       3.9       2.5      11.8
 3 C  px              0.7       2.9       3.3       0.5       1.0       0.7
 3 C  py              0.9       3.1       7.1       7.0       7.6       3.8
 3 C  dz2             0.8       0.9       0.2       0.2       0.0       0.5
 3 C  dxz             0.0       0.0       0.0       0.3       0.0       0.1
 3 C  dyz             0.0       0.0       0.3       0.0       0.4       0.0
 3 C  dx2y2           0.0       0.0       0.2       0.0       0.1       0.0
 3 C  dxy             0.7       0.0       0.2       0.1       0.3       0.0
 4 C  s               0.6       0.5       0.6       1.0       1.6       0.1
 4 C  pz              0.7       3.7      10.1       1.5       0.8       0.7
 4 C  px              0.8       2.1       0.2       0.6       0.6       2.9
 4 C  py              1.9      12.2       0.6       6.8       4.1       3.4
 4 C  dz2             0.1       0.9       1.3       0.1       0.1       0.0
 4 C  dyz             0.5       0.2       0.1       0.6       0.3       0.0
 4 C  dx2y2           0.1       0.2       0.1       0.3       0.1       0.0
 4 C  dxy             0.0       0.4       0.0       0.1       0.4       0.4
 5 Cl s               0.1       0.1       0.3       0.2       0.1       0.4
 5 Cl pz              0.1       0.2       0.4       0.1       0.1       0.5
 5 Cl px              0.0       0.0       0.1       0.4       0.0       0.0
[...]
 0 C  py              0.1       0.1       0.1       0.0       0.0       0.0
 0 C  dz2             6.1       0.2       0.2       0.0       0.0       0.0
 0 C  dxz             0.0       0.9       0.1       0.0       0.0       0.0
 0 C  dyz             0.1       0.1       0.2       0.0       0.0       0.0
 0 C  dx2y2           0.0       2.6       0.7       0.0       0.0       0.0
 0 C  dxy             0.3       0.2       0.1       0.0       0.0       0.0
 1 C  s               0.2       1.5       0.1       1.9      13.0      78.1
 1 C  pz              4.7       0.7       1.5       0.0       0.0       0.0
 1 C  px              0.3       2.5       1.2       0.0       0.0       0.0
 1 C  py              1.0       1.7       1.6       0.0       0.0       0.0
 1 C  dz2            10.5       1.3       4.8       0.0       0.0       0.0
 1 C  dxz             0.1       0.5       0.9       0.0       0.0       0.0
 1 C  dyz             0.6       1.1       0.8       0.0       0.0       0.0
 1 C  dx2y2           0.3       3.3       1.6       0.0       0.0       0.0
 1 C  dxy             1.0       1.8       2.4       0.0       0.0       0.0
 2 C  s               0.0       2.4       0.0       5.3      11.1       1.5
 2 C  pz              0.1       4.3       2.4       0.0       0.0       0.0
 2 C  px              0.0       3.2       0.4       0.0       0.0       0.0
 2 C  py              0.1       0.4       1.7       0.0       0.0       0.0
 2 C  dz2             0.2       7.4       8.8       0.0       0.0       0.0
 2 C  dxz             0.1       1.0       0.3       0.0       0.0       0.0
 2 C  dyz             0.0       0.3       0.2       0.0       0.0       0.0
 2 C  dx2y2           0.2       2.8       0.8       0.0       0.0       0.0
 2 C  dxy             0.0       1.8       2.5       0.0       0.0       0.0
 3 C  s               0.1       1.9       0.1       3.2       0.0       5.5
 3 C  pz              2.7       1.6       2.2       0.0       0.0       0.0
 3 C  px              0.2       3.9       0.2       0.0       0.0       0.0
 3 C  py              2.1       1.1       0.5       0.0       0.0       0.0
 3 C  dz2             6.8       3.5       5.7       0.0       0.0       0.0
 3 C  dxz             0.4       1.1       0.1       0.0       0.0       0.0
 3 C  dyz             0.8       0.2       0.1       0.0       0.0       0.0
 3 C  dx2y2           1.0       3.9       1.0       0.0       0.0       0.0
 3 C  dxy             1.2       0.4       0.3       0.0       0.0       0.0
 4 C  s               0.0       0.1       0.0      85.4       9.8       0.5
 4 C  pz              0.2       0.0       0.1       0.0       0.0       0.0
 4 C  px              0.0       0.0       0.2       0.0       0.0       0.0
 4 C  py              0.2       0.3       0.0       0.0       0.0       0.0
 4 C  dz2             0.7       0.0       0.5       0.0       0.0       0.0
 4 C  dyz             0.2       0.3       0.0       0.0       0.0       0.0
 4 C  dx2y2           0.3       0.3       0.0       0.0       0.0       0.0
 4 C  dxy             0.2       0.2       0.0       0.0       0.0       0.0
 5 Cl px              0.0       0.1       0.0       0.0       0.0       0.0
 6 H  s               2.1       0.0       0.1       0.0       0.0       0.0
 6 H  pz              5.3       0.2       0.2       0.0       0.0       0.0
 6 H  px              0.1       0.2       0.1       0.0       0.0       0.0
 7 H  s               0.6       0.4       0.3       0.0       0.0       0.0
 7 H  pz              0.0       0.1       0.1       0.0       0.0       0.0
 7 H  px              0.7       0.0       0.3       0.0       0.0       0.0
 7 H  py              0.9       1.2       0.6       0.0       0.0       0.0
 8 H  s               0.0       0.1       0.0       0.0       0.0       0.0
 8 H  pz              0.0       0.2       0.0       0.0       0.0       0.0
 8 H  py              0.0       0.3       0.0       0.0       0.0       0.0
 9 H  s               4.5       0.5       1.6       0.0       0.0       0.0
 9 H  pz             11.0       1.8       3.6       0.0       0.0       0.0
 9 H  py              0.0       0.0       0.1       0.0       0.0       0.0
10 H  s               2.0       1.7       3.5       0.0       0.0       0.0
10 H  pz              0.1       0.9       0.8       0.0       0.0       0.0
10 H  px              2.0       0.7       0.9       0.0       0.0       0.0
10 H  py              2.6       3.3       7.5       0.0       0.0       0.0
11 H  s               0.1       0.3       3.3       0.0       0.0       0.0
11 H  pz              0.1       0.7       0.4       0.0       0.0       0.0
11 H  px              0.2       0.0       1.7       0.0       0.0       0.0
11 H  py              0.0       1.1       5.4       0.0       0.0       0.0
12 H  s               0.1       3.2       3.0       0.0       0.0       0.0
12 H  pz              0.3       8.9       7.3       0.0       0.0       0.0
12 H  px              0.1       0.1       0.0       0.0       0.0       0.0
12 H  py              0.0       0.1       0.1       0.0       0.0       0.0
13 H  s               2.8       1.1       2.3       0.0       0.0       0.0
13 H  pz              6.5       3.5       5.9       0.0       0.0       0.0
13 H  px              0.0       0.2       0.1       0.0       0.0       0.0
13 H  py              0.2       0.2       0.1       0.0       0.0       0.0
14 H  s               3.1       0.7       1.4       0.0       0.0       0.0
14 H  pz              0.4       0.7       0.2       0.0       0.0       0.0
14 H  px              1.1       0.0       0.5       0.0       0.0       0.0
14 H  py              5.5       1.5       2.2       0.0       0.0       0.0
15 H  s               0.3       0.2       0.1       0.0       0.0       0.0
15 H  pz              0.2       0.1       0.1       0.0       0.0       0.0
15 H  py              0.6       0.5       0.4       0.0       0.0       0.0
16 H  s               0.2       0.0       0.1       0.0       0.0       0.0
16 H  pz              0.5       0.0       0.3       0.0       0.0       0.0

                    174       175       176   
                  21.99665  22.02191  25.14872
                   0.00000   0.00000   0.00000
                  --------  --------  --------
 0 C  s               0.4      15.7       0.0
 1 C  s               6.2       0.5       0.0
 2 C  s               0.5      81.3       0.1
 3 C  s              90.6       0.3       0.1
 4 C  s               2.0       2.0       0.3
 5 Cl s               0.1       0.0      99.2


                      *****************************
                      * MAYER POPULATION ANALYSIS *
                      *****************************

  NA   - Mulliken gross atomic population
  ZA   - Total nuclear charge
  QA   - Mulliken gross atomic charge
  VA   - Mayer's total valence
  BVA  - Mayer's bonded valence
  FA   - Mayer's free valence

  ATOM       NA         ZA         QA         VA         BVA        FA
  0 C      6.4656     6.0000    -0.4656     3.8107     3.8107    -0.0000
  1 C      6.2514     6.0000    -0.2514     3.6778     3.6778     0.0000
  2 C      6.2801     6.0000    -0.2801     3.6271     3.6271    -0.0000
  3 C      6.2505     6.0000    -0.2505     3.6428     3.6428     0.0000
  4 C      6.1817     6.0000    -0.1817     3.8318     3.8318     0.0000
  5 Cl    17.2026    17.0000    -0.2026     1.0276     1.0276    -0.0000
  6 H      0.8590     1.0000     0.1410     0.9646     0.9646    -0.0000
  7 H      0.8564     1.0000     0.1436     0.9650     0.9650    -0.0000
  8 H      0.8518     1.0000     0.1482     0.9622     0.9622     0.0000
  9 H      0.8582     1.0000     0.1418     0.9604     0.9604    -0.0000
 10 H      0.8628     1.0000     0.1372     0.9614     0.9614     0.0000
 11 H      0.8529     1.0000     0.1471     0.9619     0.9619    -0.0000
 12 H      0.8614     1.0000     0.1386     0.9643     0.9643    -0.0000
 13 H      0.8485     1.0000     0.1515     0.9646     0.9646     0.0000
 14 H      0.8409     1.0000     0.1591     0.9597     0.9597     0.0000
 15 H      0.8351     1.0000     0.1649     0.9499     0.9499     0.0000
 16 H      0.8412     1.0000     0.1588     0.9517     0.9517     0.0000

  Mayer bond orders larger than 0.100000
B(  0-C ,  1-C ) :   0.9089 B(  0-C ,  6-H ) :   0.9799 B(  0-C ,  7-H ) :   0.9848 
B(  0-C ,  8-H ) :   0.9738 B(  1-C ,  2-C ) :   0.9128 B(  1-C ,  9-H ) :   0.9727 
B(  1-C , 10-H ) :   0.9678 B(  2-C ,  3-C ) :   0.8807 B(  2-C , 11-H ) :   0.9691 
B(  2-C , 12-H ) :   0.9789 B(  3-C ,  4-C ) :   0.9298 B(  3-C , 13-H ) :   0.9783 
B(  3-C , 14-H ) :   0.9683 B(  4-C ,  5-Cl) :   0.9782 B(  4-C , 15-H ) :   0.9634 
B(  4-C , 16-H ) :   0.9600 

-------
TIMINGS
-------

Total SCF time: 0 days 0 hours 0 min 16 sec 

Total time                  ....      16.672 sec
Sum of individual times     ....      16.233 sec  ( 97.4%)

SCF preparation             ....       0.168 sec  (  1.0%)
Fock matrix formation       ....      15.199 sec  ( 91.2%)
  Startup                   ....       0.057 sec  (  0.4% of F)
  Split-RI-J                ....       2.501 sec  ( 16.5% of F)
  XC integration            ....      12.130 sec  ( 79.8% of F)
    Basis function eval.    ....       2.314 sec  ( 19.1% of XC)
    Density eval.           ....       3.394 sec  ( 28.0% of XC)
    XC-Functional eval.     ....       1.881 sec  ( 15.5% of XC)
    XC-Potential eval.      ....       3.719 sec  ( 30.7% of XC)
Diagonalization             ....       0.000 sec  (  0.0%)
Density matrix formation    ....       0.229 sec  (  1.4%)
Total Energy calculation    ....       0.030 sec  (  0.2%)
Population analysis         ....       0.092 sec  (  0.6%)
Orbital Transformation      ....       0.057 sec  (  0.3%)
Orbital Orthonormalization  ....       0.000 sec  (  0.0%)
DIIS solution               ....       0.402 sec  (  2.4%)
  MO trafo                  ....       0.000 sec  (  0.0 % of DIIS)
  Orb grad                  ....       0.000 sec  (  0.0 % of DIIS)
  Energy W gradient         ....       0.000 sec  (  0.0 % of DIIS)
  DIIS error                ....       0.007 sec  (  1.7 % of DIIS)
  DIIS work                 ....       0.341 sec  ( 84.7 % of DIIS)
  Form Q                    ....       0.000 sec  (  0.0 % of DIIS)
  Form QpQm                 ....       0.000 sec  (  0.0 % of DIIS)
  Exp/Cayley                ....       0.000 sec  (  0.0 % of DIIS)
  Orb update                ....       0.000 sec  (  0.0 % of DIIS)
  Wake-sleep                ....       0.025 sec  (  6.3 % of DIIS)
SOSCF solution              ....       0.056 sec  (  0.3%)
  MO trafo                  ....       0.045 sec  ( 81.4 % of SOSCF)
  Orb grad                  ....       0.001 sec  (  1.3 % of SOSCF)
  Rot update                ....       0.000 sec  (  0.1 % of SOSCF)
  Step                      ....       0.010 sec  ( 17.1 % of SOSCF)
Finished LeanSCF after  16.8 sec

Maximum memory used throughout the entire LEANSCF-calculation: 18.5 MB


-------------------------------------------------------------------------------
                          DFT DISPERSION CORRECTION                            
                                                                               
                                DFTD4 V3.4.0                                   
-------------------------------------------------------------------------------
The R2SCAN3C composite method is recognized
Using three-body term ABC
Active option DFTDOPT                   ...         5   

-------------------------   ----------------
Dispersion correction           -0.004248931
-------------------------   ----------------

------------------   -----------------
gCP correction             0.010181120
------------------   -----------------

-------------------------   --------------------
FINAL SINGLE POINT ENERGY      -657.267719901751
-------------------------   --------------------


------------------------------------------------------------------------------
                              ORCA PROPERTY CALCULATIONS
------------------------------------------------------------------------------

GBWName                                 ... sp_gas.gbw
Number of atoms                         ...     17
Number of basis functions               ...    177
Max core memory                         ...   1024 MB

Electric properties:
Dipole moment                           ... YES
Quadrupole moment                       ...  NO
Static polarizability (Dipole/Dipole)   ...  NO
Static polarizability (Dipole/Quad.)    ...  NO
Static polarizability (Quad./Quad.)     ...  NO
Static polarizability (Velocity)        ...  NO

Atomic electric properties:
Dipole moment                           ...  NO
Quadrupole moment                       ...  NO
Static polarizability                   ...  NO

Choice of electric origin               ... Center of mass
Position of electric origin             ...     0.000030    -0.000000     0.000002

General magnetic properties:
Magnetizability                         ...  NO

EPR properties:
g-Tensor (aka g-matrix)                 ...  NO
Zero-Field splitting spin-orbit         ...  NO
Zero-field splitting spin-spin          ...  NO
Hyperfine couplings                     ...  NO (   0 nuclei)
Quadrupole couplings                    ...  NO (   0 nuclei)
Contact density                         ...  NO (   0 nuclei)

NMR properties:
Chemical shifts                         ...  NO (   0 nuclei)
Spin-rotation constants                 ...  NO (   0 nuclei)
Spin-spin couplings                     ...  NO (   0 nuclei,    0 pairs)

Choice of magnetic origin               ... GIAO
Position of magnetic origin             ...     0.000000     0.000000     0.000000

Properties with geometric perturbations:
SCF Hessian                             ...  NO
IR spectrum                             ...  NO
VCD spectrum                            ...  NO
X-ray spectroscopy properties:
SCF XES/XAS/RIXS spectra                ...  NO


-------------
DIPOLE MOMENT
-------------

Method             : SCF
Type of density    : Electron Density
Multiplicity       :   1
Irrep              :   0
Energy             :  -657.2736520907972135 Eh
Relativity type    : 
Basis              : AO
                                X                 Y                 Z
Electronic contribution:    -18.670154548       0.159074130      -1.116524352
Nuclear contribution   :     19.600397594      -0.192157416       1.294932334
                        -----------------------------------------
Total Dipole Moment    :      0.930243046      -0.033083286       0.178407982
                        -----------------------------------------
Magnitude (a.u.)       :      0.947774254
Magnitude (Debye)      :      2.409050702



--------------------
Rotational spectrum 
--------------------
 
Rotational constants in cm-1:             0.356919             0.029641             0.028635 
Rotational constants in MHz :         10700.156597           888.618057           858.460093 

Dipole components along the rotational axes: 
x,y,z [a.u.] :     0.935670    -0.014326     0.150305 
x,y,z [Debye]:     2.378285    -0.036413     0.382046 

 

Dipole moment calculation done in   0.0 sec 

Maximum memory used throughout the entire PROP-calculation: 10.2 MB

--------------------------------
SUGGESTED CITATIONS FOR THIS RUN
--------------------------------

Below you find a list of papers that are relevant to this ORCA run
We neither can nor want to force you to cite these papers, but we appreciate if you do
You receive ORCA, which is the product of decades of hard work by many enthusiastic individuals, for free
The only thing we kindly ask in return is that you cite our papers,
We deeply appreciate it, if you show your appreciation for ORCA by not just citing the generic ORCA reference.

Please note that relegating all ORCA citations to the supporting information does *not* help us.
SI sections are not indexed - citations you put there will not count into any citation statistics
But we need these citations in order to attract the funding resources that allow us to do what we are doing

Therefore, if you are a happy ORCA user, please consider citing a few of the papers listed below in the main body of your paper

In addition to the list printed below, the program has created the file sp_gas.bibtex that contains the list in bibtex format
You can import this file easily into all common literature databanks and citation aid programs


List of essential papers. We consider these as the minimum necessary citations

  1. Neese,F.
     Software update: the ORCA program system, version 5.0
     WIRES Comput. Molec. Sci., 2022 12(1)e1606
     doi.org/10.1002/wcms.1606
  2. Grimme,S.; Hansen,A.; Ehlert,S.; Mewes,J.
     r2SCAN-3c: A 'Swiss army knife' composite electronic-structure method
     J. Chem. Phys., 2021 154 064103
     doi.org/10.1063/5.0040021

List of papers to cite with high priority. The work reported in these papers was absolutely
necessary for this run to complete.
Our perspective: the developers of density functionals and basis sets usually get cited in chemistry papers
Good! But without the algorithms to do something with them, the functionals or basis sets would not do anything.
Hence, in our opinion, the algorithm design and method developments papers are equally worthy of getting cited

  1. Neese,F.
     An improvement of the resolution of the identity approximation for the formation of the Coulomb matrix
     J. Comp. Chem., 2003 24(14)1740-1747
     doi.org/10.1002/jcc.10318
  2. Neese,F.
     The SHARK Integral Generation and Digestion System
     J. Comp. Chem., 2022  1-16
     doi.org/10.1002/jcc.26942
  3. Lehtola,S.; Steigemann,C.; Oliveira,M.; Marques,M.
     Recent developments in Libxc - A comprehensive library of functionals for density functional theory
     Software X, 2018 7 
     doi.org/10.1016/j.softx.2017.11.002
  4. Caldeweyher,E.; Bannwarth,C.; Grimme,S.
     Extension of the D3 dispersion coefficient model
     J. Chem. Phys., 2017 147 034112-XXXX
     doi.org/10.1063/1.4993215
  5. Caldeweyher,E.; Ehlert,S.; Hansen,A.; Neugebauer,H.; Spicher,S.; Bannwarth,C.; Grimme,S.
     A generally applicable atomic-charge dependent London dispersion correction
     J. Chem. Phys., 2019 150 154122-XXXX
     doi.org/10.1063/1.5090222
  6. Caldeweyher,E.; Mewes,J.; Ehlert,S.; Grimme,S.
     Extension and evaluation of the D4 London-dispersion model for periodic systems
     Phys. Chem. Chem. Phys., 2020 22(16)8499-8512
     doi.org/10.1039/D0CP00502A

List of suggested additional citations. These are papers that are important in the 'surrounding' of 
of this run, or papers that preceded the highly important papers. If you like your results we are grateful for a citation.

  1. Neese,F.
     The ORCA program system
     WIRES Comput. Molec. Sci., 2012 2(1)73-78
     doi.org/10.1002/wcms.81
  2. Neese,F.
     Software update: the ORCA program system, version 4.0
     WIRES Comput. Molec. Sci., 2018 8(1)1-6
     doi.org/10.1002/wcms.1327
  3. Neese,F.; Wennmohs,F.; Becker,U.; Riplinger,C.
     The ORCA quantum chemistry program package
     J. Chem. Phys., 2020 152 Art. No. L224108
     doi.org/10.1063/5.0004608

List of optional additional citations

  1. Neese,F.
     Approximate second-order SCF convergence for spin unrestricted wavefunctions
     Chem. Phys. Lett., 2000 325(1-3)93-98
     doi.org/10.1016/s0009-2614(00)00662-x

Timings for individual modules:

Sum of individual times          ...       18.222 sec (=   0.304 min)
Startup calculation              ...        1.068 sec (=   0.018 min)   5.9 %
SCF iterations                   ...       17.038 sec (=   0.284 min)  93.5 %
Property calculations            ...        0.116 sec (=   0.002 min)   0.6 %
                             ****ORCA TERMINATED NORMALLY****
TOTAL RUN TIME: 0 days 0 hours 0 minutes 18 seconds 958 msec
