      -----------------------------------------------------------      
     |                   =====================                   |     
     |                           x T B                           |     
     |                   =====================                   |     
     |                         S. Grimme                         |     
     |          Mulliken Center for Theoretical Chemistry        |     
     |                    University of Bonn                     |     
      -----------------------------------------------------------      

   * xtb version 6.7.1 (edcfbbe) compiled by 'albert@albert-system' on 2024-07-22

   xtb is free software: you can redistribute it and/or modify it under
   the terms of the GNU Lesser General Public License as published by
   the Free Software Foundation, either version 3 of the License, or
   (at your option) any later version.
   
   xtb is distributed in the hope that it will be useful,
   but WITHOUT ANY WARRANTY; without even the implied warranty of
   MERCHANTABILITY or FITNESS FOR A PARTICULAR PURPOSE.  See the
   GNU Lesser General Public License for more details.
   
   Cite this work as:
   * C. Bannwarth, E. Caldeweyher, S. Ehlert, A. Hansen, P. Pracht,
     J. Seibert, S. Spicher, S. Grimme, WIREs Comput. Mol. Sci., 2020, 11,
     e01493. DOI: 10.1002/wcms.1493
   
   for GFN2-xTB:
   * C. Bannwarth, S. Ehlert and S. Grimme., J. Chem. Theory Comput., 2019,
     15, 1652-1671. DOI: 10.1021/acs.jctc.8b01176
   for GFN1-xTB:
   * S. Grimme, C. Bannwarth, P. Shushkov, J. Chem. Theory Comput., 2017,
     13, 1989-2009. DOI: 10.1021/acs.jctc.7b00118
   for GFN0-xTB:
   * P. Pracht, E. Caldeweyher, S. Ehlert, S. Grimme, ChemRxiv, 2019, preprint.
     DOI: 10.26434/chemrxiv.8326202.v1
   for GFN-FF:
   * S. Spicher and S. Grimme, Angew. Chem. Int. Ed., 2020, 59, 15665-15673.
     DOI: 10.1002/anie.202004239
   
   for ALPB and GBSA implicit solvation:
   * S. Ehlert, M. Stahn, S. Spicher, S. Grimme, J. Chem. Theory Comput.,
     2021, 17, 4250-4261. DOI: 10.1021/acs.jctc.1c00471
   
   for ddCOSMO and CPCM-X implicit solvation:
   * M. Stahn, S. Ehlert, S. Grimme, J. Phys. Chem. A,
     2023, XX, XXXX-XXXX. DOI: 10.1021/acs.jpca.3c04382
   
   for DFT-D4:
   * E. Caldeweyher, C. Bannwarth and S. Grimme, J. Chem. Phys., 2017,
     147, 034112. DOI: 10.1063/1.4993215
   * E. Caldeweyher, S. Ehlert, A. Hansen, H. Neugebauer, S. Spicher,
     C. Bannwarth and S. Grimme, J. Chem. Phys., 2019, 150, 154122.
     DOI: 10.1063/1.5090222
   * E. Caldeweyher, J.-M. Mewes, S. Ehlert and S. Grimme, Phys. Chem. Chem. Phys.
     2020, 22, 8499-8512. DOI: 10.1039/D0CP00502A
   
   for sTDA-xTB:
   * S. Grimme and C. Bannwarth, J. Chem. Phys., 2016, 145, 054103.
     DOI: 10.1063/1.4959605
   
   in the mass-spec context:
   * V. Asgeirsson, C. Bauer and S. Grimme, Chem. Sci., 2017, 8, 4879.
     DOI: 10.1039/c7sc00601b
   * J. Koopman and S. Grimme, ACS Omega 2019, 4, 12, 15120-15133.
     DOI: 10.1021/acsomega.9b02011
   
   for metadynamics refer to:
   * S. Grimme, J. Chem. Theory Comput., 2019, 155, 2847-2862
     DOI: 10.1021/acs.jctc.9b00143
   
   for SPH calculations refer to:
   * S. Spicher and S. Grimme, J. Chem. Theory Comput., 2021, 17, 1701-1714
     DOI: 10.1021/acs.jctc.0c01306
   
   for ONIOM refer to:
   * C. Plett, A. Katbashev, S. Ehlert, S. Grimme, M. Bursch,
     Phys. Chem. Chem. Phys., 2023, 25, 17860-17868. DOI: 10.1039/D3CP02178E
   
   for DIPRO refer to:
   * J. Kohn, N. Gildemeister, S. Grimme, D. Fazzi, A. Hansen,
     J. Chem. Phys., 2023, just accepted.
   
   for PTB refer to:
   * S. Grimme, M. Mueller, A. Hansen, J. Chem. Phys., 2023, 158, 124111.
     DOI: 10.1063/5.0137838
   
   with help from (in alphabetical order)
   P. Atkinson, C. Bannwarth, F. Bohle, G. Brandenburg, E. Caldeweyher
   M. Checinski, S. Dohm, S. Ehlert, S. Ehrlich, I. Gerasimov, C. Hölzer
   A. Katbashev, J. Kohn, J. Koopman, C. Lavigne, S. Lehtola, F. März, M. Müller,
   F. Musil, H. Neugebauer, J. Pisarek, C. Plett, P. Pracht, F. Pultar,
   J. Seibert, P. Shushkov, S. Spicher, M. Stahn, M. Steiner, T. Strunk,
   J. Stückrath, T. Rose, and J. Unsleber
   
 * started run on 2025/04/11 at 15:53:54.091     
   ID    Z sym.   atoms
    1    6 C      1-4, 7, 8
    2    8 O      5, 6
    3    1 H      9-20

           -------------------------------------------------
          |                Calculation Setup                |
           -------------------------------------------------

          program call               : /srv/scratch/z5358697/.xtb/bin/xtb solv.coord --gfn2 --sp --chrg 0 --norestart --parallel 1 --alpb water reference -I xtb_sp-xcontrol-inp
          hostname                   : k061
          coordinate file            : solv.coord
          omp threads                :                     1


           -------------------------------------------------
          |                 G F N 2 - x T B                 |
           -------------------------------------------------

        Reference                      10.1021/acs.jctc.8b01176
      * Hamiltonian:
        H0-scaling (s, p, d)           1.850000    2.230000    2.230000
        zeta-weighting                 0.500000
      * Dispersion:
        s8                             2.700000
        a1                             0.520000
        a2                             5.000000
        s9                             5.000000
      * Repulsion:
        kExp                           1.500000    1.000000
        rExp                           1.000000
      * Coulomb:
        alpha                          2.000000
        third order                    shell-resolved
        anisotropic                    true
        a3                             3.000000
        a5                             4.000000
        cn-shift                       1.200000
        cn-exp                         4.000000
        max-rad                        5.000000

      * Solvation model:               ALPB
        Solvent                        water
        Parameter file                 internal GFN2-xTB/ALPB
        Dielectric constant                8.0200E+01
        Reference state                gsolv=reference [X=1]
        Free energy shift                  2.8945E-03 Eh       1.8164E+00 kcal/mol
        Temperature                        2.9815E+02 K
        Density                            1.0000E+00 kg/L
        Solvent mass                       1.8000E+01 g/mol
        Interaction kernel             P16
        Born radius scaling (c1)           1.4744E+00
        Born radii integrator          GBOBC
        Born offset                        0.0000E+00 a0       0.0000E+00 AA
        H-bond correction              true
        Ion screening                  false
        Surface tension                    1.0000E-05 Eh       1.5569E+01 dyn/cm
        Grid points                               974 per atom

          ...................................................
          :                      SETUP                      :
          :.................................................:
          :  # basis functions                  44          :
          :  # atomic orbitals                  44          :
          :  # shells                           28          :
          :  # electrons                        48          :
          :  max. iterations                   250          :
          :  Hamiltonian                  GFN2-xTB          :
          :  restarted?                      false          :
          :  GBSA solvation                   true          :
          :  PC potential                    false          :
          :  electronic temp.          300.0000000     K    :
          :  accuracy                    1.0000000          :
          :  -> integral cutoff          0.2500000E+02      :
          :  -> integral neglect         0.1000000E-07      :
          :  -> SCF convergence          0.1000000E-05 Eh   :
          :  -> wf. convergence          0.1000000E-03 e    :
          :  Broyden damping             0.4000000          :
          :  net charge                          0          :
          :  unpaired electrons                  0          :
          ...................................................

 iter      E             dE          RMSdq      gap      omega  full diag
   1    -27.3725283 -0.273725E+02  0.391E+00    5.69       0.0  T
   2    -27.4337471 -0.612188E-01  0.196E+00    4.74       1.0  T
   3    -27.4355734 -0.182639E-02  0.101E+00    5.06       1.0  T
   4    -27.4369867 -0.141325E-02  0.154E-01    4.83       1.0  T
   5    -27.4371786 -0.191872E-03  0.669E-02    4.88       1.0  T
   6    -27.4371806 -0.199091E-05  0.237E-02    4.87       1.0  T
   7    -27.4371816 -0.100166E-05  0.424E-03    4.87       5.3  T
   8    -27.4371816 -0.316216E-07  0.243E-03    4.87       9.2  T
   9    -27.4371816 -0.113888E-07  0.426E-04    4.87      52.4  T
  10    -27.4371816 -0.429516E-09  0.233E-04    4.87      96.1  T

   *** convergence criteria satisfied after 10 iterations ***

         #    Occupation            Energy/Eh            Energy/eV
      -------------------------------------------------------------
         1        2.0000           -0.7492827             -20.3890
       ...           ...                  ...                  ...
        18        2.0000           -0.4676373             -12.7251
        19        2.0000           -0.4537954             -12.3484
        20        2.0000           -0.4509357             -12.2706
        21        2.0000           -0.4460472             -12.1376
        22        2.0000           -0.4450025             -12.1091
        23        2.0000           -0.4371170             -11.8946
        24        2.0000           -0.4178730             -11.3709 (HOMO)
        25                         -0.2387939              -6.4979 (LUMO)
        26                         -0.0029489              -0.0802
        27                          0.0952739               2.5925
        28                          0.1120011               3.0477
        29                          0.1182300               3.2172
       ...                                ...                  ...
        44                          0.6148863              16.7319
      -------------------------------------------------------------
                  HL-Gap            0.1790791 Eh            4.8730 eV
             Fermi-level           -0.3283334 Eh           -8.9344 eV

 SCC (total)                   0 d,  0 h,  0 min,  0.021 sec
 SCC setup                      ...        0 min,  0.002 sec ( 11.035%)
 Dispersion                     ...        0 min,  0.000 sec (  0.853%)
 classical contributions        ...        0 min,  0.000 sec (  0.194%)
 integral evaluation            ...        0 min,  0.003 sec ( 14.479%)
 iterations                     ...        0 min,  0.010 sec ( 48.472%)
 molecular gradient             ...        0 min,  0.005 sec ( 24.177%)
 printout                       ...        0 min,  0.000 sec (  0.697%)

         :::::::::::::::::::::::::::::::::::::::::::::::::::::
         ::                     SUMMARY                     ::
         :::::::::::::::::::::::::::::::::::::::::::::::::::::
         :: total energy             -27.120937370263 Eh    ::
         :: total w/o Gsasa/hb       -27.122634072141 Eh    ::
         :: gradient norm              0.000121655295 Eh/a0 ::
         :: HOMO-LUMO gap              4.872991069315 eV    ::
         ::.................................................::
         :: SCC energy               -27.437154270292 Eh    ::
         :: -> isotropic ES            0.058744779750 Eh    ::
         :: -> anisotropic ES          0.001008095599 Eh    ::
         :: -> anisotropic XC          0.008184893832 Eh    ::
         :: -> dispersion             -0.011926843221 Eh    ::
         :: -> Gsolv                  -0.007224432505 Eh    ::
         ::    -> Gelec               -0.008921134384 Eh    ::
         ::    -> Gsasa                0.000970988482 Eh    ::
         ::    -> Ghb                 -0.002168835763 Eh    ::
         ::    -> Gshift               0.002894549160 Eh    ::
         :: repulsion energy           0.316216900029 Eh    ::
         :: add. restraining           0.000000000000 Eh    ::
         :: total charge              -0.000000000000 e     ::
         :::::::::::::::::::::::::::::::::::::::::::::::::::::

           -------------------------------------------------
          |                Property Printout                |
           -------------------------------------------------

    * Orbital Energies and Occupations

         #    Occupation            Energy/Eh            Energy/eV
      -------------------------------------------------------------
         1        2.0000           -0.7492827             -20.3890
       ...           ...                  ...                  ...
        12        2.0000           -0.5190721             -14.1247
        13        2.0000           -0.5128204             -13.9546
        14        2.0000           -0.5074283             -13.8078
        15        2.0000           -0.4961579             -13.5011
        16        2.0000           -0.4905874             -13.3496
        17        2.0000           -0.4781998             -13.0125
        18        2.0000           -0.4676373             -12.7251
        19        2.0000           -0.4537954             -12.3484
        20        2.0000           -0.4509357             -12.2706
        21        2.0000           -0.4460472             -12.1376
        22        2.0000           -0.4450025             -12.1091
        23        2.0000           -0.4371170             -11.8946
        24        2.0000           -0.4178730             -11.3709 (HOMO)
        25                         -0.2387939              -6.4979 (LUMO)
        26                         -0.0029489              -0.0802
        27                          0.0952739               2.5925
        28                          0.1120011               3.0477
        29                          0.1182300               3.2172
        30                          0.1268326               3.4513
        31                          0.1390950               3.7850
        32                          0.1564672               4.2577
        33                          0.1573860               4.2827
        34                          0.1726036               4.6968
        35                          0.1821469               4.9565
       ...                                ...                  ...
        44                          0.6148863              16.7319
      -------------------------------------------------------------
                  HL-Gap            0.1790791 Eh            4.8730 eV
             Fermi-level           -0.3283334 Eh           -8.9344 eV

     #   Z          covCN         q      C6AA      α(0)
     1   6 C        3.752    -0.112    22.702     6.795
     2   6 C        3.802    -0.058    21.611     6.619
     3   6 C        3.804    -0.101    22.422     6.741
     4   6 C        2.713     0.368    20.757     7.458
     5   8 O        0.856    -0.487    23.502     6.500
     6   8 O        1.703    -0.270    18.483     5.804
     7   6 C        3.694     0.069    19.596     6.333
     8   6 C        3.750    -0.127    23.001     6.840
     9   1 H        0.925     0.050     2.319     2.381
    10   1 H        0.925     0.046     2.375     2.410
    11   1 H        0.925     0.027     2.629     2.535
    12   1 H        0.924     0.051     2.310     2.377
    13   1 H        0.924     0.060     2.197     2.318
    14   1 H        0.925     0.084     1.936     2.176
    15   1 H        0.925     0.074     2.047     2.237
    16   1 H        0.924     0.081     1.965     2.192
    17   1 H        0.924     0.056     2.241     2.341
    18   1 H        0.925     0.066     2.134     2.285
    19   1 H        0.925     0.070     2.081     2.256
    20   1 H        0.925     0.052     2.290     2.366

 Mol. C6AA /au·bohr⁶  :       2998.663463
 Mol. C8AA /au·bohr⁸  :      63845.477397
 Mol. α(0) /au        :         80.963483


Wiberg/Mayer (AO) data.
largest (>0.10) Wiberg bond orders for each atom

 ---------------------------------------------------------------------------
     #   Z sym  total        # sym  WBO       # sym  WBO       # sym  WBO
 ---------------------------------------------------------------------------
     1   6 C    3.996 --     2 C    1.022    11 H    0.988    10 H    0.987
                             9 H    0.986
     2   6 C    3.991 --     1 C    1.022     3 C    0.982    12 H    0.977
                            13 H    0.975
     3   6 C    3.989 --     2 C    0.982     4 C    0.978    15 H    0.973
                            14 H    0.956
     4   6 C    3.903 --     5 O    1.696     6 O    1.166     3 C    0.978
     5   8 O    1.974 --     4 C    1.696     6 O    0.170
     6   8 O    2.318 --     4 C    1.166     7 C    0.921     5 O    0.170
     7   6 C    3.913 --     8 C    1.013    17 H    0.970    16 H    0.969
                             6 O    0.921
     8   6 C    3.989 --     7 C    1.013    20 H    0.986    18 H    0.985
                            19 H    0.980
     9   1 H    0.997 --     1 C    0.986
    10   1 H    0.998 --     1 C    0.987
    11   1 H    0.999 --     1 C    0.988
    12   1 H    0.997 --     2 C    0.977
    13   1 H    0.996 --     2 C    0.975
    14   1 H    0.993 --     3 C    0.956
    15   1 H    0.995 --     3 C    0.973
    16   1 H    0.993 --     7 C    0.969
    17   1 H    0.997 --     7 C    0.970
    18   1 H    0.996 --     8 C    0.985
    19   1 H    0.994 --     8 C    0.980
    20   1 H    0.997 --     8 C    0.986
 ---------------------------------------------------------------------------

Topologies differ in total number of bonds
Writing topology from bond orders to xtbtopo.mol

molecular dipole:
                 x           y           z       tot (Debye)
 q only:        0.075      -0.355       1.128
   full:        0.078      -0.357       1.116       2.986
molecular quadrupole (traceless):
                xx          xy          yy          xz          yz          zz
 q only:        8.840      -2.515      -1.348       0.049       2.497      -7.491
  q+dip:        7.240      -2.953      -0.185       0.428       2.727      -7.056
   full:        7.596      -2.390       0.174       0.410       3.128      -7.770


           -------------------------------------------------
          | TOTAL ENERGY              -27.120937370263 Eh   |
          | GRADIENT NORM               0.000121655295 Eh/α |
          | HOMO-LUMO GAP               4.872991069315 eV   |
           -------------------------------------------------

------------------------------------------------------------------------
 * finished run on 2025/04/11 at 15:53:54.151     
------------------------------------------------------------------------
 total:
 * wall-time:     0 d,  0 h,  0 min,  0.060 sec
 *  cpu-time:     0 d,  0 h,  0 min,  0.031 sec
 * ratio c/w:     0.524 speedup
 SCF:
 * wall-time:     0 d,  0 h,  0 min,  0.021 sec
 *  cpu-time:     0 d,  0 h,  0 min,  0.018 sec
 * ratio c/w:     0.859 speedup

