
                                 *****************
                                 * O   R   C   A *
                                 *****************

                                            #,                                       
                                            ###                                      
                                            ####                                     
                                            #####                                    
                                            ######                                   
                                           ########,                                 
                                     ,,################,,,,,                         
                               ,,#################################,,                 
                          ,,##########################################,,             
                       ,#########################################, ''#####,          
                    ,#############################################,,   '####,        
                  ,##################################################,,,,####,       
                ,###########''''           ''''###############################       
              ,#####''   ,,,,##########,,,,          '''####'''          '####       
            ,##' ,,,,###########################,,,                        '##       
           ' ,,###''''                  '''############,,,                           
         ,,##''                                '''############,,,,        ,,,,,,###''
      ,#''                                            '''#######################'''  
     '                                                          ''''####''''         
             ,#######,   #######,   ,#######,      ##                                
            ,#'     '#,  ##    ##  ,#'     '#,    #''#        ,####,   ,####,        
            ##       ##  ##   ,#'  ##            #'  '#       #'       #'  '#        
            ##       ##  #######   ##           ,######,      #####,   #    #        
            '#,     ,#'  ##    ##  '#,     ,#' ,#      #,     #,   #   #,  ,#        
             '#######'   ##     ##  '#######'  #'      '#     '####' # '####'        



                #########################################################
                #                        -***-                          #
                #          Department of theory and spectroscopy        #
                #                                                       #
                #                      Frank Neese                      #
                #                                                       #
                #     Directorship, Architecture, Infrastructure        #
                #                    SHARK, DRIVERS                     #
                #        Core code/Algorithms in most modules           #
                #                                                       #
                #        Max Planck Institute fuer Kohlenforschung      #
                #                Kaiser Wilhelm Platz 1                 #
                #                 D-45470 Muelheim/Ruhr                 #
                #                      Germany                          #
                #                                                       #
                #                  All rights reserved                  #
                #                        -***-                          #
                #########################################################


                         Program Version 6.0.0  -   RELEASE  -


 With contributions from (in alphabetic order):
   Daniel Aravena         : Magnetic Suceptibility
   Michael Atanasov       : Ab Initio Ligand Field Theory (pilot matlab implementation)
   Alexander A. Auer      : GIAO ZORA, VPT2 properties, NMR spectrum
   Ute Becker             : All parallelization in ORCA, NUMFREQ, NUMCALC
   Giovanni Bistoni       : ED, misc. LED, open-shell LED, HFLD
   Martin Brehm           : Molecular dynamics
   Dmytro Bykov           : pre 5.0 version of the SCF Hessian
   Marcos Casanova-Páez   : Triplet and SCS-CIS(D). UHF-(DLPNO)-IP/EA/STEOM-CCSD. UHF-CVS-IP/STEOM-CCSD
   Vijay G. Chilkuri      : MRCI spin determinant printing, contributions to CSF-ICE
   Pauline Colinet        : FMM embedding
   Dipayan Datta          : RHF DLPNO-CCSD density
   Achintya Kumar Dutta   : EOM-CC, STEOM-CC
   Nicolas Foglia         : Exact transition moments, OPA infrastructure, MCD improvements
   Dmitry Ganyushin       : Spin-Orbit,Spin-Spin,Magnetic field MRCI
   Miquel Garcia          : C-PCM and meta-GGA Hessian, CCSD/C-PCM, Gaussian charge scheme
   Tiago L. C. Gouveia    : GS-ROHF, GS-ROCIS
   Yang Guo               : DLPNO-NEVPT2, F12-NEVPT2, CIM, IAO-localization
   Andreas Hansen         : Spin unrestricted coupled pair/coupled cluster methods
   Ingolf Harden          : AUTO-CI MPn and infrastructure 
   Benjamin Helmich-Paris : MC-RPA, TRAH-(SCF,CASSCF), AVAS, COSX integrals, SCF dyn. polar.
   Lee Huntington         : MR-EOM, pCC
   Robert Izsak           : Overlap fitted RIJCOSX, COSX-SCS-MP3, EOM
   Riya Kayal             : Wick's Theorem for AUTO-CI, AUTO-CI UHF-CCSDT
   Emily Kempfer          : AUTO-CI, RHF CISDT and CCSDT
   Christian Kollmar      : KDIIS, OOCD, Brueckner-CCSD(T), CCSD density, CASPT2, CASPT2-K, improved NEVPT2
   Axel Koslowski         : Symmetry handling
   Simone Kossmann        : Meta GGA functionals, TD-DFT gradient, OOMP2, (MP2 Hessian; deprecated post 5.0)
   Lucas Lang             : DCDCAS
   Marvin Lechner         : AUTO-CI (C++ implementation), FIC-MRCC
   Spencer Leger          : CASSCF response
   Dagmar Lenk            : GEPOL surface, SMD, ORCA-2-JSON
   Dimitrios Liakos       : Extrapolation schemes; Compound Job, initial MDCI parallelization
   Dimitrios Manganas     : Further ROCIS development; embedding schemes. LFT, Crystal Embedding
   Dimitrios Pantazis     : SARC Basis sets
   Anastasios Papadopoulos: AUTO-CI, single reference methods and gradients
   Taras Petrenko         : pre 6.0 DFT Hessian and TD-DFT gradient, (ASA, deprecated), ECA, 1-Electron XAS/XES, NRVS
   Peter Pinski           : DLPNO-MP2, DLPNO-MP2 Gradient
   Christoph Reimann      : Effective Core Potentials
   Marius Retegan         : Local ZFS, SOC
   Christoph Riplinger    : Optimizer, TS searches, QM/MM, DLPNO-CCSD(T), (RO)-DLPNO pert. Triples
   Michael Roemelt        : Original ROCIS implementation
   Masaaki Saitow         : Open-shell DLPNO-CCSD energy and density
   Barbara Sandhoefer     : DKH picture change effects
   Kantharuban Sivalingam : CASSCF convergence/infrastructure, NEVPT2 and variants, FIC-MRCI
   Bernardo de Souza      : ESD, SOC TD-DFT
   Georgi Stoychev        : AutoAux, RI-MP2 NMR, DLPNO-MP2 response, X2C
   Van Anh Tran           : RI-MP2 g-tensors
   Willem Van den Heuvel  : Paramagnetic NMR
   Zikuan Wang            : NOTCH, Electric field optimization 
   Frank Wennmohs         : Technical directorship and infrastructure
   Hang Xu                : AUTO-CI-Response properties 


 We gratefully acknowledge several colleagues who have allowed us to
 interface, adapt or use parts of their codes:
   Stefan Grimme, W. Hujo, H. Kruse, P. Pracht,  : VdW corrections, initial TS optimization,
                  C. Bannwarth, S. Ehlert,         DFT functionals, gCP, sTDA/sTD-DF
                  L. Wittmann, M. Mueller
   Ed Valeev, F. Pavosevic, A. Kumar             : LibInt (2-el integral package), F12 methods
   Garnet Chan, S. Sharma, J. Yang, R. Olivares  : DMRG
   Ulf Ekstrom                                   : XCFun DFT Library
   Mihaly Kallay                                 : mrcc  (arbitrary order and MRCC methods)
   Frank Weinhold                                : gennbo (NPA and NBO analysis)
   Simon Mueller                                 : openCOSMO-RS
   Christopher J. Cramer and Donald G. Truhlar   : smd solvation model
   Lars Goerigk                                  : TD-DFT with DH, B97 family of functionals
   V. Asgeirsson, H. Jonsson                     : NEB implementation
   FAccTs GmbH                                   : IRC, NEB, NEB-TS, DLPNO-Multilevel, CI-OPT
                                                   MM, QMMM, 2- and 3-layer-ONIOM, Crystal-QMMM,
                                                   LR-CPCM, SF, NACMEs, symmetry and pop. for TD-DFT,
                                                   nearIR, NL-DFT gradient (VV10), updates on ESD,
                                                   ML-optimized integration grids, MBIS, APM,
                                                   GOAT, DOCKER, SOLVATOR, interface openCOSMO-RS
   S Lehtola, MJT Oliveira, MAL Marques          : LibXC Library
   Liviu Ungur et al                             : ANISO software


 Your calculation uses the libint2 library for the computation of 2-el integrals
 For citations please refer to: http://libint.valeyev.net

 Your ORCA version has been built with support for libXC version: 6.2.2
 For citations please refer to: https://libxc.gitlab.io

 This ORCA versions uses:
   CBLAS   interface :  Fast vector & matrix operations
   LAPACKE interface :  Fast linear algebra routines
   SCALAPACK package :  Parallel linear algebra routines
   Shared memory     :  Shared parallel matrices
   BLAS/LAPACK       :  OpenBLAS 0.3.27  USE64BITINT DYNAMIC_ARCH NO_AFFINITY SkylakeX SINGLE_THREADED
        Core in use  :  SkylakeX
   Copyright (c) 2011-2014, The OpenBLAS Project


Your calculation utilizes the geometrical counterpoise correction gCP
Please cite in your paper:
H.Kruse, S. Grimme J.Chem.Phys., 136, (2012), 154101 
   

Your calculation utilizes the atom-pairwise dispersion correction
based on EEQ partial charges (D4)


================================================================================

----- Orbital basis set information -----
Your calculation utilizes the basis: def2-mTZVPP
   Stefan Grimme, Andreas Hansen, Sebastian Ehlert, and Jan-Michael Mewes 
   J. Chem. Phys. 154, 064103 (2021). DOI: 10.1063/5.0040021

----- AuxJ basis set information -----
Your calculation utilizes the auxiliary basis: def2/J
   F. Weigend, Phys. Chem. Chem. Phys. 8, 1057 (2006).

================================================================================
                                        WARNINGS
                       Please study these warnings very carefully!
================================================================================

Using LibXC functional ID 497 : Re-regularized SCAN exchange by Furness et al
[ 1]  J. W. Furness, A. D. Kaplan, J. Ning, J. P. Perdew, and J. Sun.,  J. Phys. Chem. Lett. 11, 8208-8215 (2020)
[ 2]  J. W. Furness, A. D. Kaplan, J. Ning, J. P. Perdew, and J. Sun.,  J. Phys. Chem. Lett. 11, 9248-9248 (2020)
Using LibXC functional ID 498 : Re-regularized SCAN correlation by Furness et al
[ 1]  J. W. Furness, A. D. Kaplan, J. Ning, J. P. Perdew, and J. Sun.,  J. Phys. Chem. Lett. 11, 8208-8215 (2020)
[ 2]  J. W. Furness, A. D. Kaplan, J. Ning, J. P. Perdew, and J. Sun.,  J. Phys. Chem. Lett. 11, 9248-9248 (2020)
Using LibXC functional ID 497 : Re-regularized SCAN exchange by Furness et al
[ 1]  J. W. Furness, A. D. Kaplan, J. Ning, J. P. Perdew, and J. Sun.,  J. Phys. Chem. Lett. 11, 8208-8215 (2020)
[ 2]  J. W. Furness, A. D. Kaplan, J. Ning, J. P. Perdew, and J. Sun.,  J. Phys. Chem. Lett. 11, 9248-9248 (2020)
Using LibXC functional ID 498 : Re-regularized SCAN correlation by Furness et al
[ 1]  J. W. Furness, A. D. Kaplan, J. Ning, J. P. Perdew, and J. Sun.,  J. Phys. Chem. Lett. 11, 8208-8215 (2020)
[ 2]  J. W. Furness, A. D. Kaplan, J. Ning, J. P. Perdew, and J. Sun.,  J. Phys. Chem. Lett. 11, 9248-9248 (2020)

================================================================================
                                       INPUT FILE
================================================================================
NAME = sp_gas.inp
|  1> ! r2scan-3c def2/J RI DEFGRID2 scfconv6 printgap
|  2> %output
|  3>     printlevel normal
|  4> end
|  5> * xyz 0 1
|  6> C 2.3920831165 0.6160341211 0.6126824695
|  7> C 1.1337992294 -0.1344558063 0.1734972326
|  8> C 1.2995770474 -0.601620849 -1.2728391898
|  9> N 0.0043270657 0.7817926218 0.3146007193
| 10> C -1.3677392935 0.2766668773 0.2738475134
| 11> C -1.6146641305 -1.0118865869 1.071045532
| 12> C -1.8717545155 0.1220834873 -1.1637238378
| 13> H 2.3153209623 0.9245182616 1.6534870598
| 14> H 3.2664834934 -0.0205142704 0.5082719918
| 15> H 2.5237575699 1.5012752987 -0.0035006238
| 16> H 1.0262110905 -1.0251124931 0.8201859016
| 17> H 1.2257309295 0.2501050699 -1.942342564
| 18> H 0.5417306352 -1.3291982083 -1.5447612382
| 19> H 2.2737827629 -1.0674720994 -1.3981701579
| 20> H 0.1297014288 1.2852484067 1.1854507035
| 21> H -1.9656845663 1.0735111195 0.7346335568
| 22> H -1.1253874226 -1.8607317049 0.5989663779
| 23> H -1.2410270347 -0.913015942 2.0888616982
| 24> H -2.681544325 -1.2133646225 1.1132021995
| 25> H -1.5541647833 0.9747727701 -1.7558811862
| 26> H -2.9580068883 0.0776048721 -1.1647287779
| 27> H -1.4950402488 -0.7849453104 -1.6251702679
| 28> *
| 29> 
| 30>                          ****END OF INPUT****
================================================================================

                       ****************************
                       * Single Point Calculation *
                       ****************************

---------------------------------
CARTESIAN COORDINATES (ANGSTROEM)
---------------------------------
  C      2.392083    0.616034    0.612682
  C      1.133799   -0.134456    0.173497
  C      1.299577   -0.601621   -1.272839
  N      0.004327    0.781793    0.314601
  C     -1.367739    0.276667    0.273848
  C     -1.614664   -1.011887    1.071046
  C     -1.871755    0.122083   -1.163724
  H      2.315321    0.924518    1.653487
  H      3.266483   -0.020514    0.508272
  H      2.523758    1.501275   -0.003501
  H      1.026211   -1.025112    0.820186
  H      1.225731    0.250105   -1.942343
  H      0.541731   -1.329198   -1.544761
  H      2.273783   -1.067472   -1.398170
  H      0.129701    1.285248    1.185451
  H     -1.965685    1.073511    0.734634
  H     -1.125387   -1.860732    0.598966
  H     -1.241027   -0.913016    2.088862
  H     -2.681544   -1.213365    1.113202
  H     -1.554165    0.974773   -1.755881
  H     -2.958007    0.077605   -1.164729
  H     -1.495040   -0.784945   -1.625170

----------------------------
CARTESIAN COORDINATES (A.U.)
----------------------------
  NO LB      ZA    FRAG     MASS         X           Y           Z
   0 C     6.0000    0    12.011    4.520382    1.164136    1.157802
   1 C     6.0000    0    12.011    2.142570   -0.254085    0.327862
   2 C     6.0000    0    12.011    2.455845   -1.136899   -2.405317
   3 N     7.0000    0    14.007    0.008177    1.477374    0.594509
   4 C     6.0000    0    12.011   -2.584653    0.522825    0.517497
   5 C     6.0000    0    12.011   -3.051273   -1.912189    2.023983
   6 C     6.0000    0    12.011   -3.537103    0.230704   -2.199119
   7 H     1.0000    0     1.008    4.375323    1.747086    3.124638
   8 H     1.0000    0     1.008    6.172759   -0.038766    0.960495
   9 H     1.0000    0     1.008    4.769211    2.836999   -0.006615
  10 H     1.0000    0     1.008    1.939258   -1.937182    1.549927
  11 H     1.0000    0     1.008    2.316296    0.472630   -3.670496
  12 H     1.0000    0     1.008    1.023723   -2.511821   -2.919176
  13 H     1.0000    0     1.008    4.296827   -2.017230   -2.642159
  14 H     1.0000    0     1.008    0.245100    2.428768    2.240177
  15 H     1.0000    0     1.008   -3.714605    2.028642    1.388256
  16 H     1.0000    0     1.008   -2.126674   -3.516273    1.131882
  17 H     1.0000    0     1.008   -2.345201   -1.725350    3.947377
  18 H     1.0000    0     1.008   -5.067384   -2.292927    2.103647
  19 H     1.0000    0     1.008   -2.936946    1.842054   -3.318135
  20 H     1.0000    0     1.008   -5.589823    0.146652   -2.201018
  21 H     1.0000    0     1.008   -2.825217   -1.483332   -3.071127

--------------------------------
INTERNAL COORDINATES (ANGSTROEM)
--------------------------------
 C      0   0   0     0.000000000000     0.00000000     0.00000000
 C      1   0   0     1.529508791729     0.00000000     0.00000000
 C      2   1   0     1.528925933073   109.41184595     0.00000000
 N      2   1   3     1.461207974427   107.48748197   238.75302656
 C      4   2   1     1.462661592986   120.38811518   194.32718636
 C      5   4   2     1.535208971472   115.23121447    43.34612883
 C      5   4   2     1.531188674939   111.70339133   276.20279516
 H      1   2   3     1.088268849341   110.83499108   182.29571506
 H      1   2   3     1.086587052057   110.30284615   302.28538051
 H      1   2   3     1.086587184107   109.67057069    62.32202497
 H      2   1   3     1.105916260838   107.89618425   117.88497668
 H      3   2   1     1.085875249796   109.64631649   287.26506253
 H      3   2   1     1.085191963966   111.48012706   166.59632792
 H      3   2   1     1.087107177410   109.70416278    46.96854397
 H      4   2   1     1.013689377104   107.38464439   318.51897636
 H      5   4   2     1.097644329181   104.39514961   161.22321445
 H      6   5   4     1.087560784040   110.93694419   290.27033476
 H      6   5   4     1.088728539150   110.73421804    51.18755406
 H      6   5   4     1.086555996192   109.49422813   170.80368599
 H      7   5   4     1.085630036552   109.66455924   318.46375085
 H      7   5   4     1.087163085525   109.50496110   199.02394814
 H      7   5   4     1.085148693242   111.67568836    79.20382880

---------------------------
INTERNAL COORDINATES (A.U.)
---------------------------
 C      0   0   0     0.000000000000     0.00000000     0.00000000
 C      1   0   0     2.890352735792     0.00000000     0.00000000
 C      2   1   0     2.889251292558   109.41184595     0.00000000
 N      2   1   3     2.761282896368   107.48748197   238.75302656
 C      4   2   1     2.764029837348   120.38811518   194.32718636
 C      5   4   2     2.901124514422   115.23121447    43.34612883
 C      5   4   2     2.893527254997   111.70339133   276.20279516
 H      1   2   3     2.056530085333   110.83499108   182.29571506
 H      1   2   3     2.053351949052   110.30284615   302.28538051
 H      1   2   3     2.053352198591   109.67057069    62.32202497
 H      2   1   3     2.089878860035   107.89618425   117.88497668
 H      3   2   1     2.052006837718   109.64631649   287.26506253
 H      3   2   1     2.050715614628   111.48012706   166.59632792
 H      3   2   1     2.054334843526   109.70416278    46.96854397
 H      4   2   1     1.915595307591   107.38464439   318.51897636
 H      5   4   2     2.074247174604   104.39514961   161.22321445
 H      6   5   4     2.055192035828   110.93694419   290.27033476
 H      6   5   4     2.057398773177   110.73421804    51.18755406
 H      6   5   4     2.053293261972   109.49422813   170.80368599
 H      7   5   4     2.051543451843   109.66455924   318.46375085
 H      7   5   4     2.054440494551   109.50496110   199.02394814
 H      7   5   4     2.050633844810   111.67568836    79.20382880

---------------------
BASIS SET INFORMATION
---------------------
There are 3 groups of distinct atoms

 Group   1 Type C   : 11s6p1d contracted to 5s3p1d pattern {62111/411/1}
 Group   2 Type N   : 11s6p2d contracted to 5s3p2d pattern {62111/411/11}
 Group   3 Type H   : 4s1p contracted to 2s1p pattern {31/1}

Atom   0C    basis set group =>   1
Atom   1C    basis set group =>   1
Atom   2C    basis set group =>   1
Atom   3N    basis set group =>   2
Atom   4C    basis set group =>   1
Atom   5C    basis set group =>   1
Atom   6C    basis set group =>   1
Atom   7H    basis set group =>   3
Atom   8H    basis set group =>   3
Atom   9H    basis set group =>   3
Atom  10H    basis set group =>   3
Atom  11H    basis set group =>   3
Atom  12H    basis set group =>   3
Atom  13H    basis set group =>   3
Atom  14H    basis set group =>   3
Atom  15H    basis set group =>   3
Atom  16H    basis set group =>   3
Atom  17H    basis set group =>   3
Atom  18H    basis set group =>   3
Atom  19H    basis set group =>   3
Atom  20H    basis set group =>   3
Atom  21H    basis set group =>   3
---------------------------------
AUXILIARY/J BASIS SET INFORMATION
---------------------------------
There are 3 groups of distinct atoms

 Group   1 Type C   : 12s5p4d2f1g contracted to 6s4p3d1f1g pattern {711111/2111/211/2/1}
 Group   2 Type N   : 12s5p4d2f1g contracted to 6s4p3d1f1g pattern {711111/2111/211/2/1}
 Group   3 Type H   : 5s2p1d contracted to 3s1p1d pattern {311/2/1}

Atom   0C    basis set group =>   1
Atom   1C    basis set group =>   1
Atom   2C    basis set group =>   1
Atom   3N    basis set group =>   2
Atom   4C    basis set group =>   1
Atom   5C    basis set group =>   1
Atom   6C    basis set group =>   1
Atom   7H    basis set group =>   3
Atom   8H    basis set group =>   3
Atom   9H    basis set group =>   3
Atom  10H    basis set group =>   3
Atom  11H    basis set group =>   3
Atom  12H    basis set group =>   3
Atom  13H    basis set group =>   3
Atom  14H    basis set group =>   3
Atom  15H    basis set group =>   3
Atom  16H    basis set group =>   3
Atom  17H    basis set group =>   3
Atom  18H    basis set group =>   3
Atom  19H    basis set group =>   3
Atom  20H    basis set group =>   3
Atom  21H    basis set group =>   3

Checking for AutoStart:
The File: sp_gas.gbw exists
Trying to determine its content:
     ... Fine, the file contains calculation information
     ... Fine, the calculation information was read
     ... Fine, the file contains a basis set
     ... Fine, the basis set was read
     ... Fine, the file contains a geometry
     ... Fine, the geometry was read
     ... Fine, the file contains a set of orbitals
     ... Fine, the orbitals can be read
     => possible old guess file was deleted
     => GBW file was renamed to GES file
     => GES file is set as startup file
     => Guess is set to MORead
     ... now leaving AutoStart

------------------------------------------------------------------------------
                             ORCA STARTUP CALCULATIONS
                           -- RI-GTO INTEGRALS CHOSEN --
------------------------------------------------------------------------------
------------------------------------------------------------------------------
                   ___                                                        
                  /   \      - P O W E R E D   B Y -                         
                 /     \                                                     
                 |  |  |   _    _      __       _____    __    __             
                 |  |  |  | |  | |    /  \     |  _  \  |  |  /  |          
                  \  \/   | |  | |   /    \    | | | |  |  | /  /          
                 / \  \   | |__| |  /  /\  \   | |_| |  |  |/  /          
                |  |  |   |  __  | /  /__\  \  |    /   |      \           
                |  |  |   | |  | | |   __   |  |    \   |  |\   \          
                \     /   | |  | | |  |  |  |  | |\  \  |  | \   \       
                 \___/    |_|  |_| |__|  |__|  |_| \__\ |__|  \__/        
                                                                              
                      - O R C A' S   B I G   F R I E N D -                    
                                      &                                       
                       - I N T E G R A L  F E E D E R -                       
                                                                              
 v1 FN, 2020, v2 2021, v3 2022-2024                                           
------------------------------------------------------------------------------


----------------------
SHARK INTEGRAL PACKAGE
----------------------

Number of atoms                             ...     22
Number of basis functions                   ...    213
Number of shells                            ...    109
Maximum angular momentum                    ...      2
Integral batch strategy                     ... SHARK/LIBINT Hybrid
RI-J (if used) integral strategy            ... SPLIT-RIJ (Revised 2003 algorithm where possible)
Printlevel                                  ...      1
Contraction scheme used                     ... SEGMENTED contraction
Prescreening option                         ... SCHWARTZ
   Thresh                                   ... 1.000e-10
   Tcut                                     ... 1.000e-11
   Tpresel                                  ... 1.000e-11 
Coulomb Range Separation                    ... NOT USED
Exchange Range Separation                   ... NOT USED
Multipole approximations                    ... NOT USED
Finite Nucleus Model                        ... NOT USED
CABS basis                                  ... NOT available
Auxiliary Coulomb fitting basis             ... AVAILABLE
   # of basis functions in Aux-J            ...    508
   # of shells in Aux-J                     ...    180
   Maximum angular momentum in Aux-J        ...      4
Auxiliary J/K fitting basis                 ... NOT available
Auxiliary Correlation fitting basis         ... NOT available
Auxiliary 'external' fitting basis          ... NOT available

Checking pre-screening integrals            ... done (  0.0 sec) Dimension = 109
Check shell pair data                       ... done (  0.0 sec)
Shell pair information
Shell pair cut-off parameter TPreSel        ...   1.0e-11
Total number of shell pairs                 ...      5995
Shell pairs after pre-screening             ...      5522
Total number of primitive shell pairs       ...     20702
Primitive shell pairs kept                  ...     13752
          la=0 lb=0:   1971 shell pairs
          la=1 lb=0:   2143 shell pairs
          la=1 lb=1:    606 shell pairs
          la=2 lb=0:    493 shell pairs
          la=2 lb=1:    273 shell pairs
          la=2 lb=2:     36 shell pairs

Calculating one electron integrals          ... done (  0.0 sec)
Calculating RI/J V-Matrix + Cholesky decomp.... done (  0.1 sec)
Calculating Nuclear repulsion               ... done (  0.0 sec) ENN=    340.279872687912 Eh

Diagonalization of the overlap matrix:
Smallest eigenvalue                        ... 1.363e-04
Time for diagonalization                   ...    0.008 sec
Threshold for overlap eigenvalues          ... 1.000e-07
Number of eigenvalues below threshold      ... 0
Time for construction of square roots      ...    0.019 sec
Total time needed                          ...    0.038 sec

-------------------
DFT GRID GENERATION
-------------------

General Integration Accuracy     IntAcc      ... 4.388
Radial Grid Type                 RadialGrid  ... OptM3 with GC (2021)
Angular Grid (max. ang.)         AngularGrid ... 4 (Lebedev-302)
Angular grid pruning method      GridPruning ... 4 (adaptive)
Weight generation scheme         WeightScheme... mBecke (2022)
Basis function cutoff            BFCut       ... 1.0000e-10
Integration weight cutoff        WCut        ... 1.0000e-14
Partially contracted basis set               ... off
Rotationally invariant grid construction     ... off
Angular grids for H and He will be reduced by one unit

Total number of grid points                  ...    89812
Total number of batches                      ...     1415
Average number of points per batch           ...       63
Average number of grid points per atom       ...     4082
Initializing property integral containers    ... done (  0.0 sec)

SHARK setup successfully completed in   1.3 seconds

Maximum memory used throughout the entire STARTUP-calculation: 38.7 MB
-------------------------------------------------------------------------------
                                 ORCA GUESS
                   Start orbitals & Density for SCF / CASSCF
-------------------------------------------------------------------------------

------------
SCF SETTINGS
------------
Hamiltonian:
 Density Functional     Method          .... DFT(GTOs)
  Functional kind                       .... Exchange
  Functional name                       .... Re-regularized SCAN exchange by Furness et al
  Functional family                     .... MGGA
  Functional refs                              
    [ 0] J. W. Furness, A. D. Kaplan, J. Ning, J. P. Perdew, and J. Sun.,  J. Phys. Chem. Lett. 11, 8208-8215 (2020), doi: 10.1021/acs.jpclett.0c02405
    [ 1] J. W. Furness, A. D. Kaplan, J. Ning, J. P. Perdew, and J. Sun.,  J. Phys. Chem. Lett. 11, 9248-9248 (2020), doi: 10.1021/acs.jpclett.0c03077
  Functional external parameters        .... 6
    Parameter  0 _c1        =  6.670000e-01 : c1 parameter        
    Parameter  1 _c2        =  8.000000e-01 : c2 parameter        
    Parameter  2 _d         =  1.240000e+00 : d parameter         
    Parameter  3 _k1        =  6.500000e-02 : k1 parameter        
    Parameter  4 _eta       =  1.000000e-03 : eta parameter       
    Parameter  5 _dp2       =  3.610000e-01 : dp2 parameter       
  Functional kind                       .... Correlation
  Functional name                       .... Re-regularized SCAN correlation by Furness et al
  Functional family                     .... MGGA
  Functional refs                              
    [ 0] J. W. Furness, A. D. Kaplan, J. Ning, J. P. Perdew, and J. Sun.,  J. Phys. Chem. Lett. 11, 8208-8215 (2020), doi: 10.1021/acs.jpclett.0c02405
    [ 1] J. W. Furness, A. D. Kaplan, J. Ning, J. P. Perdew, and J. Sun.,  J. Phys. Chem. Lett. 11, 9248-9248 (2020), doi: 10.1021/acs.jpclett.0c03077
  Functional external parameters        .... 1
    Parameter  0 _eta       =  1.000000e-03 : Regularization parameter
 Gradients option       PostSCFGGA      .... off
 RI-approximation to the Coulomb term is turned on
   Number of AuxJ basis functions       .... 508


General Settings:
 Integral files         IntName         .... sp_gas
 Hartree-Fock type      HFTyp           .... RHF
 Total Charge           Charge          ....    0
 Multiplicity           Mult            ....    1
 Number of Electrons    NEL             ....   58
 Basis Dimension        Dim             ....  213
 Nuclear Repulsion      ENuc            ....    340.2798726879 Eh

Convergence Acceleration:
 AO-DIIS                CNVDIIS         .... on
   Start iteration      DIISMaxIt       ....    12
   Startup error        DIISStart       ....  0.200000
   # of expansion vecs  DIISMaxEq       ....     5
   Bias factor          DIISBfac        ....   1.050
   Max. coefficient     DIISMaxC        ....  10.000
 MO-DIIS                CNVKDIIS        .... off
 Trust-Rad. Augm. Hess. CNVTRAH         .... auto
   Auto Start mean grad. ratio tolernc. ....  1.125000
   Auto Start start iteration           ....     1
   Auto Start num. interpolation iter.  ....    10
   Max. Number of Micro iterations      ....    24
   Max. Number of Macro iterations      .... Maxiter - #DIIS iter
   Number of Davidson start vectors     ....     2
   Converg. threshold    (grad. norm)   ....   3.330e-04
   Grad. Scal. Fac. for Micro threshold ....   0.100
   Minimum threshold for Micro iter.    ....   1.000e-02
   NR start threshold (gradient norm)   ....   1.000e-04
   Initial trust radius                 ....   0.400
   Minimum AH scaling param. (alpha)    ....   1.000
   Maximum AH scaling param. (alpha)    .... 1000.000
   Quad. conv. algorithm                .... NR
   White noise on init. David. guess    .... on
   Maximum white noise                  ....   0.010
   Pseudo random numbers                .... off
   Inactive MOs                         .... canonical
   Orbital update algorithm             .... Taylor
   Preconditioner                       .... Diag
   Full preconditioner red. dimension   ....   250
   COSX micro iterations for RIJONX calc.... off
 SOSCF                  CNVSOSCF        .... on
   Start iteration      SOSCFMaxIt      ....   150
   Startup grad/error   SOSCFStart      ....  0.003300
   Hessian update       SOSCFHessUp     .... L-BFGS
 Level Shifting         CNVShift        .... on
   Level shift para.    LevelShift      ....    0.2500
   Turn off err/grad.   ShiftErr        ....    0.0010
 Zerner damping         CNVZerner       .... off
 Static damping         CNVDamp         .... on
   Fraction old density DampFac         ....    0.7000
   Max. Damping (<1)    DampMax         ....    0.9800
   Min. Damping (>=0)   DampMin         ....    0.0000
   Turn off err/grad.   DampErr         ....    0.1000

SCF Procedure:
 Maximum # iterations   MaxIter         ....   125
 SCF integral mode      SCFMode         .... Direct
   Integral package                     .... SHARK and LIBINT hybrid scheme
 Reset frequency        DirectResetFreq ....    20
 Integral Threshold     Thresh          ....  1.000e-10 Eh
 Primitive CutOff       TCut            ....  1.000e-11 Eh

Convergence Tolerance:
 Convergence Check Mode ConvCheckMode   .... Total+1el-Energy
 Convergence forced     ConvForced      .... 0
 Energy Change          TolE            ....  1.000e-06 Eh
 1-El. energy change                    ....  1.000e-03 Eh
 Orbital Gradient       TolG            ....  3.330e-04
 Orbital Rotation angle TolX            ....  3.330e-04
 DIIS Error             TolErr          ....  1.000e-06

---------------------
INITIAL GUESS: MOREAD
---------------------
Guess MOs are being read from file: sp_gas.ges
Input Geometry matches current geometry (good)
Atom 0: N(Shells)= 9 and 6 - projection required
Input basis set needs projection
NBasis(read)= 128
NBasis(calc)= 213
Basis set overlap was calculated
Using GuessMode=FMatrix for the initial guess
C*T matrix was formed
Effective Fockian was calculated
Effective Fockian was diagonalized
Initial density was built
                      ------------------
                      INITIAL GUESS DONE (   0.1 sec)
                      ------------------
             **** ENERGY FILE WAS UPDATED (sp_gas.en.tmp) ****
Finished Guess after   0.3 sec
Maximum memory used throughout the entire GUESS-calculation: 14.8 MB

-------------------------------------------------------------------------------------------
                                      ORCA LEAN-SCF
                              memory conserving SCF solver
-------------------------------------------------------------------------------------------

----------------------------------------D-I-I-S--------------------------------------------
Iteration    Energy (Eh)           Delta-E    RMSDP     MaxDP     DIISErr   Damp  Time(sec)
-------------------------------------------------------------------------------------------
               ***  Starting incremental Fock matrix formation  ***
    1    -292.1585612250712529     0.00e+00  4.24e-03  1.77e-01  4.34e-01  0.700   2.7
    2    -292.2073042280991331    -4.87e-02  3.37e-03  1.15e-01  3.05e-01  0.700   2.7
    3    -292.2418483079452471    -3.45e-02  2.45e-03  7.68e-02  2.14e-01  0.700   2.3
                               ***Turning on AO-DIIS***
    4    -292.2661095981807193    -2.43e-02  1.77e-03  5.09e-02  1.50e-01  0.700   2.3
    5    -292.2831313761665797    -1.70e-02  1.25e-03  3.48e-02  1.05e-01  0.700   2.3
    6    -292.2950695495923128    -1.19e-02  8.85e-04  2.40e-02  7.32e-02  0.700   2.1
    7    -292.3034386106346574    -8.37e-03  2.07e-03  5.55e-02  5.13e-02  0.000   2.1
                              *** Initializing SOSCF ***
---------------------------------------S-O-S-C-F--------------------------------------
Iteration    Energy (Eh)           Delta-E    RMSDP     MaxDP     MaxGrad    Time(sec)
--------------------------------------------------------------------------------------
    8    -292.3230063023856928    -1.96e-02  1.62e-05  4.72e-04  2.10e-04     2.2
               *** Restarting incremental Fock matrix formation ***
    9    -292.3230064659783238    -1.64e-07  8.94e-06  2.67e-04  4.43e-05     2.8
                  *** Gradient check signals convergence ***

               *****************************************************
               *                     SUCCESS                       *
               *           SCF CONVERGED AFTER   9 CYCLES          *
               *****************************************************

             **** ENERGY FILE WAS UPDATED (sp_gas.en.tmp) ****

----------------
TOTAL SCF ENERGY
----------------

Total Energy       :       -292.32300646597832 Eh           -7954.51341 eV

Components:
Nuclear Repulsion  :        340.27987268791207 Eh            9259.48608 eV
Electronic Energy  :       -632.60287915389040 Eh          -17213.99948 eV
One Electron Energy:      -1067.40170925722964 Eh          -29045.47715 eV
Two Electron Energy:        434.79883010333924 Eh           11831.47767 eV

Virial components:
Potential Energy   :       -583.29205460789956 Eh          -15872.18373 eV
Kinetic Energy     :        290.96904814192123 Eh            7917.67033 eV
Virial Ratio       :          2.00465327268554

DFT components:
N(Alpha)           :       28.999973621335 electrons
N(Beta)            :       28.999973621335 electrons
N(Total)           :       57.999947242671 electrons
E(X)               :      -43.221091587310 Eh       
E(C)               :       -1.798737831646 Eh       
E(XC)              :      -45.019829418957 Eh       

---------------
SCF CONVERGENCE
---------------

  Last Energy change         ...    1.6359e-07  Tolerance :   1.0000e-06
  Last MAX-Density change    ...    2.6714e-04  Tolerance :   1.0000e-05
  Last RMS-Density change    ...    8.9426e-06  Tolerance :   1.0000e-06
  Last DIIS Error            ...    2.0969e-04  Tolerance :   1.0000e-06
  Last Orbital Gradient      ...    4.4339e-05  Tolerance :   3.3300e-04
  Last Orbital Rotation      ...    6.0281e-05  Tolerance :   3.3300e-04


----------------
ORBITAL ENERGIES
----------------

  NO   OCC          E(Eh)            E(eV) 
   0   2.0000     -14.132787      -384.5727 
   1   2.0000     -10.056301      -273.6459 
   2   2.0000     -10.054784      -273.6046 
   3   2.0000     -10.015309      -272.5304 
   4   2.0000     -10.014318      -272.5034 
   5   2.0000     -10.009261      -272.3658 
   6   2.0000     -10.007741      -272.3245 
   7   2.0000      -0.867966       -23.6186 
   8   2.0000      -0.749574       -20.3969 
   9   2.0000      -0.697759       -18.9870 
  10   2.0000      -0.651198       -17.7200 
  11   2.0000      -0.645622       -17.5683 
  12   2.0000      -0.562268       -15.3001 
  13   2.0000      -0.512613       -13.9489 
  14   2.0000      -0.458766       -12.4836 
  15   2.0000      -0.441444       -12.0123 
  16   2.0000      -0.413370       -11.2484 
  17   2.0000      -0.392037       -10.6679 
  18   2.0000      -0.376832       -10.2541 
  19   2.0000      -0.365036        -9.9331 
  20   2.0000      -0.354919        -9.6578 
  21   2.0000      -0.353287        -9.6134 
  22   2.0000      -0.341979        -9.3057 
  23   2.0000      -0.323080        -8.7915 
  24   2.0000      -0.314275        -8.5519 
  25   2.0000      -0.302054        -8.2193 
  26   2.0000      -0.292867        -7.9693 
  27   2.0000      -0.285385        -7.7657 
  28   2.0000      -0.185766        -5.0549 
  29   0.0000       0.066658         1.8139 
  30   0.0000       0.102253         2.7824 
  31   0.0000       0.114752         3.1225 
  32   0.0000       0.123890         3.3712 
  33   0.0000       0.130379         3.5478 
  34   0.0000       0.135770         3.6945 
  35   0.0000       0.144992         3.9454 
  36   0.0000       0.146885         3.9970 
  37   0.0000       0.151436         4.1208 
  38   0.0000       0.154142         4.1944 
  39   0.0000       0.168777         4.5927 
*Only the first 10 virtual orbitals were printed.

                    ********************************
                    * MULLIKEN POPULATION ANALYSIS *
                    ********************************

-----------------------
MULLIKEN ATOMIC CHARGES
-----------------------
   0 C :   -0.495887
   1 C :   -0.021493
   2 C :   -0.473061
   3 N :   -0.291444
   4 C :   -0.072573
   5 C :   -0.459426
   6 C :   -0.467982
   7 H :    0.135013
   8 H :    0.145495
   9 H :    0.162858
  10 H :    0.138105
  11 H :    0.169866
  12 H :    0.137874
  13 H :    0.139840
  14 H :    0.223249
  15 H :    0.143272
  16 H :    0.152008
  17 H :    0.146279
  18 H :    0.146825
  19 H :    0.162127
  20 H :    0.141220
  21 H :    0.137836
Sum of atomic charges:   -0.0000000

--------------------------------
MULLIKEN REDUCED ORBITAL CHARGES
--------------------------------
  0 C s       :     3.346720  s :     3.346720
      pz      :     1.075485  p :     3.122543
      px      :     0.987930
      py      :     1.059127
      dz2     :     0.006722  d :     0.026625
      dxz     :     0.002561
      dyz     :     0.005521
      dx2y2   :     0.004594
      dxy     :     0.007228

  1 C s       :     3.147729  s :     3.147729
      pz      :     0.962733  p :     2.814912
      px      :     0.873217
      py      :     0.978962
      dz2     :     0.011502  d :     0.058851
      dxz     :     0.009324
      dyz     :     0.013174
      dx2y2   :     0.010642
      dxy     :     0.014210

  2 C s       :     3.329698  s :     3.329698
      pz      :     0.942232  p :     3.117103
      px      :     1.084396
      py      :     1.090475
      dz2     :     0.007017  d :     0.026261
      dxz     :     0.003005
      dyz     :     0.007512
      dx2y2   :     0.002711
      dxy     :     0.006017

  3 N s       :     3.474462  s :     3.474462
      pz      :     1.429383  p :     3.769849
      px      :     0.980405
      py      :     1.360061
      dz2     :     0.015194  d :     0.047133
      dxz     :     0.008844
      dyz     :     0.002250
      dx2y2   :     0.004167
      dxy     :     0.016678

  4 C s       :     3.161803  s :     3.161803
      pz      :     0.963743  p :     2.851931
      px      :     0.894729
      py      :     0.993458
      dz2     :     0.011542  d :     0.058840
      dxz     :     0.011826
      dyz     :     0.010946
      dx2y2   :     0.011505
      dxy     :     0.013021

  5 C s       :     3.301456  s :     3.301456
      pz      :     1.053587  p :     3.131727
      px      :     1.093989
      py      :     0.984151
      dz2     :     0.006941  d :     0.026243
      dxz     :     0.002528
      dyz     :     0.005659
      dx2y2   :     0.006730
      dxy     :     0.004384

  6 C s       :     3.315721  s :     3.315721
      pz      :     0.965621  p :     3.126143
      px      :     1.065756
      py      :     1.094767
      dz2     :     0.006313  d :     0.026118
      dxz     :     0.003695
      dyz     :     0.007722
      dx2y2   :     0.006388
      dxy     :     0.001999

  7 H s       :     0.846646  s :     0.846646
      pz      :     0.010323  p :     0.018341
      px      :     0.003635
      py      :     0.004384

  8 H s       :     0.836208  s :     0.836208
      pz      :     0.003779  p :     0.018298
      px      :     0.008516
      py      :     0.006003

  9 H s       :     0.818994  s :     0.818994
      pz      :     0.005917  p :     0.018148
      px      :     0.003608
      py      :     0.008623

 10 H s       :     0.844696  s :     0.844696
      pz      :     0.005845  p :     0.017199
      px      :     0.002993
      py      :     0.008362

 11 H s       :     0.811970  s :     0.811970
      pz      :     0.006284  p :     0.018164
      px      :     0.003660
      py      :     0.008220

 12 H s       :     0.843388  s :     0.843388
      pz      :     0.004207  p :     0.018738
      px      :     0.007496
      py      :     0.007035

 13 H s       :     0.841744  s :     0.841744
      pz      :     0.003759  p :     0.018416
      px      :     0.009577
      py      :     0.005080

 14 H s       :     0.744703  s :     0.744703
      pz      :     0.015974  p :     0.032049
      px      :     0.004798
      py      :     0.011276

 15 H s       :     0.839591  s :     0.839591
      pz      :     0.004677  p :     0.017137
      px      :     0.005262
      py      :     0.007199

 16 H s       :     0.829597  s :     0.829597
      pz      :     0.004913  p :     0.018395
      px      :     0.005255
      py      :     0.008227

 17 H s       :     0.835544  s :     0.835544
      pz      :     0.010040  p :     0.018177
      px      :     0.004507
      py      :     0.003630

 18 H s       :     0.834732  s :     0.834732
      pz      :     0.003710  p :     0.018442
      px      :     0.010645
      py      :     0.004087

 19 H s       :     0.819616  s :     0.819616
      pz      :     0.005727  p :     0.018257
      px      :     0.004336
      py      :     0.008194

 20 H s       :     0.840449  s :     0.840449
      pz      :     0.003601  p :     0.018331
      px      :     0.010898
      py      :     0.003832

 21 H s       :     0.843463  s :     0.843463
      pz      :     0.005072  p :     0.018701
      px      :     0.004807
      py      :     0.008822


------------------------
MULLIKEN OVERLAP CHARGES
------------------------
B(  0-C ,  1-C ) :   0.5388 B(  0-C ,  2-C ) :  -0.1660 B(  0-C ,  3-N ) :  -0.1530 
B(  0-C ,  7-H ) :   0.8007 B(  0-C ,  8-H ) :   0.8259 B(  0-C ,  9-H ) :   0.8675 
B(  1-C ,  2-C ) :   0.4345 B(  1-C ,  3-N ) :   0.3202 B(  1-C ,  4-C ) :  -0.1184 
B(  1-C ,  5-C ) :  -0.0742 B(  1-C ,  7-H ) :  -0.0716 B(  1-C ,  8-H ) :  -0.0881 
B(  1-C ,  9-H ) :  -0.0904 B(  1-C , 10-H ) :   0.8088 B(  1-C , 11-H ) :  -0.1155 
B(  1-C , 13-H ) :  -0.0902 B(  1-C , 14-H ) :  -0.0946 B(  2-C ,  3-N ) :  -0.2432 
B(  2-C ,  4-C ) :   0.0843 B(  2-C , 10-H ) :  -0.1084 B(  2-C , 11-H ) :   0.8630 
B(  2-C , 12-H ) :   0.7927 B(  2-C , 13-H ) :   0.8104 B(  3-N ,  4-C ) :   0.2830 
B(  3-N ,  5-C ) :  -0.1180 B(  3-N ,  6-C ) :  -0.2263 B(  3-N , 10-H ) :  -0.0791 
B(  3-N , 14-H ) :   0.6511 B(  3-N , 15-H ) :  -0.1359 B(  4-C ,  5-C ) :   0.2802 
B(  4-C ,  6-C ) :   0.6251 B(  4-C , 10-H ) :  -0.0722 B(  4-C , 15-H ) :   0.8941 
B(  4-C , 16-H ) :  -0.0672 B(  4-C , 17-H ) :  -0.0629 B(  4-C , 18-H ) :  -0.0737 
B(  4-C , 19-H ) :  -0.0846 B(  4-C , 20-H ) :  -0.0935 B(  4-C , 21-H ) :  -0.0614 
B(  5-C ,  6-C ) :  -0.3381 B(  5-C , 10-H ) :   0.0685 B(  5-C , 15-H ) :  -0.1017 
B(  5-C , 16-H ) :   0.8284 B(  5-C , 17-H ) :   0.7838 B(  5-C , 18-H ) :   0.7852 
B(  6-C , 19-H ) :   0.8092 B(  6-C , 20-H ) :   0.7972 B(  6-C , 21-H ) :   0.8365 



                     *******************************
                     * LOEWDIN POPULATION ANALYSIS *
                     *******************************

----------------------
LOEWDIN ATOMIC CHARGES
----------------------
   0 C :   -0.385634
   1 C :   -0.015368
   2 C :   -0.390733
   3 N :   -0.838636
   4 C :   -0.020844
   5 C :   -0.406070
   6 C :   -0.393530
   7 H :    0.150537
   8 H :    0.154905
   9 H :    0.162068
  10 H :    0.156822
  11 H :    0.163573
  12 H :    0.150414
  13 H :    0.153193
  14 H :    0.250913
  15 H :    0.178283
  16 H :    0.153755
  17 H :    0.154201
  18 H :    0.155883
  19 H :    0.163795
  20 H :    0.151898
  21 H :    0.150574

-------------------------------
LOEWDIN REDUCED ORBITAL CHARGES
-------------------------------
  0 C s       :     2.971290  s :     2.971290
      pz      :     1.141136  p :     3.352145
      px      :     1.072809
      py      :     1.138200
      dz2     :     0.016491  d :     0.062199
      dxz     :     0.004884
      dyz     :     0.013600
      dx2y2   :     0.009745
      dxy     :     0.017480

  1 C s       :     2.833410  s :     2.833410
      pz      :     1.045702  p :     3.056348
      px      :     0.979216
      py      :     1.031430
      dz2     :     0.024521  d :     0.125610
      dxz     :     0.017715
      dyz     :     0.028722
      dx2y2   :     0.023510
      dxy     :     0.031141

  2 C s       :     2.971600  s :     2.971600
      pz      :     1.072640  p :     3.357340
      px      :     1.142209
      py      :     1.142491
      dz2     :     0.016411  d :     0.061793
      dxz     :     0.005889
      dyz     :     0.017218
      dx2y2   :     0.006860
      dxy     :     0.015415

  3 N s       :     3.195695  s :     3.195695
      pz      :     1.473274  p :     4.093948
      px      :     1.185740
      py      :     1.434934
      dz2     :     0.083354  d :     0.548992
      dxz     :     0.104105
      dyz     :     0.072481
      dx2y2   :     0.149285
      dxy     :     0.139768

  4 C s       :     2.830785  s :     2.830785
      pz      :     1.043605  p :     3.064486
      px      :     0.971589
      py      :     1.049292
      dz2     :     0.023983  d :     0.125573
      dxz     :     0.024964
      dyz     :     0.022518
      dx2y2   :     0.024772
      dxy     :     0.029336

  5 C s       :     2.974024  s :     2.974024
      pz      :     1.126446  p :     3.370168
      px      :     1.147077
      py      :     1.096645
      dz2     :     0.016382  d :     0.061878
      dxz     :     0.006179
      dyz     :     0.013222
      dx2y2   :     0.016154
      dxy     :     0.009941

  6 C s       :     2.971593  s :     2.971593
      pz      :     1.073362  p :     3.360497
      px      :     1.131791
      py      :     1.155345
      dz2     :     0.014727  d :     0.061439
      dxz     :     0.007529
      dyz     :     0.017830
      dx2y2   :     0.016271
      dxy     :     0.005082

  7 H s       :     0.806380  s :     0.806380
      pz      :     0.025260  p :     0.043083
      px      :     0.007965
      py      :     0.009858

  8 H s       :     0.801389  s :     0.801389
      pz      :     0.008259  p :     0.043707
      px      :     0.020825
      py      :     0.014622

  9 H s       :     0.794095  s :     0.794095
      pz      :     0.014331  p :     0.043836
      px      :     0.007995
      py      :     0.021510

 10 H s       :     0.801941  s :     0.801941
      pz      :     0.014175  p :     0.041237
      px      :     0.007463
      py      :     0.019599

 11 H s       :     0.792552  s :     0.792552
      pz      :     0.015332  p :     0.043875
      px      :     0.008010
      py      :     0.020532

 12 H s       :     0.805042  s :     0.805042
      pz      :     0.009757  p :     0.044545
      px      :     0.017999
      py      :     0.016790

 13 H s       :     0.803076  s :     0.803076
      pz      :     0.008446  p :     0.043731
      px      :     0.023510
      py      :     0.011775

 14 H s       :     0.663191  s :     0.663191
      pz      :     0.044315  p :     0.085896
      px      :     0.012237
      py      :     0.029343

 15 H s       :     0.782472  s :     0.782472
      pz      :     0.010851  p :     0.039245
      px      :     0.010814
      py      :     0.017580

 16 H s       :     0.802176  s :     0.802176
      pz      :     0.011589  p :     0.044069
      px      :     0.012262
      py      :     0.020217

 17 H s       :     0.802695  s :     0.802695
      pz      :     0.024773  p :     0.043104
      px      :     0.010162
      py      :     0.008169

 18 H s       :     0.799766  s :     0.799766
      pz      :     0.008172  p :     0.044350
      px      :     0.026571
      py      :     0.009607

 19 H s       :     0.792472  s :     0.792472
      pz      :     0.013645  p :     0.043732
      px      :     0.009703
      py      :     0.020385

 20 H s       :     0.804290  s :     0.804290
      pz      :     0.008334  p :     0.043812
      px      :     0.027036
      py      :     0.008441

 21 H s       :     0.804793  s :     0.804793
      pz      :     0.011904  p :     0.044633
      px      :     0.011037
      py      :     0.021691


---------------------------------
LOEWDIN BOND ORDERS (THRESH 0.050000)
---------------------------------
B(  0-C ,  1-C ) :   1.0423 B(  0-C ,  2-C ) :   0.0720 B(  0-C ,  3-N ) :   0.1716 
B(  0-C ,  7-H ) :   0.9217 B(  0-C ,  8-H ) :   0.9200 B(  0-C ,  9-H ) :   0.9162 
B(  1-C ,  2-C ) :   1.0446 B(  1-C ,  3-N ) :   1.3136 B(  1-C ,  4-C ) :   0.0602 
B(  1-C , 10-H ) :   0.7986 B(  2-C ,  3-N ) :   0.1528 B(  2-C , 11-H ) :   0.9166 
B(  2-C , 12-H ) :   0.9203 B(  2-C , 13-H ) :   0.9172 B(  3-N ,  4-C ) :   1.3388 
B(  3-N ,  5-C ) :   0.1421 B(  3-N ,  6-C ) :   0.1543 B(  3-N , 10-H ) :   0.0990 
B(  3-N , 14-H ) :   0.8916 B(  3-N , 15-H ) :   0.0994 B(  4-C ,  5-C ) :   1.0435 
B(  4-C ,  6-C ) :   1.0459 B(  4-C , 15-H ) :   0.7984 B(  5-C ,  6-C ) :   0.0717 
B(  5-C , 16-H ) :   0.9211 B(  5-C , 17-H ) :   0.9235 B(  5-C , 18-H ) :   0.9192 
B(  6-C , 19-H ) :   0.9179 B(  6-C , 20-H ) :   0.9209 B(  6-C , 21-H ) :   0.9200 


------------------------------------------
LOEWDIN REDUCED ORBITAL POPULATIONS PER MO
-------------------------------------------
THRESHOLD FOR PRINTING IS 0.1%%
                      0         1         2         3         4         5   
                 -14.13279 -10.05630 -10.05478 -10.01531 -10.01432 -10.00926
                   2.00000   2.00000   2.00000   2.00000   2.00000   2.00000
                  --------  --------  --------  --------  --------  --------
 0 C  s               0.0       0.0       0.0      99.7       0.0       0.0
 1 C  s               0.0       0.0      99.4       0.0       0.0       0.0
 2 C  s               0.0       0.0       0.0       0.0       0.0      99.7
 3 N  s              99.8       0.0       0.0       0.0       0.0       0.0
 3 N  dx2y2           0.0       0.1       0.0       0.0       0.0       0.0
 3 N  dxy             0.0       0.1       0.2       0.0       0.0       0.0
 4 C  s               0.0      99.4       0.0       0.0       0.0       0.0
 5 C  s               0.0       0.0       0.0       0.0      99.7       0.0

                      6         7         8         9        10        11   
                 -10.00774  -0.86797  -0.74957  -0.69776  -0.65120  -0.64562
                   2.00000   2.00000   2.00000   2.00000   2.00000   2.00000
                  --------  --------  --------  --------  --------  --------
 0 C  s               0.0       2.0       9.9       5.6      12.3      11.6
 0 C  pz              0.0       0.1       0.2       0.2       0.3       0.2
 0 C  px              0.0       1.5       1.0       0.0       0.1       0.2
 0 C  py              0.0       0.1       0.4       0.4       0.1       0.2
 1 C  s               0.0      11.8      12.3       2.9       0.0       0.1
 1 C  pz              0.0       0.0       0.2       1.8       5.3       3.0
 1 C  px              0.0       2.8       2.3       4.3       1.8       2.0
 1 C  py              0.0       2.0       0.1       1.7       1.3       2.0
 1 C  dz2             0.0       0.1       0.0       0.1       0.1       0.1
 1 C  dxy             0.0       0.2       0.0       0.2       0.1       0.1
 2 C  s               0.0       1.8       6.9      11.0      11.3       9.0
 2 C  pz              0.0       1.2       1.3       0.2       0.3       0.1
 2 C  px              0.0       0.2       0.1       0.0       0.2       0.0
 2 C  py              0.0       0.3       0.2       0.0       0.1       0.1
 3 N  s               0.0      38.0       0.0      11.0       0.2       0.0
 3 N  pz              0.0       0.4       0.0       1.4       0.8       0.0
 3 N  px              0.0       0.0       9.7       0.0       0.2       0.0
 3 N  py              0.0       1.3       0.1       1.0       0.0       0.3
 3 N  dz2             0.0       0.4       0.0       0.3       0.2       0.0
 3 N  dxz             0.0       0.0       0.0       0.0       0.0       0.7
 3 N  dyz             0.0       0.1       0.0       0.0       0.3       0.0
 3 N  dx2y2           0.0       0.4       0.1       0.3       0.1       0.6
 3 N  dxy             0.0       0.0       2.0       0.0       0.1       0.0
 4 C  s               0.0      11.4      13.5       2.6       0.0       0.1
 4 C  pz              0.1       0.0       0.1       0.7       5.6       6.2
 4 C  px              0.0       4.5       0.8       5.0       0.1       0.4
 4 C  py              0.0       0.2       0.3       3.7       2.1       1.6
 4 C  dz2             0.0       0.1       0.0       0.1       0.0       0.1
 4 C  dx2y2           0.0       0.1       0.0       0.1       0.1       0.0
 5 C  s               0.0       1.8       7.8       8.7      13.9      10.4
 5 C  pz              0.0       0.3       0.5       0.3       0.3       0.4
 5 C  px              0.0       0.3       0.0       0.1       0.0       0.0
 5 C  py              0.0       1.1       1.0       0.0       0.1       0.2
 6 C  s              99.7       1.7       7.6       9.3       7.2      14.4
 6 C  pz              0.0       1.1       1.5       0.3       0.4       0.3
 6 C  px              0.0       0.5       0.0       0.0       0.0       0.1
 6 C  py              0.0       0.0       0.0       0.1       0.1       0.1
 7 H  s               0.0       0.2       1.4       0.8       3.3       3.1
 7 H  pz              0.0       0.0       0.1       0.1       0.3       0.2
 8 H  s               0.0       0.2       1.5       1.3       2.8       2.7
 8 H  px              0.0       0.0       0.1       0.1       0.1       0.1
 9 H  s               0.0       0.2       1.4       1.0       2.7       2.7
 9 H  py              0.0       0.0       0.1       0.1       0.1       0.1
10 H  s               0.0       1.1       1.6       0.7       0.0       0.1
11 H  s               0.0       0.2       1.0       1.9       2.6       1.9
11 H  py              0.0       0.0       0.1       0.1       0.1       0.1
12 H  s               0.0       0.1       0.9       2.1       3.1       2.2
12 H  px              0.0       0.0       0.0       0.1       0.1       0.1
12 H  py              0.0       0.0       0.0       0.1       0.1       0.1
13 H  s               0.0       0.2       1.1       2.3       2.4       2.0
13 H  px              0.0       0.0       0.1       0.2       0.2       0.1
14 H  s               0.0       6.7       0.0       3.6       0.0       0.0
14 H  pz              0.0       0.6       0.0       0.4       0.0       0.0
14 H  py              0.0       0.3       0.0       0.2       0.0       0.0
15 H  s               0.0       1.1       2.4       0.4       0.0       0.0
15 H  py              0.0       0.1       0.1       0.0       0.0       0.0
16 H  s               0.0       0.2       1.1       1.7       3.1       2.5
16 H  py              0.0       0.0       0.1       0.1       0.2       0.1
17 H  s               0.0       0.2       1.1       1.4       3.5       2.8
17 H  pz              0.0       0.0       0.1       0.1       0.2       0.2
18 H  s               0.0       0.2       1.2       1.8       3.3       2.4
18 H  px              0.0       0.0       0.1       0.2       0.3       0.2
19 H  s               0.0       0.2       1.0       1.5       1.9       3.5
19 H  py              0.0       0.0       0.1       0.1       0.1       0.2
20 H  s               0.0       0.1       1.2       1.9       1.5       3.6
20 H  px              0.0       0.0       0.1       0.2       0.1       0.3
21 H  s               0.0       0.1       1.0       1.9       1.7       2.9
21 H  py              0.0       0.0       0.1       0.1       0.1       0.2

                     12        13        14        15        16        17   
                  -0.56227  -0.51261  -0.45877  -0.44144  -0.41337  -0.39204
                   2.00000   2.00000   2.00000   2.00000   2.00000   2.00000
                  --------  --------  --------  --------  --------  --------
 0 C  s               4.1       0.6       0.9       0.1       0.0       0.1
 0 C  pz              0.0       0.1       0.0       4.7       9.9       8.9
 0 C  px              3.8       0.7       3.9       2.4       0.7       0.2
 0 C  py              0.4       3.6       1.9       3.9       2.1       3.7
 1 C  s               6.0       7.0       0.8       0.3       0.2       0.0
 1 C  pz              1.5       0.6       1.9       5.7       4.1       0.4
 1 C  px              2.8       0.1       3.7       0.2       2.9       4.7
 1 C  py              0.2       6.3       0.5      16.3       0.1       0.0
 2 C  s               4.2       2.4       0.1       0.1       0.3       0.1
 2 C  pz              2.5       7.4       0.1       0.1       3.9       1.2
 2 C  px              0.8       0.1       2.7       0.0       3.3      11.4
 2 C  py              0.2       0.0       0.5      10.4       3.6       0.0
 2 C  dz2             0.1       0.2       0.0       0.0       0.1       0.0
 3 N  s               0.0       2.6       0.3       0.0       0.3       0.3
 3 N  pz              0.1       2.9      12.6       4.7       2.5       1.5
 3 N  px             13.7       1.3       1.9       7.8       4.1       0.3
 3 N  py              1.8       7.5       9.1       0.2       0.5       2.1
 3 N  dz2             0.0       1.5       0.1       0.1       0.0       0.0
 3 N  dxz             0.1       0.0       0.0       0.3       0.2       0.0
 3 N  dyz             0.0       0.2       0.0       0.1       0.0       0.1
 3 N  dx2y2           0.8       0.2       0.3       1.1       0.1       0.1
 3 N  dxy             0.6       0.4       0.6       0.1       0.3       0.3
 4 C  s               6.5       5.9       0.1       0.4       0.5       0.1
 4 C  pz              1.5       0.0       4.3       0.2       0.0       1.1
 4 C  px              0.1       0.4      12.0       6.6       2.9       0.4
 4 C  py              4.9       0.1       3.7       0.2       7.1       4.4
 4 C  dxy             0.0       0.1       0.0       0.0       0.0       0.1
 5 C  s               2.0       2.1       0.0       0.0       0.5       0.0
 5 C  pz              0.1       1.1       1.2       0.5      10.1      14.4
 5 C  px              0.0       0.3       2.9       4.8       0.1       0.0
 5 C  py              2.9       3.7       1.5       0.9       2.5       1.2
 6 C  s               4.5       1.8       0.2       0.3       0.2       0.0
 6 C  pz              2.7       4.7       0.0       3.8       3.4       1.5
 6 C  px              0.4       0.3       7.2       0.4       0.3       0.0
 6 C  py              0.6       0.3       0.8       0.1       8.6       9.4
 6 C  dz2             0.1       0.1       0.0       0.1       0.0       0.0
 7 H  s               1.4       0.8       0.4       1.0       5.1       5.5
 7 H  pz              0.1       0.0       0.0       0.0       0.1       0.1
 8 H  s               2.4       0.1       0.8       2.1       1.0       1.1
 9 H  s               1.9       1.2       1.7       1.7       0.1       0.0
10 H  s               2.6       6.4       1.2       6.1       0.2       0.3
10 H  pz              0.0       0.2       0.0       0.1       0.0       0.0
10 H  py              0.1       0.2       0.0       0.1       0.0       0.0
11 H  s               1.7       2.6       0.1       1.7       0.0       0.5
11 H  py              0.1       0.1       0.0       0.0       0.0       0.0
12 H  s               1.2       1.5       0.1       1.7       5.0       3.1
12 H  py              0.0       0.0       0.0       0.0       0.1       0.1
13 H  s               2.4       1.3       1.1       1.0       0.0       3.0
13 H  px              0.1       0.1       0.0       0.0       0.0       0.0
14 H  s               0.1       5.6       6.5       0.8       0.3       1.6
14 H  pz              0.0       0.4       0.2       0.0       0.0       0.1
14 H  px              0.1       0.0       0.0       0.1       0.1       0.0
15 H  s               4.7       2.8       5.3       1.0       0.0       2.0
15 H  px              0.2       0.0       0.0       0.0       0.0       0.0
15 H  py              0.1       0.1       0.1       0.1       0.0       0.0
16 H  s               1.6       1.3       1.4       0.8       0.1       2.2
17 H  s               0.7       1.4       0.1       0.7       4.6       5.6
18 H  s               0.9       1.5       0.6       1.0       0.3       0.0
19 H  s               1.4       1.2       0.0       0.7       5.4       3.7
20 H  s               2.0       1.1       2.7       0.0       0.0       0.0
20 H  px              0.1       0.1       0.1       0.0       0.0       0.0
21 H  s               2.4       1.9       0.4       1.3       0.6       1.3
21 H  py              0.1       0.1       0.0       0.0       0.0       0.0

                     18        19        20        21        22        23   
                  -0.37683  -0.36504  -0.35492  -0.35329  -0.34198  -0.32308
                   2.00000   2.00000   2.00000   2.00000   2.00000   2.00000
                  --------  --------  --------  --------  --------  --------
 0 C  pz              3.7       3.0       6.9       0.4       0.0       5.8
 0 C  px              0.0      15.3       2.3       3.2       1.0       4.6
 0 C  py              0.5       0.0      20.1       0.2       3.7       4.7
 0 C  dz2             0.0       0.0       0.0       0.0       0.0       0.3
 0 C  dyz             0.0       0.0       0.1       0.0       0.0       0.0
 0 C  dx2y2           0.0       0.0       0.1       0.0       0.0       0.1
 0 C  dxy             0.0       0.2       0.1       0.1       0.0       0.1
 1 C  s               0.0       0.0       0.0       0.2       0.0       0.1
 1 C  pz              0.1       3.9       0.8       0.1       0.5       1.7
 1 C  px              0.0       3.4       0.3       4.0       0.5       0.9
 1 C  py              0.4       2.0       0.9       0.1       0.6       1.8
 1 C  dz2             0.0       0.0       0.0       0.0       0.1       0.1
 1 C  dx2y2           0.0       0.0       0.2       0.0       0.0       0.0
 1 C  dxy             0.0       0.1       0.1       0.1       0.1       0.1
 2 C  s               0.0       0.1       0.0       0.1       0.0       0.1
 2 C  pz              0.1       5.1       4.3       0.5       0.3       2.4
 2 C  px              0.3       6.7       1.8       5.1      16.0       1.1
 2 C  py              1.7       3.6       6.7       0.1      16.0       3.6
 2 C  dz2             0.0       0.0       0.0       0.0       0.1       0.1
 2 C  dx2y2           0.0       0.0       0.0       0.0       0.2       0.0
 2 C  dxy             0.0       0.1       0.1       0.1       0.1       0.0
 3 N  s               0.6       0.9       0.5       0.4       0.3       0.0
 3 N  pz              2.0       0.1       0.7       0.3       1.2       1.0
 3 N  px              0.0       0.0       0.0       0.3       0.2      11.1
 3 N  py              2.3       0.1       2.2       3.9       2.9       0.0
 3 N  dz2             0.0       0.0       0.2       0.0       0.1       0.0
 3 N  dxz             1.2       0.7       0.0       0.0       0.5       0.2
 3 N  dyz             0.2       0.2       0.1       0.3       0.2       0.0
 3 N  dx2y2           0.0       0.7       0.0       0.3       0.0       0.0
 3 N  dxy             0.4       0.1       0.0       0.0       0.3       0.2
 4 C  s               0.1       0.4       0.0       0.0       0.0       0.1
 4 C  pz             10.1       1.2       0.0       0.2       0.4       0.1
 4 C  px              0.5       0.3       0.4       0.1       0.6       4.5
 4 C  py              3.7       0.1       0.9       0.1       1.1       2.7
 4 C  dz2             0.0       0.1       0.0       0.1       0.0       0.2
 4 C  dxz             0.0       0.0       0.0       0.1       0.0       0.0
 4 C  dx2y2           0.0       0.1       0.1       0.1       0.1       0.1
 4 C  dxy             0.0       0.0       0.0       0.0       0.0       0.1
 5 C  s               0.1       0.0       0.0       0.0       0.0       0.1
 5 C  pz              3.4       0.3       0.8       0.4       2.3       0.5
 5 C  px             12.4      10.1       6.8       5.3       5.2       1.9
 5 C  py             16.9       0.7       3.0       1.1       3.5       1.9
 5 C  dz2             0.1       0.0       0.0       0.0       0.0       0.0
 5 C  dx2y2           0.1       0.1       0.1       0.0       0.1       0.0
 6 C  s               0.2       0.1       0.0       0.0       0.1       0.0
 6 C  pz              4.4       0.2       0.2       3.0       0.0       0.2
 6 C  px              1.1       5.6       0.0      27.3       1.7       5.7
 6 C  py              6.2       2.9       0.7       5.7       0.1      10.0
 6 C  dz2             0.1       0.1       0.0       0.0       0.0       0.1
 6 C  dyz             0.0       0.0       0.0       0.1       0.0       0.2
 6 C  dx2y2           0.0       0.0       0.0       0.4       0.0       0.1
 7 H  s               1.2       1.7       0.6       0.1       0.2       6.3
 7 H  px              0.0       0.1       0.0       0.0       0.0       0.0
 7 H  py              0.0       0.0       0.2       0.0       0.0       0.0
 8 H  s               0.0       6.3       6.4       0.8       1.9       7.2
 8 H  px              0.0       0.0       0.1       0.0       0.0       0.1
 8 H  py              0.0       0.1       0.0       0.0       0.0       0.0
 9 H  s               1.2       1.2      12.6       0.0       0.9       0.0
 9 H  py              0.0       0.1       0.1       0.0       0.0       0.0
10 H  s               0.2       0.0       0.3       0.0       0.3       0.1
11 H  s               0.4       3.9       4.9       0.0       7.9       0.3
11 H  pz              0.0       0.0       0.0       0.0       0.1       0.1
12 H  s               0.5       2.7       2.5       1.1       0.1       2.8
12 H  pz              0.0       0.1       0.1       0.0       0.0       0.0
12 H  px              0.0       0.0       0.0       0.0       0.1       0.0
12 H  py              0.0       0.0       0.0       0.0       0.1       0.0
13 H  s               0.0       1.6       0.2       3.0      15.2       0.0
13 H  px              0.0       0.0       0.0       0.0       0.2       0.0
14 H  s               0.0       0.0       0.5       0.6       1.0       0.5
14 H  px              0.0       0.0       0.0       0.0       0.0       0.1
15 H  s               0.0       0.0       0.7       0.3       1.4       0.0
15 H  pz              0.1       0.0       0.0       0.0       0.0       0.0
16 H  s               3.2       2.6       4.8       1.9       5.7       0.0
16 H  px              0.2       0.0       0.0       0.0       0.0       0.0
17 H  s               4.6       0.2       0.0       0.0       0.4       0.0
17 H  pz              0.1       0.0       0.0       0.0       0.0       0.0
17 H  py              0.1       0.0       0.0       0.0       0.0       0.0
18 H  s               8.9       4.3       2.8       1.9       2.2       1.5
18 H  px              0.2       0.0       0.0       0.0       0.0       0.0
19 H  s               0.3       1.7       0.1       0.2       0.4       5.3
19 H  px              0.0       0.0       0.0       0.2       0.0       0.0
20 H  s               1.0       3.0       0.0      13.8       0.7       3.9
20 H  px              0.0       0.0       0.0       0.2       0.0       0.0
21 H  s               3.6       0.3       0.2      11.1       0.0       1.7
21 H  px              0.1       0.0       0.0       0.0       0.0       0.2
21 H  py              0.1       0.0       0.0       0.2       0.0       0.0

                     24        25        26        27        28        29   
                  -0.31428  -0.30205  -0.29287  -0.28539  -0.18577   0.06666
                   2.00000   2.00000   2.00000   2.00000   2.00000   0.00000
                  --------  --------  --------  --------  --------  --------
 0 C  s               0.1       0.0       0.8       0.4       0.2       3.4
 0 C  pz              1.4       9.7       0.8       0.6       0.1       1.1
 0 C  px              0.5       0.2       6.2       5.6       0.1       2.9
 0 C  py              4.8       0.1       5.1       0.9       0.0       0.5
 0 C  dz2             0.0       0.2       0.0       0.0       0.0       0.1
 0 C  dyz             0.1       0.2       0.0       0.0       0.0       0.0
 0 C  dxy             0.0       0.1       0.0       0.1       0.0       0.3
 1 C  s               0.0       0.1       0.1       0.0       0.4       3.2
 1 C  pz              2.1      16.2       1.3       0.0       1.0       1.6
 1 C  px              1.0       0.0       2.3       8.7       0.1       1.3
 1 C  py              3.9       0.2       9.9       0.1       1.4       0.7
 1 C  dz2             0.0       0.2       0.2       0.0       0.1       0.0
 1 C  dxz             0.1       0.0       0.1       0.1       0.2       0.0
 1 C  dyz             0.1       0.4       0.0       0.0       0.6       0.1
 1 C  dx2y2           0.0       0.0       0.3       0.0       0.4       0.0
 1 C  dxy             0.0       0.1       0.0       0.3       0.0       0.2
 2 C  s               0.0       0.6       0.1       0.1       0.6       4.3
 2 C  pz              1.7      17.1       2.3       0.0       1.4       0.6
 2 C  px              0.5       0.1       0.8       5.8       0.1       0.1
 2 C  py              3.7       0.1       5.9       0.1       0.3       0.4
 2 C  dz2             0.0       0.1       0.1       0.0       0.0       0.3
 2 C  dxz             0.0       0.0       0.1       0.1       0.0       0.0
 2 C  dyz             0.2       0.1       0.1       0.0       0.0       0.0
 2 C  dxy             0.0       0.0       0.1       0.2       0.0       0.0
 3 N  s               0.3       0.0       0.1       0.0       4.1       4.7
 3 N  pz              2.9       0.0       2.3       0.5      35.6       2.7
 3 N  px              1.2       0.7       0.6       5.7       0.4       0.0
 3 N  py              2.2       0.8       3.4       1.0      29.0       1.4
 3 N  dz2             0.0       0.1       0.6       0.1       0.2       4.0
 3 N  dxz             0.1       0.6       0.3       0.2       0.0       0.1
 3 N  dyz             0.2       0.5       0.5       0.0       0.7       1.5
 3 N  dx2y2           0.3       0.0       1.5       0.0       0.6       1.6
 3 N  dxy             0.0       0.1       0.1       0.9       0.1       0.4
 4 C  s               0.0       0.0       0.0       0.2       0.1       4.2
 4 C  pz              5.5       4.2       8.0       1.7       1.1       3.1
 4 C  px              0.9       0.1       1.6       5.8       0.5       2.4
 4 C  py              0.8       2.7       2.1       8.9       1.0       2.4
 4 C  dz2             0.1       0.0       0.3       0.0       0.1       0.0
 4 C  dxz             0.0       0.0       0.1       0.2       0.5       0.2
 4 C  dyz             0.0       0.1       0.0       0.3       0.3       0.1
 4 C  dx2y2           0.0       0.1       0.0       0.0       0.2       0.0
 4 C  dxy             0.0       0.0       0.0       0.5       0.2       0.4
 5 C  s               0.0       0.4       0.0       0.3       0.6       7.3
 5 C  pz             10.0       5.3       3.0       0.0       0.9       0.4
 5 C  px              5.2       0.8       0.1       0.6       0.4       0.0
 5 C  py              0.5       2.2       1.2       4.6       4.1       0.9
 5 C  dz2             0.4       0.0       0.2       0.0       0.0       0.0
 5 C  dyz             0.0       0.0       0.0       0.1       0.0       0.1
 5 C  dx2y2           0.0       0.1       0.0       0.0       0.0       0.2
 5 C  dxy             0.0       0.0       0.0       0.1       0.0       0.0
 6 C  s               0.1       0.0       0.6       0.1       0.5       3.9
 6 C  pz              9.1       4.3       9.0       2.0       1.4       1.0
 6 C  px              0.0       0.1       2.5       2.6       0.6       0.4
 6 C  py              4.4       3.0       0.0       4.3       0.2       0.2
 6 C  dz2             0.0       0.0       0.1       0.0       0.0       0.3
 6 C  dyz             0.2       0.2       0.0       0.2       0.0       0.0
 6 C  dx2y2           0.0       0.0       0.0       0.2       0.0       0.1
 7 H  s               0.3       5.9       0.7       0.2       0.0       1.5
 7 H  pz              0.0       0.0       0.0       0.0       0.0       0.4
 7 H  px              0.0       0.0       0.1       0.1       0.0       0.5
 8 H  s               0.4       0.0       0.0       0.9       0.0       0.9
 8 H  pz              0.0       0.1       0.0       0.0       0.0       0.2
 8 H  py              0.0       0.0       0.0       0.0       0.0       0.3
 9 H  s               4.2       3.6       1.1       0.0       0.1       0.2
 9 H  pz              0.0       0.0       0.0       0.0       0.0       0.2
10 H  s               4.4       5.5       3.4       0.3       5.5       0.6
10 H  pz              0.0       0.0       0.1       0.0       0.0       0.2
10 H  px              0.0       0.0       0.0       0.1       0.0       0.2
10 H  py              0.1       0.1       0.0       0.0       0.0       0.2
11 H  s               3.5       3.1       1.3       0.0       0.2       0.3
11 H  py              0.0       0.1       0.0       0.0       0.0       0.2
12 H  s               1.5       0.7       4.5       2.6       0.0       1.2
12 H  pz              0.0       0.1       0.0       0.0       0.0       0.0
12 H  px              0.0       0.0       0.0       0.0       0.0       0.4
12 H  py              0.0       0.0       0.0       0.0       0.0       0.1
13 H  s               0.0       0.0       0.0       3.2       0.1       1.5
13 H  pz              0.0       0.2       0.0       0.0       0.0       0.0
13 H  px              0.0       0.0       0.0       0.0       0.0       0.5
14 H  s               0.0       0.5       3.7       0.4       0.6       8.1
14 H  pz              0.0       0.0       0.0       0.0       0.4       2.0
14 H  py              0.0       0.0       0.0       0.0       0.7       0.6
15 H  s               0.1       0.0       2.4      14.4       0.1       2.7
15 H  pz              0.1       0.0       0.0       0.0       0.0       0.4
15 H  px              0.0       0.0       0.1       0.0       0.0       0.2
15 H  py              0.0       0.0       0.0       0.0       0.0       0.6
16 H  s               0.0       0.3       2.1       3.4       0.0       1.3
16 H  pz              0.1       0.0       0.0       0.0       0.0       0.3
16 H  px              0.0       0.0       0.0       0.0       0.0       0.2
17 H  s               8.9       1.4       2.5       0.1       0.0       1.1
17 H  pz              0.1       0.0       0.0       0.0       0.0       0.4
17 H  px              0.0       0.0       0.0       0.0       0.0       0.1
17 H  py              0.0       0.0       0.0       0.0       0.0       0.3
18 H  s               3.3       0.7       0.0       0.4       0.5       1.7
18 H  px              0.0       0.0       0.0       0.0       0.0       0.7
19 H  s               6.5       4.2       0.2       0.2       0.1       0.4
19 H  py              0.1       0.0       0.0       0.0       0.0       0.1
20 H  s               0.1       0.2       1.0       2.2       0.2       1.8
20 H  pz              0.1       0.0       0.1       0.0       0.0       0.0
20 H  px              0.0       0.0       0.0       0.0       0.0       0.5
21 H  s               0.4       0.3       0.4       6.4       0.0       0.6
21 H  pz              0.1       0.0       0.1       0.0       0.0       0.0
21 H  px              0.0       0.0       0.0       0.0       0.0       0.2
21 H  py              0.0       0.0       0.0       0.0       0.0       0.2

                     30        31        32        33        34        35   
                   0.10225   0.11475   0.12389   0.13038   0.13577   0.14499
                   0.00000   0.00000   0.00000   0.00000   0.00000   0.00000
[...]
16 H  py              0.2       1.9       0.2       0.0       2.4       0.2
17 H  s               0.0       0.5       0.0       0.0       0.1       0.1
17 H  pz              0.0       1.0       0.0       0.1       0.1       0.2
17 H  px              0.0       0.6       0.1       0.0       0.0       0.0
17 H  py              0.0       0.1       0.0       0.0       0.1       0.0
18 H  s               0.3       1.3       0.6       0.1       0.1       0.0
18 H  pz              0.0       0.2       0.0       0.0       0.0       0.0
18 H  px              0.8       3.2       1.5       0.2       0.4       0.1
19 H  s               3.7       1.7       0.9       0.2       0.1       0.5
19 H  pz              2.3       1.3       0.5       0.2       0.3       0.3
19 H  px              1.2       0.7       0.0       0.0       0.1       0.0
19 H  py              6.7       2.8       2.3       0.1       0.1       0.5
20 H  s               0.1       0.2       4.0       0.0       1.3       0.0
20 H  pz              0.2       0.1       0.0       0.1       0.1       0.0
20 H  px              0.2       0.6       8.8       0.0       3.5       0.0
20 H  py              0.2       0.1       0.0       0.0       0.1       0.0
21 H  s               0.9       1.6       2.0       0.6       0.3       0.5
21 H  pz              0.6       1.2       0.8       0.2       0.2       0.2
21 H  px              0.1       0.5       0.1       0.6       0.1       0.4
21 H  py              0.7       2.2       4.2       1.1       0.7       0.9

                    204       205       206       207       208       209   
                   4.01499   4.23296  21.93595  21.97460  22.04097  22.05853
                   0.00000   0.00000   0.00000   0.00000   0.00000   0.00000
                  --------  --------  --------  --------  --------  --------
 0 C  s               0.1       0.0      46.6      23.9      10.3      15.1
 0 C  px              0.3       0.0       0.0       0.0       0.0       0.0
 0 C  dxy             0.3       0.1       0.0       0.0       0.0       0.0
 1 C  s               1.2       0.1       1.1       0.1       0.3       5.5
 1 C  px              4.4       1.2       0.0       0.0       0.0       0.0
 1 C  py              3.0       0.2       0.0       0.0       0.0       0.0
 1 C  dz2             1.3       0.7       0.0       0.0       0.0       0.0
 1 C  dxz             0.3       0.0       0.0       0.0       0.0       0.0
 1 C  dyz             0.7       0.0       0.0       0.0       0.0       0.0
 1 C  dx2y2           0.6       0.1       0.0       0.0       0.0       0.0
 1 C  dxy             6.8       1.1       0.0       0.0       0.0       0.0
 2 C  s               0.0       0.1      31.1       0.1      38.6      22.9
 2 C  dxy             0.2       0.0       0.0       0.0       0.0       0.0
 3 N  s               0.0       1.2       0.0       0.0       0.0       0.0
 3 N  pz              0.1       8.7       0.0       0.0       0.0       0.0
 3 N  px             28.3       0.5       0.0       0.0       0.0       0.0
 3 N  py              0.9       7.2       0.0       0.0       0.0       0.0
 3 N  dz2             0.0      22.0       0.0       0.0       0.0       0.0
 3 N  dxz             0.1       1.1       0.0       0.0       0.0       0.0
 3 N  dyz             0.1      13.9       0.0       0.0       0.0       0.0
 3 N  dx2y2           2.5       4.2       0.0       0.0       0.0       0.0
 3 N  dxy            25.0       0.7       0.0       0.0       0.0       0.0
 4 C  s               1.2       0.2       9.2       1.1       0.1       0.1
 4 C  px              6.3       1.5       0.0       0.0       0.0       0.0
 4 C  py              0.4       0.0       0.0       0.0       0.0       0.0
 4 C  dz2             1.2       0.7       0.0       0.0       0.0       0.0
 4 C  dxz             0.3       0.0       0.0       0.0       0.0       0.0
 4 C  dyz             0.0       0.1       0.0       0.0       0.0       0.0
 4 C  dx2y2           3.8       1.0       0.0       0.0       0.0       0.0
 4 C  dxy             4.0       0.6       0.0       0.0       0.0       0.0
 5 C  s               0.0       0.0       9.2      41.6      36.1       8.6
 5 C  pz              0.1       0.0       0.0       0.0       0.0       0.0
 5 C  dx2y2           0.2       0.0       0.0       0.0       0.0       0.0
 6 C  s               0.0       0.0       2.4      32.9      14.2      47.4
 8 H  px              0.1       0.1       0.0       0.0       0.0       0.0
 8 H  py              0.1       0.0       0.0       0.0       0.0       0.0
10 H  s               0.5       0.0       0.0       0.0       0.0       0.0
10 H  pz              0.5       0.0       0.0       0.0       0.0       0.0
10 H  px              0.3       0.0       0.0       0.0       0.0       0.0
10 H  py              0.2       0.0       0.0       0.0       0.0       0.0
14 H  s               0.0      11.8       0.0       0.0       0.0       0.0
14 H  pz              0.0      13.9       0.0       0.0       0.0       0.0
14 H  px              0.5       0.3       0.0       0.0       0.0       0.0
14 H  py              0.0       5.2       0.0       0.0       0.0       0.0
15 H  s               0.6       0.2       0.0       0.0       0.0       0.0
15 H  pz              0.3       0.0       0.0       0.0       0.0       0.0
15 H  py              1.1       0.2       0.0       0.0       0.0       0.0
18 H  px              0.1       0.0       0.0       0.0       0.0       0.0

                    210       211       212   
                  22.09807  22.13795  32.04195
                   0.00000   0.00000   0.00000
                  --------  --------  --------
 0 C  s               0.9       2.9       0.0
 1 C  s              87.2       5.5       0.1
 2 C  s               2.9       4.0       0.0
 3 N  s               0.1       0.0      99.8
 4 C  s               6.5      82.6       0.0
 5 C  s               0.1       3.9       0.0
 6 C  s               2.0       0.7       0.0


                      *****************************
                      * MAYER POPULATION ANALYSIS *
                      *****************************

  NA   - Mulliken gross atomic population
  ZA   - Total nuclear charge
  QA   - Mulliken gross atomic charge
  VA   - Mayer's total valence
  BVA  - Mayer's bonded valence
  FA   - Mayer's free valence

  ATOM       NA         ZA         QA         VA         BVA        FA
  0 C      6.4959     6.0000    -0.4959     3.8309     3.8309     0.0000
  1 C      6.0215     6.0000    -0.0215     3.5476     3.5476    -0.0000
  2 C      6.4731     6.0000    -0.4731     3.7286     3.7286    -0.0000
  3 N      7.2914     7.0000    -0.2914     2.5457     2.5457     0.0000
  4 C      6.0726     6.0000    -0.0726     3.7098     3.7098    -0.0000
  5 C      6.4594     6.0000    -0.4594     3.6878     3.6878    -0.0000
  6 C      6.4680     6.0000    -0.4680     3.7648     3.7648     0.0000
  7 H      0.8650     1.0000     0.1350     0.9663     0.9663     0.0000
  8 H      0.8545     1.0000     0.1455     0.9659     0.9659    -0.0000
  9 H      0.8371     1.0000     0.1629     0.9617     0.9617    -0.0000
 10 H      0.8619     1.0000     0.1381     0.9528     0.9528    -0.0000
 11 H      0.8301     1.0000     0.1699     0.9630     0.9630     0.0000
 12 H      0.8621     1.0000     0.1379     0.9678     0.9678    -0.0000
 13 H      0.8602     1.0000     0.1398     0.9669     0.9669    -0.0000
 14 H      0.7768     1.0000     0.2232     0.9385     0.9385     0.0000
 15 H      0.8567     1.0000     0.1433     0.9537     0.9537    -0.0000
 16 H      0.8480     1.0000     0.1520     0.9637     0.9637    -0.0000
 17 H      0.8537     1.0000     0.1463     0.9652     0.9652    -0.0000
 18 H      0.8532     1.0000     0.1468     0.9648     0.9648    -0.0000
 19 H      0.8379     1.0000     0.1621     0.9632     0.9632    -0.0000
 20 H      0.8588     1.0000     0.1412     0.9650     0.9650     0.0000
 21 H      0.8622     1.0000     0.1378     0.9704     0.9704    -0.0000

  Mayer bond orders larger than 0.100000
B(  0-C ,  1-C ) :   0.9309 B(  0-C ,  7-H ) :   0.9721 B(  0-C ,  8-H ) :   0.9769 
B(  0-C ,  9-H ) :   0.9816 B(  1-C ,  2-C ) :   0.8833 B(  1-C ,  3-N ) :   0.8927 
B(  1-C , 10-H ) :   0.9347 B(  2-C , 11-H ) :   0.9858 B(  2-C , 12-H ) :   0.9664 
B(  2-C , 13-H ) :   0.9762 B(  3-N ,  4-C ) :   0.9320 B(  3-N , 14-H ) :   0.9147 
B(  4-C ,  5-C ) :   0.8800 B(  4-C ,  6-C ) :   0.9576 B(  4-C , 15-H ) :   0.9718 
B(  5-C , 16-H ) :   0.9740 B(  5-C , 17-H ) :   0.9730 B(  5-C , 18-H ) :   0.9670 
B(  6-C , 19-H ) :   0.9742 B(  6-C , 20-H ) :   0.9713 B(  6-C , 21-H ) :   0.9701 


-------
TIMINGS
-------

Total SCF time: 0 days 0 hours 0 min 22 sec 

Total time                  ....      22.061 sec
Sum of individual times     ....      21.568 sec  ( 97.8%)

SCF preparation             ....       0.218 sec  (  1.0%)
Fock matrix formation       ....      20.344 sec  ( 92.2%)
  Startup                   ....       0.065 sec  (  0.3% of F)
  Split-RI-J                ....       3.958 sec  ( 19.5% of F)
  XC integration            ....      15.753 sec  ( 77.4% of F)
    XC Preparation          ....       0.000 sec  (  0.0% of XC)
    Basis function eval.    ....       2.977 sec  ( 18.9% of XC)
    Density eval.           ....       4.296 sec  ( 27.3% of XC)
    XC-Functional eval.     ....       1.798 sec  ( 11.4% of XC)
    XC-Potential eval.      ....       5.066 sec  ( 32.2% of XC)
Diagonalization             ....       0.000 sec  (  0.0%)
Density matrix formation    ....       0.245 sec  (  1.1%)
Total Energy calculation    ....       0.038 sec  (  0.2%)
Population analysis         ....       0.133 sec  (  0.6%)
Orbital Transformation      ....       0.069 sec  (  0.3%)
Orbital Orthonormalization  ....       0.000 sec  (  0.0%)
DIIS solution               ....       0.461 sec  (  2.1%)
  MO trafo                  ....       0.000 sec  (  0.0 % of DIIS)
  Orb grad                  ....       0.000 sec  (  0.0 % of DIIS)
  Energy W gradient         ....       0.000 sec  (  0.0 % of DIIS)
  DIIS error                ....       0.024 sec  (  5.1 % of DIIS)
  DIIS work                 ....       0.375 sec  ( 81.3 % of DIIS)
  Form Q                    ....       0.000 sec  (  0.0 % of DIIS)
  Form QpQm                 ....       0.000 sec  (  0.0 % of DIIS)
  Exp/Cayley                ....       0.000 sec  (  0.0 % of DIIS)
  Orb update                ....       0.000 sec  (  0.0 % of DIIS)
  Wake-sleep                ....       0.028 sec  (  6.1 % of DIIS)
SOSCF solution              ....       0.060 sec  (  0.3%)
  MO trafo                  ....       0.045 sec  ( 75.2 % of SOSCF)
  Orb grad                  ....       0.001 sec  (  1.4 % of SOSCF)
  Rot update                ....       0.000 sec  (  0.1 % of SOSCF)
  Step                      ....       0.014 sec  ( 23.1 % of SOSCF)
Finished LeanSCF after  22.2 sec

Maximum memory used throughout the entire LEANSCF-calculation: 24.2 MB


-------------------------------------------------------------------------------
                          DFT DISPERSION CORRECTION                            
                                                                               
                                DFTD4 V3.4.0                                   
-------------------------------------------------------------------------------
The R2SCAN3C composite method is recognized
Using three-body term ABC
Active option DFTDOPT                   ...         5   

-------------------------   ----------------
Dispersion correction           -0.006186329
-------------------------   ----------------

------------------   -----------------
gCP correction             0.014555922
------------------   -----------------

-------------------------   --------------------
FINAL SINGLE POINT ENERGY      -292.314636872898
-------------------------   --------------------


------------------------------------------------------------------------------
                              ORCA PROPERTY CALCULATIONS
------------------------------------------------------------------------------

GBWName                                 ... sp_gas.gbw
Number of atoms                         ...     22
Number of basis functions               ...    213
Max core memory                         ...   1024 MB

Electric properties:
Dipole moment                           ... YES
Quadrupole moment                       ...  NO
Static polarizability (Dipole/Dipole)   ...  NO
Static polarizability (Dipole/Quad.)    ...  NO
Static polarizability (Quad./Quad.)     ...  NO
Static polarizability (Velocity)        ...  NO

Atomic electric properties:
Dipole moment                           ...  NO
Quadrupole moment                       ...  NO
Static polarizability                   ...  NO

Choice of electric origin               ... Center of mass
Position of electric origin             ...     0.000001     0.000000     0.000000

General magnetic properties:
Magnetizability                         ...  NO

EPR properties:
g-Tensor (aka g-matrix)                 ...  NO
Zero-Field splitting spin-orbit         ...  NO
Zero-field splitting spin-spin          ...  NO
Hyperfine couplings                     ...  NO (   0 nuclei)
Quadrupole couplings                    ...  NO (   0 nuclei)
Contact density                         ...  NO (   0 nuclei)

NMR properties:
Chemical shifts                         ...  NO (   0 nuclei)
Spin-rotation constants                 ...  NO (   0 nuclei)
Spin-spin couplings                     ...  NO (   0 nuclei,    0 pairs)

Choice of magnetic origin               ... GIAO
Position of magnetic origin             ...     0.000000     0.000000     0.000000

Properties with geometric perturbations:
SCF Hessian                             ...  NO
IR spectrum                             ...  NO
VCD spectrum                            ...  NO
X-ray spectroscopy properties:
SCF XES/XAS/RIXS spectra                ...  NO


-------------
DIPOLE MOMENT
-------------

Method             : SCF
Type of density    : Electron Density
Multiplicity       :   1
Irrep              :   0
Energy             :  -292.3230064659783238 Eh
Relativity type    : 
Basis              : AO
                                X                 Y                 Z
Electronic contribution:     -0.298804450       1.849492004       1.014829013
Nuclear contribution   :      0.264457511      -1.991498350      -0.684542221
                        -----------------------------------------
Total Dipole Moment    :     -0.034346939      -0.142006346       0.330286792
                        -----------------------------------------
Magnitude (a.u.)       :      0.361157694
Magnitude (Debye)      :      0.917989904



--------------------
Rotational spectrum 
--------------------
 
Rotational constants in cm-1:             0.130478             0.054984             0.048802 
Rotational constants in MHz :          3911.629194          1648.381216          1463.054178 

Dipole components along the rotational axes: 
x,y,z [a.u.] :    -0.045994    -0.315097    -0.170392 
x,y,z [Debye]:    -0.116908    -0.800913    -0.433101 

 

Dipole moment calculation done in   0.0 sec 

Maximum memory used throughout the entire PROP-calculation: 13.5 MB

--------------------------------
SUGGESTED CITATIONS FOR THIS RUN
--------------------------------

Below you find a list of papers that are relevant to this ORCA run
We neither can nor want to force you to cite these papers, but we appreciate if you do
You receive ORCA, which is the product of decades of hard work by many enthusiastic individuals, for free
The only thing we kindly ask in return is that you cite our papers,
We deeply appreciate it, if you show your appreciation for ORCA by not just citing the generic ORCA reference.

Please note that relegating all ORCA citations to the supporting information does *not* help us.
SI sections are not indexed - citations you put there will not count into any citation statistics
But we need these citations in order to attract the funding resources that allow us to do what we are doing

Therefore, if you are a happy ORCA user, please consider citing a few of the papers listed below in the main body of your paper

In addition to the list printed below, the program has created the file sp_gas.bibtex that contains the list in bibtex format
You can import this file easily into all common literature databanks and citation aid programs


List of essential papers. We consider these as the minimum necessary citations

  1. Neese,F.
     Software update: the ORCA program system, version 5.0
     WIRES Comput. Molec. Sci., 2022 12(1)e1606
     doi.org/10.1002/wcms.1606
  2. Grimme,S.; Hansen,A.; Ehlert,S.; Mewes,J.
     r2SCAN-3c: A 'Swiss army knife' composite electronic-structure method
     J. Chem. Phys., 2021 154 064103
     doi.org/10.1063/5.0040021

List of papers to cite with high priority. The work reported in these papers was absolutely
necessary for this run to complete.
Our perspective: the developers of density functionals and basis sets usually get cited in chemistry papers
Good! But without the algorithms to do something with them, the functionals or basis sets would not do anything.
Hence, in our opinion, the algorithm design and method developments papers are equally worthy of getting cited

  1. Neese,F.
     An improvement of the resolution of the identity approximation for the formation of the Coulomb matrix
     J. Comp. Chem., 2003 24(14)1740-1747
     doi.org/10.1002/jcc.10318
  2. Neese,F.
     The SHARK Integral Generation and Digestion System
     J. Comp. Chem., 2022  1-16
     doi.org/10.1002/jcc.26942
  3. Lehtola,S.; Steigemann,C.; Oliveira,M.; Marques,M.
     Recent developments in Libxc - A comprehensive library of functionals for density functional theory
     Software X, 2018 7 
     doi.org/10.1016/j.softx.2017.11.002
  4. Caldeweyher,E.; Bannwarth,C.; Grimme,S.
     Extension of the D3 dispersion coefficient model
     J. Chem. Phys., 2017 147 034112-XXXX
     doi.org/10.1063/1.4993215
  5. Caldeweyher,E.; Ehlert,S.; Hansen,A.; Neugebauer,H.; Spicher,S.; Bannwarth,C.; Grimme,S.
     A generally applicable atomic-charge dependent London dispersion correction
     J. Chem. Phys., 2019 150 154122-XXXX
     doi.org/10.1063/1.5090222
  6. Caldeweyher,E.; Mewes,J.; Ehlert,S.; Grimme,S.
     Extension and evaluation of the D4 London-dispersion model for periodic systems
     Phys. Chem. Chem. Phys., 2020 22(16)8499-8512
     doi.org/10.1039/D0CP00502A

List of suggested additional citations. These are papers that are important in the 'surrounding' of 
of this run, or papers that preceded the highly important papers. If you like your results we are grateful for a citation.

  1. Neese,F.
     The ORCA program system
     WIRES Comput. Molec. Sci., 2012 2(1)73-78
     doi.org/10.1002/wcms.81
  2. Neese,F.
     Software update: the ORCA program system, version 4.0
     WIRES Comput. Molec. Sci., 2018 8(1)1-6
     doi.org/10.1002/wcms.1327
  3. Neese,F.; Wennmohs,F.; Becker,U.; Riplinger,C.
     The ORCA quantum chemistry program package
     J. Chem. Phys., 2020 152 Art. No. L224108
     doi.org/10.1063/5.0004608

List of optional additional citations

  1. Neese,F.
     Approximate second-order SCF convergence for spin unrestricted wavefunctions
     Chem. Phys. Lett., 2000 325(1-3)93-98
     doi.org/10.1016/s0009-2614(00)00662-x

Timings for individual modules:

Sum of individual times          ...       24.060 sec (=   0.401 min)
Startup calculation              ...        1.384 sec (=   0.023 min)   5.8 %
SCF iterations                   ...       22.553 sec (=   0.376 min)  93.7 %
Property calculations            ...        0.123 sec (=   0.002 min)   0.5 %
                             ****ORCA TERMINATED NORMALLY****
TOTAL RUN TIME: 0 days 0 hours 0 minutes 25 seconds 227 msec
