      -----------------------------------------------------------      
     |                   =====================                   |     
     |                           x T B                           |     
     |                   =====================                   |     
     |                         S. Grimme                         |     
     |          Mulliken Center for Theoretical Chemistry        |     
     |                    University of Bonn                     |     
      -----------------------------------------------------------      

   * xtb version 6.7.1 (edcfbbe) compiled by 'albert@albert-system' on 2024-07-22

   xtb is free software: you can redistribute it and/or modify it under
   the terms of the GNU Lesser General Public License as published by
   the Free Software Foundation, either version 3 of the License, or
   (at your option) any later version.
   
   xtb is distributed in the hope that it will be useful,
   but WITHOUT ANY WARRANTY; without even the implied warranty of
   MERCHANTABILITY or FITNESS FOR A PARTICULAR PURPOSE.  See the
   GNU Lesser General Public License for more details.
   
   Cite this work as:
   * C. Bannwarth, E. Caldeweyher, S. Ehlert, A. Hansen, P. Pracht,
     J. Seibert, S. Spicher, S. Grimme, WIREs Comput. Mol. Sci., 2020, 11,
     e01493. DOI: 10.1002/wcms.1493
   
   for GFN2-xTB:
   * C. Bannwarth, S. Ehlert and S. Grimme., J. Chem. Theory Comput., 2019,
     15, 1652-1671. DOI: 10.1021/acs.jctc.8b01176
   for GFN1-xTB:
   * S. Grimme, C. Bannwarth, P. Shushkov, J. Chem. Theory Comput., 2017,
     13, 1989-2009. DOI: 10.1021/acs.jctc.7b00118
   for GFN0-xTB:
   * P. Pracht, E. Caldeweyher, S. Ehlert, S. Grimme, ChemRxiv, 2019, preprint.
     DOI: 10.26434/chemrxiv.8326202.v1
   for GFN-FF:
   * S. Spicher and S. Grimme, Angew. Chem. Int. Ed., 2020, 59, 15665-15673.
     DOI: 10.1002/anie.202004239
   
   for ALPB and GBSA implicit solvation:
   * S. Ehlert, M. Stahn, S. Spicher, S. Grimme, J. Chem. Theory Comput.,
     2021, 17, 4250-4261. DOI: 10.1021/acs.jctc.1c00471
   
   for ddCOSMO and CPCM-X implicit solvation:
   * M. Stahn, S. Ehlert, S. Grimme, J. Phys. Chem. A,
     2023, XX, XXXX-XXXX. DOI: 10.1021/acs.jpca.3c04382
   
   for DFT-D4:
   * E. Caldeweyher, C. Bannwarth and S. Grimme, J. Chem. Phys., 2017,
     147, 034112. DOI: 10.1063/1.4993215
   * E. Caldeweyher, S. Ehlert, A. Hansen, H. Neugebauer, S. Spicher,
     C. Bannwarth and S. Grimme, J. Chem. Phys., 2019, 150, 154122.
     DOI: 10.1063/1.5090222
   * E. Caldeweyher, J.-M. Mewes, S. Ehlert and S. Grimme, Phys. Chem. Chem. Phys.
     2020, 22, 8499-8512. DOI: 10.1039/D0CP00502A
   
   for sTDA-xTB:
   * S. Grimme and C. Bannwarth, J. Chem. Phys., 2016, 145, 054103.
     DOI: 10.1063/1.4959605
   
   in the mass-spec context:
   * V. Asgeirsson, C. Bauer and S. Grimme, Chem. Sci., 2017, 8, 4879.
     DOI: 10.1039/c7sc00601b
   * J. Koopman and S. Grimme, ACS Omega 2019, 4, 12, 15120-15133.
     DOI: 10.1021/acsomega.9b02011
   
   for metadynamics refer to:
   * S. Grimme, J. Chem. Theory Comput., 2019, 155, 2847-2862
     DOI: 10.1021/acs.jctc.9b00143
   
   for SPH calculations refer to:
   * S. Spicher and S. Grimme, J. Chem. Theory Comput., 2021, 17, 1701-1714
     DOI: 10.1021/acs.jctc.0c01306
   
   for ONIOM refer to:
   * C. Plett, A. Katbashev, S. Ehlert, S. Grimme, M. Bursch,
     Phys. Chem. Chem. Phys., 2023, 25, 17860-17868. DOI: 10.1039/D3CP02178E
   
   for DIPRO refer to:
   * J. Kohn, N. Gildemeister, S. Grimme, D. Fazzi, A. Hansen,
     J. Chem. Phys., 2023, just accepted.
   
   for PTB refer to:
   * S. Grimme, M. Mueller, A. Hansen, J. Chem. Phys., 2023, 158, 124111.
     DOI: 10.1063/5.0137838
   
   with help from (in alphabetical order)
   P. Atkinson, C. Bannwarth, F. Bohle, G. Brandenburg, E. Caldeweyher
   M. Checinski, S. Dohm, S. Ehlert, S. Ehrlich, I. Gerasimov, C. Hölzer
   A. Katbashev, J. Kohn, J. Koopman, C. Lavigne, S. Lehtola, F. März, M. Müller,
   F. Musil, H. Neugebauer, J. Pisarek, C. Plett, P. Pracht, F. Pultar,
   J. Seibert, P. Shushkov, S. Spicher, M. Stahn, M. Steiner, T. Strunk,
   J. Stückrath, T. Rose, and J. Unsleber
   
 * started run on 2025/04/11 at 12:25:55.003     
   ID    Z sym.   atoms
    1    6 C      1-4
    2   53 I      5
    3    1 H      6-14

           -------------------------------------------------
          |                Calculation Setup                |
           -------------------------------------------------

          program call               : /srv/scratch/z5358697/.xtb/bin/xtb solv.coord --gfn2 --sp --chrg 0 --norestart --parallel 1 --alpb water reference -I xtb_sp-xcontrol-inp
          hostname                   : k112
          coordinate file            : solv.coord
          omp threads                :                     1


           -------------------------------------------------
          |                 G F N 2 - x T B                 |
           -------------------------------------------------

        Reference                      10.1021/acs.jctc.8b01176
      * Hamiltonian:
        H0-scaling (s, p, d)           1.850000    2.230000    2.230000
        zeta-weighting                 0.500000
      * Dispersion:
        s8                             2.700000
        a1                             0.520000
        a2                             5.000000
        s9                             5.000000
      * Repulsion:
        kExp                           1.500000    1.000000
        rExp                           1.000000
      * Coulomb:
        alpha                          2.000000
        third order                    shell-resolved
        anisotropic                    true
        a3                             3.000000
        a5                             4.000000
        cn-shift                       1.200000
        cn-exp                         4.000000
        max-rad                        5.000000

      * Solvation model:               ALPB
        Solvent                        water
        Parameter file                 internal GFN2-xTB/ALPB
        Dielectric constant                8.0200E+01
        Reference state                gsolv=reference [X=1]
        Free energy shift                  2.8945E-03 Eh       1.8164E+00 kcal/mol
        Temperature                        2.9815E+02 K
        Density                            1.0000E+00 kg/L
        Solvent mass                       1.8000E+01 g/mol
        Interaction kernel             P16
        Born radius scaling (c1)           1.4744E+00
        Born radii integrator          GBOBC
        Born offset                        0.0000E+00 a0       0.0000E+00 AA
        H-bond correction              true
        Ion screening                  false
        Surface tension                    1.0000E-05 Eh       1.5569E+01 dyn/cm
        Grid points                               974 per atom

          ...................................................
          :                      SETUP                      :
          :.................................................:
          :  # basis functions                  35          :
          :  # atomic orbitals                  34          :
          :  # shells                           20          :
          :  # electrons                        32          :
          :  max. iterations                   250          :
          :  Hamiltonian                  GFN2-xTB          :
          :  restarted?                      false          :
          :  GBSA solvation                   true          :
          :  PC potential                    false          :
          :  electronic temp.          300.0000000     K    :
          :  accuracy                    1.0000000          :
          :  -> integral cutoff          0.2500000E+02      :
          :  -> integral neglect         0.1000000E-07      :
          :  -> SCF convergence          0.1000000E-05 Eh   :
          :  -> wf. convergence          0.1000000E-03 e    :
          :  Broyden damping             0.4000000          :
          :  net charge                          0          :
          :  unpaired electrons                  0          :
          ...................................................

 iter      E             dE          RMSdq      gap      omega  full diag
   1    -17.1424309 -0.171424E+02  0.596E+00    5.35       0.0  T
   2    -17.1657986 -0.233677E-01  0.444E+00    4.77       1.0  T
   3    -17.1620609  0.373776E-02  0.205E+00    4.98       1.0  T
   4    -17.1693726 -0.731176E-02  0.551E-01    4.75       1.0  T
   5    -17.1695015 -0.128875E-03  0.304E-01    4.76       1.0  T
   6    -17.1695837 -0.821938E-04  0.194E-01    4.72       1.0  T
   7    -17.1696155 -0.318319E-04  0.741E-02    4.72       1.0  T
   8    -17.1696190 -0.345838E-05  0.112E-02    4.72       2.4  T
   9    -17.1696190 -0.160326E-07  0.146E-03    4.72      18.3  T
  10    -17.1696190 -0.828359E-08  0.529E-04    4.72      50.5  T
  11    -17.1696190 -0.146731E-09  0.206E-04    4.72     129.8  T

   *** convergence criteria satisfied after 11 iterations ***

         #    Occupation            Energy/Eh            Energy/eV
      -------------------------------------------------------------
         1        2.0000           -0.7368142             -20.0497
       ...           ...                  ...                  ...
        10        2.0000           -0.4782257             -13.0132
        11        2.0000           -0.4694195             -12.7736
        12        2.0000           -0.4441366             -12.0856
        13        2.0000           -0.4423067             -12.0358
        14        2.0000           -0.4378191             -11.9137
        15        2.0000           -0.4087833             -11.1236
        16        2.0000           -0.4076469             -11.0926 (HOMO)
        17                         -0.2342817              -6.3751 (LUMO)
        18                          0.0221375               0.6024
        19                          0.0237663               0.6467
        20                          0.0327910               0.8923
        21                          0.0452203               1.2305
       ...                                ...                  ...
        34                          0.3524414               9.5904
      -------------------------------------------------------------
                  HL-Gap            0.1733652 Eh            4.7175 eV
             Fermi-level           -0.3209643 Eh           -8.7339 eV

 SCC (total)                   0 d,  0 h,  0 min,  0.021 sec
 SCC setup                      ...        0 min,  0.001 sec (  4.057%)
 Dispersion                     ...        0 min,  0.000 sec (  0.313%)
 classical contributions        ...        0 min,  0.000 sec (  0.085%)
 integral evaluation            ...        0 min,  0.013 sec ( 61.560%)
 iterations                     ...        0 min,  0.004 sec ( 19.531%)
 molecular gradient             ...        0 min,  0.003 sec ( 13.586%)
 printout                       ...        0 min,  0.000 sec (  0.795%)

         :::::::::::::::::::::::::::::::::::::::::::::::::::::
         ::                     SUMMARY                     ::
         :::::::::::::::::::::::::::::::::::::::::::::::::::::
         :: total energy             -16.969389113657 Eh    ::
         :: total w/o Gsasa/hb       -16.968756655757 Eh    ::
         :: gradient norm              0.000067566132 Eh/a0 ::
         :: HOMO-LUMO gap              4.717507160432 eV    ::
         ::.................................................::
         :: SCC energy               -17.169610678565 Eh    ::
         :: -> isotropic ES            0.007210166888 Eh    ::
         :: -> anisotropic ES          0.002939605190 Eh    ::
         :: -> anisotropic XC          0.008048373467 Eh    ::
         :: -> dispersion             -0.008349425907 Eh    ::
         :: -> Gsolv                  -0.002282220101 Eh    ::
         ::    -> Gelec               -0.001649762201 Eh    ::
         ::    -> Gsasa               -0.002626624658 Eh    ::
         ::    -> Ghb                 -0.000900382403 Eh    ::
         ::    -> Gshift               0.002894549160 Eh    ::
         :: repulsion energy           0.200221564908 Eh    ::
         :: add. restraining           0.000000000000 Eh    ::
         :: total charge              -0.000000000000 e     ::
         :::::::::::::::::::::::::::::::::::::::::::::::::::::

           -------------------------------------------------
          |                Property Printout                |
           -------------------------------------------------

    * Orbital Energies and Occupations

         #    Occupation            Energy/Eh            Energy/eV
      -------------------------------------------------------------
         1        2.0000           -0.7368142             -20.0497
       ...           ...                  ...                  ...
         4        2.0000           -0.5915660             -16.0973
         5        2.0000           -0.5659342             -15.3999
         6        2.0000           -0.5326416             -14.4939
         7        2.0000           -0.5195763             -14.1384
         8        2.0000           -0.5081807             -13.8283
         9        2.0000           -0.4911181             -13.3640
        10        2.0000           -0.4782257             -13.0132
        11        2.0000           -0.4694195             -12.7736
        12        2.0000           -0.4441366             -12.0856
        13        2.0000           -0.4423067             -12.0358
        14        2.0000           -0.4378191             -11.9137
        15        2.0000           -0.4087833             -11.1236
        16        2.0000           -0.4076469             -11.0926 (HOMO)
        17                         -0.2342817              -6.3751 (LUMO)
        18                          0.0221375               0.6024
        19                          0.0237663               0.6467
        20                          0.0327910               0.8923
        21                          0.0452203               1.2305
        22                          0.0896143               2.4385
        23                          0.1213579               3.3023
        24                          0.1222897               3.3277
        25                          0.1359388               3.6991
        26                          0.1445087               3.9323
        27                          0.1624113               4.4194
       ...                                ...                  ...
        34                          0.3524414               9.5904
      -------------------------------------------------------------
                  HL-Gap            0.1733652 Eh            4.7175 eV
             Fermi-level           -0.3209643 Eh           -8.7339 eV

     #   Z          covCN         q      C6AA      α(0)
     1   6 C        3.751    -0.114    22.736     6.800
     2   6 C        3.801    -0.061    21.669     6.627
     3   6 C        3.906    -0.059    21.573     6.602
     4   6 C        3.782     0.003    20.554     6.458
     5  53 I        1.074    -0.200   386.915    33.956
     6   1 H        0.925     0.043     2.415     2.430
     7   1 H        0.925     0.045     2.389     2.417
     8   1 H        0.925     0.036     2.508     2.477
     9   1 H        0.924     0.048     2.346     2.395
    10   1 H        0.924     0.038     2.471     2.458
    11   1 H        0.924     0.046     2.368     2.406
    12   1 H        0.924     0.049     2.337     2.390
    13   1 H        0.932     0.062     2.173     2.305
    14   1 H        0.933     0.065     2.144     2.290

 Mol. C6AA /au·bohr⁶  :       2694.509283
 Mol. C8AA /au·bohr⁸  :     112544.045197
 Mol. α(0) /au        :         82.012186


Wiberg/Mayer (AO) data.
largest (>0.10) Wiberg bond orders for each atom

 ---------------------------------------------------------------------------
     #   Z sym  total        # sym  WBO       # sym  WBO       # sym  WBO
 ---------------------------------------------------------------------------
     1   6 C    3.996 --     2 C    1.020     6 H    0.987     8 H    0.987
                             7 H    0.986
     2   6 C    3.996 --     1 C    1.020     3 C    0.994    10 H    0.977
                             9 H    0.975
     3   6 C    3.993 --     4 C    1.026     2 C    0.994    11 H    0.977
                            12 H    0.976
     4   6 C    3.949 --     3 C    1.026    13 H    0.981    14 H    0.979
                             5 I    0.944
     5  53 I    0.985 --     4 C    0.944
     6   1 H    0.998 --     1 C    0.987
     7   1 H    0.998 --     1 C    0.986
     8   1 H    0.999 --     1 C    0.987
     9   1 H    0.998 --     2 C    0.975
    10   1 H    0.999 --     2 C    0.977
    11   1 H    0.998 --     3 C    0.977
    12   1 H    0.998 --     3 C    0.976
    13   1 H    0.996 --     4 C    0.981
    14   1 H    0.996 --     4 C    0.979
 ---------------------------------------------------------------------------

Topologies differ in total number of bonds
Writing topology from bond orders to xtbtopo.mol

molecular dipole:
                 x           y           z       tot (Debye)
 q only:       -1.130       0.016      -0.015
   full:       -1.740       0.102      -0.127       4.442
molecular quadrupole (traceless):
                xx          xy          yy          xz          yz          zz
 q only:        1.612       0.058      -1.011      -0.194      -0.135      -0.601
  q+dip:       -3.134      -0.176       1.829      -0.384      -0.261       1.306
   full:       -1.005      -0.305       0.526      -0.009      -0.257       0.478


           -------------------------------------------------
          | TOTAL ENERGY              -16.969389113657 Eh   |
          | GRADIENT NORM               0.000067566132 Eh/α |
          | HOMO-LUMO GAP               4.717507160432 eV   |
           -------------------------------------------------

------------------------------------------------------------------------
 * finished run on 2025/04/11 at 12:25:55.057     
------------------------------------------------------------------------
 total:
 * wall-time:     0 d,  0 h,  0 min,  0.053 sec
 *  cpu-time:     0 d,  0 h,  0 min,  0.017 sec
 * ratio c/w:     0.328 speedup
 SCF:
 * wall-time:     0 d,  0 h,  0 min,  0.022 sec
 *  cpu-time:     0 d,  0 h,  0 min,  0.011 sec
 * ratio c/w:     0.485 speedup

