
                                 *****************
                                 * O   R   C   A *
                                 *****************

                                            #,                                       
                                            ###                                      
                                            ####                                     
                                            #####                                    
                                            ######                                   
                                           ########,                                 
                                     ,,################,,,,,                         
                               ,,#################################,,                 
                          ,,##########################################,,             
                       ,#########################################, ''#####,          
                    ,#############################################,,   '####,        
                  ,##################################################,,,,####,       
                ,###########''''           ''''###############################       
              ,#####''   ,,,,##########,,,,          '''####'''          '####       
            ,##' ,,,,###########################,,,                        '##       
           ' ,,###''''                  '''############,,,                           
         ,,##''                                '''############,,,,        ,,,,,,###''
      ,#''                                            '''#######################'''  
     '                                                          ''''####''''         
             ,#######,   #######,   ,#######,      ##                                
            ,#'     '#,  ##    ##  ,#'     '#,    #''#        ,####,   ,####,        
            ##       ##  ##   ,#'  ##            #'  '#       #'       #'  '#        
            ##       ##  #######   ##           ,######,      #####,   #    #        
            '#,     ,#'  ##    ##  '#,     ,#' ,#      #,     #,   #   #,  ,#        
             '#######'   ##     ##  '#######'  #'      '#     '####' # '####'        



                #########################################################
                #                        -***-                          #
                #          Department of theory and spectroscopy        #
                #                                                       #
                #                      Frank Neese                      #
                #                                                       #
                #     Directorship, Architecture, Infrastructure        #
                #                    SHARK, DRIVERS                     #
                #        Core code/Algorithms in most modules           #
                #                                                       #
                #        Max Planck Institute fuer Kohlenforschung      #
                #                Kaiser Wilhelm Platz 1                 #
                #                 D-45470 Muelheim/Ruhr                 #
                #                      Germany                          #
                #                                                       #
                #                  All rights reserved                  #
                #                        -***-                          #
                #########################################################


                         Program Version 6.0.0  -   RELEASE  -


 With contributions from (in alphabetic order):
   Daniel Aravena         : Magnetic Suceptibility
   Michael Atanasov       : Ab Initio Ligand Field Theory (pilot matlab implementation)
   Alexander A. Auer      : GIAO ZORA, VPT2 properties, NMR spectrum
   Ute Becker             : All parallelization in ORCA, NUMFREQ, NUMCALC
   Giovanni Bistoni       : ED, misc. LED, open-shell LED, HFLD
   Martin Brehm           : Molecular dynamics
   Dmytro Bykov           : pre 5.0 version of the SCF Hessian
   Marcos Casanova-Páez   : Triplet and SCS-CIS(D). UHF-(DLPNO)-IP/EA/STEOM-CCSD. UHF-CVS-IP/STEOM-CCSD
   Vijay G. Chilkuri      : MRCI spin determinant printing, contributions to CSF-ICE
   Pauline Colinet        : FMM embedding
   Dipayan Datta          : RHF DLPNO-CCSD density
   Achintya Kumar Dutta   : EOM-CC, STEOM-CC
   Nicolas Foglia         : Exact transition moments, OPA infrastructure, MCD improvements
   Dmitry Ganyushin       : Spin-Orbit,Spin-Spin,Magnetic field MRCI
   Miquel Garcia          : C-PCM and meta-GGA Hessian, CCSD/C-PCM, Gaussian charge scheme
   Tiago L. C. Gouveia    : GS-ROHF, GS-ROCIS
   Yang Guo               : DLPNO-NEVPT2, F12-NEVPT2, CIM, IAO-localization
   Andreas Hansen         : Spin unrestricted coupled pair/coupled cluster methods
   Ingolf Harden          : AUTO-CI MPn and infrastructure 
   Benjamin Helmich-Paris : MC-RPA, TRAH-(SCF,CASSCF), AVAS, COSX integrals, SCF dyn. polar.
   Lee Huntington         : MR-EOM, pCC
   Robert Izsak           : Overlap fitted RIJCOSX, COSX-SCS-MP3, EOM
   Riya Kayal             : Wick's Theorem for AUTO-CI, AUTO-CI UHF-CCSDT
   Emily Kempfer          : AUTO-CI, RHF CISDT and CCSDT
   Christian Kollmar      : KDIIS, OOCD, Brueckner-CCSD(T), CCSD density, CASPT2, CASPT2-K, improved NEVPT2
   Axel Koslowski         : Symmetry handling
   Simone Kossmann        : Meta GGA functionals, TD-DFT gradient, OOMP2, (MP2 Hessian; deprecated post 5.0)
   Lucas Lang             : DCDCAS
   Marvin Lechner         : AUTO-CI (C++ implementation), FIC-MRCC
   Spencer Leger          : CASSCF response
   Dagmar Lenk            : GEPOL surface, SMD, ORCA-2-JSON
   Dimitrios Liakos       : Extrapolation schemes; Compound Job, initial MDCI parallelization
   Dimitrios Manganas     : Further ROCIS development; embedding schemes. LFT, Crystal Embedding
   Dimitrios Pantazis     : SARC Basis sets
   Anastasios Papadopoulos: AUTO-CI, single reference methods and gradients
   Taras Petrenko         : pre 6.0 DFT Hessian and TD-DFT gradient, (ASA, deprecated), ECA, 1-Electron XAS/XES, NRVS
   Peter Pinski           : DLPNO-MP2, DLPNO-MP2 Gradient
   Christoph Reimann      : Effective Core Potentials
   Marius Retegan         : Local ZFS, SOC
   Christoph Riplinger    : Optimizer, TS searches, QM/MM, DLPNO-CCSD(T), (RO)-DLPNO pert. Triples
   Michael Roemelt        : Original ROCIS implementation
   Masaaki Saitow         : Open-shell DLPNO-CCSD energy and density
   Barbara Sandhoefer     : DKH picture change effects
   Kantharuban Sivalingam : CASSCF convergence/infrastructure, NEVPT2 and variants, FIC-MRCI
   Bernardo de Souza      : ESD, SOC TD-DFT
   Georgi Stoychev        : AutoAux, RI-MP2 NMR, DLPNO-MP2 response, X2C
   Van Anh Tran           : RI-MP2 g-tensors
   Willem Van den Heuvel  : Paramagnetic NMR
   Zikuan Wang            : NOTCH, Electric field optimization 
   Frank Wennmohs         : Technical directorship and infrastructure
   Hang Xu                : AUTO-CI-Response properties 


 We gratefully acknowledge several colleagues who have allowed us to
 interface, adapt or use parts of their codes:
   Stefan Grimme, W. Hujo, H. Kruse, P. Pracht,  : VdW corrections, initial TS optimization,
                  C. Bannwarth, S. Ehlert,         DFT functionals, gCP, sTDA/sTD-DF
                  L. Wittmann, M. Mueller
   Ed Valeev, F. Pavosevic, A. Kumar             : LibInt (2-el integral package), F12 methods
   Garnet Chan, S. Sharma, J. Yang, R. Olivares  : DMRG
   Ulf Ekstrom                                   : XCFun DFT Library
   Mihaly Kallay                                 : mrcc  (arbitrary order and MRCC methods)
   Frank Weinhold                                : gennbo (NPA and NBO analysis)
   Simon Mueller                                 : openCOSMO-RS
   Christopher J. Cramer and Donald G. Truhlar   : smd solvation model
   Lars Goerigk                                  : TD-DFT with DH, B97 family of functionals
   V. Asgeirsson, H. Jonsson                     : NEB implementation
   FAccTs GmbH                                   : IRC, NEB, NEB-TS, DLPNO-Multilevel, CI-OPT
                                                   MM, QMMM, 2- and 3-layer-ONIOM, Crystal-QMMM,
                                                   LR-CPCM, SF, NACMEs, symmetry and pop. for TD-DFT,
                                                   nearIR, NL-DFT gradient (VV10), updates on ESD,
                                                   ML-optimized integration grids, MBIS, APM,
                                                   GOAT, DOCKER, SOLVATOR, interface openCOSMO-RS
   S Lehtola, MJT Oliveira, MAL Marques          : LibXC Library
   Liviu Ungur et al                             : ANISO software


 Your calculation uses the libint2 library for the computation of 2-el integrals
 For citations please refer to: http://libint.valeyev.net

 Your ORCA version has been built with support for libXC version: 6.2.2
 For citations please refer to: https://libxc.gitlab.io

 This ORCA versions uses:
   CBLAS   interface :  Fast vector & matrix operations
   LAPACKE interface :  Fast linear algebra routines
   SCALAPACK package :  Parallel linear algebra routines
   Shared memory     :  Shared parallel matrices
   BLAS/LAPACK       :  OpenBLAS 0.3.27  USE64BITINT DYNAMIC_ARCH NO_AFFINITY SkylakeX SINGLE_THREADED
        Core in use  :  SkylakeX
   Copyright (c) 2011-2014, The OpenBLAS Project


Your calculation utilizes the geometrical counterpoise correction gCP
Please cite in your paper:
H.Kruse, S. Grimme J.Chem.Phys., 136, (2012), 154101 
   

Your calculation utilizes the atom-pairwise dispersion correction
based on EEQ partial charges (D4)


Your calculation utilizes the SMD solvation module
Please cite in your paper:
A.V. Marenich, C.J. Cramer, D.G. Truhlar J. Phys. Chem. B, 113, (2009), 6378 

================================================================================

----- Orbital basis set information -----
Your calculation utilizes the basis: def2-mTZVPP
   Stefan Grimme, Andreas Hansen, Sebastian Ehlert, and Jan-Michael Mewes 
   J. Chem. Phys. 154, 064103 (2021). DOI: 10.1063/5.0040021

----- AuxJ basis set information -----
Your calculation utilizes the auxiliary basis: def2/J
   F. Weigend, Phys. Chem. Chem. Phys. 8, 1057 (2006).

================================================================================
                                        WARNINGS
                       Please study these warnings very carefully!
================================================================================

Using LibXC functional ID 497 : Re-regularized SCAN exchange by Furness et al
[ 1]  J. W. Furness, A. D. Kaplan, J. Ning, J. P. Perdew, and J. Sun.,  J. Phys. Chem. Lett. 11, 8208-8215 (2020)
[ 2]  J. W. Furness, A. D. Kaplan, J. Ning, J. P. Perdew, and J. Sun.,  J. Phys. Chem. Lett. 11, 9248-9248 (2020)
Using LibXC functional ID 498 : Re-regularized SCAN correlation by Furness et al
[ 1]  J. W. Furness, A. D. Kaplan, J. Ning, J. P. Perdew, and J. Sun.,  J. Phys. Chem. Lett. 11, 8208-8215 (2020)
[ 2]  J. W. Furness, A. D. Kaplan, J. Ning, J. P. Perdew, and J. Sun.,  J. Phys. Chem. Lett. 11, 9248-9248 (2020)
Using LibXC functional ID 497 : Re-regularized SCAN exchange by Furness et al
[ 1]  J. W. Furness, A. D. Kaplan, J. Ning, J. P. Perdew, and J. Sun.,  J. Phys. Chem. Lett. 11, 8208-8215 (2020)
[ 2]  J. W. Furness, A. D. Kaplan, J. Ning, J. P. Perdew, and J. Sun.,  J. Phys. Chem. Lett. 11, 9248-9248 (2020)
Using LibXC functional ID 498 : Re-regularized SCAN correlation by Furness et al
[ 1]  J. W. Furness, A. D. Kaplan, J. Ning, J. P. Perdew, and J. Sun.,  J. Phys. Chem. Lett. 11, 8208-8215 (2020)
[ 2]  J. W. Furness, A. D. Kaplan, J. Ning, J. P. Perdew, and J. Sun.,  J. Phys. Chem. Lett. 11, 9248-9248 (2020)

================================================================================
                                       INPUT FILE
================================================================================
NAME = sp_solv.inp
|  1> ! r2scan-3c def2/J RI DEFGRID2 scfconv6 printgap
|  2> %output
|  3>     printlevel normal
|  4> end
|  5> %cpcm
|  6>     smd true
|  7>     smdsolvent "water"
|  8> end
|  9> * xyz 0 1
| 10> C -1.9883491147 0.6401320646 0.5768510182
| 11> C -1.4902738991 -0.574645111 -0.1965183415
| 12> C -0.216534539 -0.2598628874 -0.9878165043
| 13> N 0.8881177028 -0.0169410204 -0.0670386995
| 14> O 1.4205920686 1.0745661489 -0.0827351846
| 15> O 1.2162076534 -0.9166662347 0.6789849875
| 16> H -2.1943997817 1.4677513583 -0.0973341156
| 17> H -2.9026498971 0.3950795774 1.1094439832
| 18> H -1.2504013018 0.9693131115 1.3065337653
| 19> H -2.2541887929 -0.9013811293 -0.9007909636
| 20> H -1.2806873427 -1.3959785452 0.4908655668
| 21> H 0.0542859681 -1.1221117612 -1.6001341936
| 22> H -0.3365107342 0.6325494785 -1.6026313816
| 23> *
| 24> 
| 25>                          ****END OF INPUT****
================================================================================

                       ****************************
                       * Single Point Calculation *
                       ****************************

---------------------------------
CARTESIAN COORDINATES (ANGSTROEM)
---------------------------------
  C     -1.988349    0.640132    0.576851
  C     -1.490274   -0.574645   -0.196518
  C     -0.216535   -0.259863   -0.987817
  N      0.888118   -0.016941   -0.067039
  O      1.420592    1.074566   -0.082735
  O      1.216208   -0.916666    0.678985
  H     -2.194400    1.467751   -0.097334
  H     -2.902650    0.395080    1.109444
  H     -1.250401    0.969313    1.306534
  H     -2.254189   -0.901381   -0.900791
  H     -1.280687   -1.395979    0.490866
  H      0.054286   -1.122112   -1.600134
  H     -0.336511    0.632549   -1.602631

----------------------------
CARTESIAN COORDINATES (A.U.)
----------------------------
  NO LB      ZA    FRAG     MASS         X           Y           Z
   0 C     6.0000    0    12.011   -3.757435    1.209674    1.090090
   1 C     6.0000    0    12.011   -2.816210   -1.085922   -0.371366
   2 C     6.0000    0    12.011   -0.409191   -0.491070   -1.866703
   3 N     7.0000    0    14.007    1.678299   -0.032014   -0.126685
   4 O     8.0000    0    15.999    2.684530    2.030636   -0.156347
   5 O     8.0000    0    15.999    2.298299   -1.732248    1.283096
   6 H     1.0000    0     1.008   -4.146815    2.773648   -0.183935
   7 H     1.0000    0     1.008   -5.485213    0.746592    2.096545
   8 H     1.0000    0     1.008   -2.362916    1.831736    2.468991
   9 H     1.0000    0     1.008   -4.259799   -1.703363   -1.702248
  10 H     1.0000    0     1.008   -2.420148   -2.638017    0.927601
  11 H     1.0000    0     1.008    0.102586   -2.120484   -3.023815
  12 H     1.0000    0     1.008   -0.635913    1.195345   -3.028534

--------------------------------
INTERNAL COORDINATES (ANGSTROEM)
--------------------------------
 C      0   0   0     0.000000000000     0.00000000     0.00000000
 C      1   0   0     1.523765950951     0.00000000     0.00000000
 C      2   1   0     1.532205139077   111.71948327     0.00000000
 N      3   2   1     1.458457875495   109.74370442    67.78104948
 O      4   3   2     1.214562979228   118.26703006   241.48247231
 O      4   3   2     1.213960385885   117.98461806    60.95869565
 H      1   2   3     1.087168877090   110.73862060    58.79434987
 H      1   2   3     1.086117815224   110.13112992   178.72926890
 H      1   2   3     1.088744252622   111.07818917   298.41869701
 H      2   1   3     1.089184243764   109.75952829   240.09825581
 H      2   1   3     1.091334857937   110.06479166   120.83013692
 H      3   2   1     1.091672945559   109.48954578   185.33779037
 H      3   2   1     1.090317133487   111.58576272   308.55701273

---------------------------
INTERNAL COORDINATES (A.U.)
---------------------------
 C      0   0   0     0.000000000000     0.00000000     0.00000000
 C      1   0   0     2.879500339491     0.00000000     0.00000000
 C      2   1   0     2.895448093842   111.71948327     0.00000000
 N      3   2   1     2.756085962546   109.74370442    67.78104948
 O      4   3   2     2.295191403141   118.26703006   241.48247231
 O      4   3   2     2.294052666751   117.98461806    60.95869565
 H      1   2   3     2.054451439022   110.73862060    58.79434987
 H      1   2   3     2.052465219947   110.13112992   178.72926890
 H      1   2   3     2.057428467336   111.07818917   298.41869701
 H      2   1   3     2.058259930096   109.75952829   240.09825581
 H      2   1   3     2.062324001903   110.06479166   120.83013692
 H      3   2   1     2.062962894917   109.48954578   185.33779037
 H      3   2   1     2.060400781412   111.58576272   308.55701273

---------------------
BASIS SET INFORMATION
---------------------
There are 4 groups of distinct atoms

 Group   1 Type C   : 11s6p1d contracted to 5s3p1d pattern {62111/411/1}
 Group   2 Type N   : 11s6p2d contracted to 5s3p2d pattern {62111/411/11}
 Group   3 Type O   : 11s6p2d contracted to 5s3p2d pattern {62111/411/11}
 Group   4 Type H   : 4s1p contracted to 2s1p pattern {31/1}

Atom   0C    basis set group =>   1
Atom   1C    basis set group =>   1
Atom   2C    basis set group =>   1
Atom   3N    basis set group =>   2
Atom   4O    basis set group =>   3
Atom   5O    basis set group =>   3
Atom   6H    basis set group =>   4
Atom   7H    basis set group =>   4
Atom   8H    basis set group =>   4
Atom   9H    basis set group =>   4
Atom  10H    basis set group =>   4
Atom  11H    basis set group =>   4
Atom  12H    basis set group =>   4
---------------------------------
AUXILIARY/J BASIS SET INFORMATION
---------------------------------
There are 4 groups of distinct atoms

 Group   1 Type C   : 12s5p4d2f1g contracted to 6s4p3d1f1g pattern {711111/2111/211/2/1}
 Group   2 Type N   : 12s5p4d2f1g contracted to 6s4p3d1f1g pattern {711111/2111/211/2/1}
 Group   3 Type O   : 12s5p4d2f1g contracted to 6s4p3d1f1g pattern {711111/2111/211/2/1}
 Group   4 Type H   : 5s2p1d contracted to 3s1p1d pattern {311/2/1}

Atom   0C    basis set group =>   1
Atom   1C    basis set group =>   1
Atom   2C    basis set group =>   1
Atom   3N    basis set group =>   2
Atom   4O    basis set group =>   3
Atom   5O    basis set group =>   3
Atom   6H    basis set group =>   4
Atom   7H    basis set group =>   4
Atom   8H    basis set group =>   4
Atom   9H    basis set group =>   4
Atom  10H    basis set group =>   4
Atom  11H    basis set group =>   4
Atom  12H    basis set group =>   4

Checking for AutoStart:
The File: sp_solv.gbw exists
Trying to determine its content:
     ... Fine, the file contains calculation information
     ... Fine, the calculation information was read
     ... Fine, the file contains a basis set
     ... Fine, the basis set was read
     ... Fine, the file contains a geometry
     ... Fine, the geometry was read
     ... Fine, the file contains a set of orbitals
     ... Fine, the orbitals can be read
     => possible old guess file was deleted
     => GBW file was renamed to GES file
     => GES file is set as startup file
     => Guess is set to MORead
     ... now leaving AutoStart

------------------------------------------------------------------------------
                             ORCA STARTUP CALCULATIONS
                           -- RI-GTO INTEGRALS CHOSEN --
------------------------------------------------------------------------------
------------------------------------------------------------------------------
                   ___                                                        
                  /   \      - P O W E R E D   B Y -                         
                 /     \                                                     
                 |  |  |   _    _      __       _____    __    __             
                 |  |  |  | |  | |    /  \     |  _  \  |  |  /  |          
                  \  \/   | |  | |   /    \    | | | |  |  | /  /          
                 / \  \   | |__| |  /  /\  \   | |_| |  |  |/  /          
                |  |  |   |  __  | /  /__\  \  |    /   |      \           
                |  |  |   | |  | | |   __   |  |    \   |  |\   \          
                \     /   | |  | | |  |  |  |  | |\  \  |  | \   \       
                 \___/    |_|  |_| |__|  |__|  |_| \__\ |__|  \__/        
                                                                              
                      - O R C A' S   B I G   F R I E N D -                    
                                      &                                       
                       - I N T E G R A L  F E E D E R -                       
                                                                              
 v1 FN, 2020, v2 2021, v3 2022-2024                                           
------------------------------------------------------------------------------


----------------------
SHARK INTEGRAL PACKAGE
----------------------

Number of atoms                             ...     13
Number of basis functions                   ...    164
Number of shells                            ...     78
Maximum angular momentum                    ...      2
Integral batch strategy                     ... SHARK/LIBINT Hybrid
RI-J (if used) integral strategy            ... SPLIT-RIJ (Revised 2003 algorithm where possible)
Printlevel                                  ...      1
Contraction scheme used                     ... SEGMENTED contraction
Prescreening option                         ... SCHWARTZ
   Thresh                                   ... 1.000e-10
   Tcut                                     ... 1.000e-11
   Tpresel                                  ... 1.000e-11 
Coulomb Range Separation                    ... NOT USED
Exchange Range Separation                   ... NOT USED
Multipole approximations                    ... NOT USED
Finite Nucleus Model                        ... NOT USED
CABS basis                                  ... NOT available
Auxiliary Coulomb fitting basis             ... AVAILABLE
   # of basis functions in Aux-J            ...    371
   # of shells in Aux-J                     ...    125
   Maximum angular momentum in Aux-J        ...      4
Auxiliary J/K fitting basis                 ... NOT available
Auxiliary Correlation fitting basis         ... NOT available
Auxiliary 'external' fitting basis          ... NOT available

Checking pre-screening integrals            ... done (  0.0 sec) Dimension = 78
Check shell pair data                       ... done (  0.0 sec)
Shell pair information
Shell pair cut-off parameter TPreSel        ...   1.0e-11
Total number of shell pairs                 ...      3081
Shell pairs after pre-screening             ...      2918
Total number of primitive shell pairs       ...     10884
Primitive shell pairs kept                  ...      7708
          la=0 lb=0:    911 shell pairs
          la=1 lb=0:   1043 shell pairs
          la=1 lb=1:    317 shell pairs
          la=2 lb=0:    381 shell pairs
          la=2 lb=1:    221 shell pairs
          la=2 lb=2:     45 shell pairs

Calculating one electron integrals          ... done (  0.0 sec)
Calculating RI/J V-Matrix + Cholesky decomp.... done (  0.1 sec)
Calculating Nuclear repulsion               ... done (  0.0 sec) ENN=    252.456792493579 Eh

Diagonalization of the overlap matrix:
Smallest eigenvalue                        ... 2.422e-04
Time for diagonalization                   ...    0.006 sec
Threshold for overlap eigenvalues          ... 1.000e-07
Number of eigenvalues below threshold      ... 0
Time for construction of square roots      ...    0.030 sec
Total time needed                          ...    0.050 sec

-------------------
DFT GRID GENERATION
-------------------

General Integration Accuracy     IntAcc      ... 4.388
Radial Grid Type                 RadialGrid  ... OptM3 with GC (2021)
Angular Grid (max. ang.)         AngularGrid ... 4 (Lebedev-302)
Angular grid pruning method      GridPruning ... 4 (adaptive)
Weight generation scheme         WeightScheme... mBecke (2022)
Basis function cutoff            BFCut       ... 1.0000e-10
Integration weight cutoff        WCut        ... 1.0000e-14
Partially contracted basis set               ... off
Rotationally invariant grid construction     ... off
Angular grids for H and He will be reduced by one unit
Diffuse basis detected: some atoms will have their outermost
                        angular grid increased by 1.

Total number of grid points                  ...    59505
Total number of batches                      ...      937
Average number of points per batch           ...       63
Average number of grid points per atom       ...     4577
Initializing property integral containers    ... done (  0.0 sec)

SHARK setup successfully completed in   1.3 seconds

Maximum memory used throughout the entire STARTUP-calculation: 27.0 MB
-------------------------------------------------------------------------------
                                 ORCA GUESS
                   Start orbitals & Density for SCF / CASSCF
-------------------------------------------------------------------------------

------------
SCF SETTINGS
------------
Hamiltonian:
 Density Functional     Method          .... DFT(GTOs)
  Functional kind                       .... Exchange
  Functional name                       .... Re-regularized SCAN exchange by Furness et al
  Functional family                     .... MGGA
  Functional refs                              
    [ 0] J. W. Furness, A. D. Kaplan, J. Ning, J. P. Perdew, and J. Sun.,  J. Phys. Chem. Lett. 11, 8208-8215 (2020), doi: 10.1021/acs.jpclett.0c02405
    [ 1] J. W. Furness, A. D. Kaplan, J. Ning, J. P. Perdew, and J. Sun.,  J. Phys. Chem. Lett. 11, 9248-9248 (2020), doi: 10.1021/acs.jpclett.0c03077
  Functional external parameters        .... 6
    Parameter  0 _c1        =  6.670000e-01 : c1 parameter        
    Parameter  1 _c2        =  8.000000e-01 : c2 parameter        
    Parameter  2 _d         =  1.240000e+00 : d parameter         
    Parameter  3 _k1        =  6.500000e-02 : k1 parameter        
    Parameter  4 _eta       =  1.000000e-03 : eta parameter       
    Parameter  5 _dp2       =  3.610000e-01 : dp2 parameter       
  Functional kind                       .... Correlation
  Functional name                       .... Re-regularized SCAN correlation by Furness et al
  Functional family                     .... MGGA
  Functional refs                              
    [ 0] J. W. Furness, A. D. Kaplan, J. Ning, J. P. Perdew, and J. Sun.,  J. Phys. Chem. Lett. 11, 8208-8215 (2020), doi: 10.1021/acs.jpclett.0c02405
    [ 1] J. W. Furness, A. D. Kaplan, J. Ning, J. P. Perdew, and J. Sun.,  J. Phys. Chem. Lett. 11, 9248-9248 (2020), doi: 10.1021/acs.jpclett.0c03077
  Functional external parameters        .... 1
    Parameter  0 _eta       =  1.000000e-03 : Regularization parameter
 Gradients option       PostSCFGGA      .... off
 RI-approximation to the Coulomb term is turned on
   Number of AuxJ basis functions       .... 371


General Settings:
 Integral files         IntName         .... sp_solv
 Hartree-Fock type      HFTyp           .... RHF
 Total Charge           Charge          ....    0
 Multiplicity           Mult            ....    1
 Number of Electrons    NEL             ....   48
 Basis Dimension        Dim             ....  164
 Nuclear Repulsion      ENuc            ....    252.4567924936 Eh

Convergence Acceleration:
 AO-DIIS                CNVDIIS         .... on
   Start iteration      DIISMaxIt       ....    12
   Startup error        DIISStart       ....  0.200000
   # of expansion vecs  DIISMaxEq       ....     5
   Bias factor          DIISBfac        ....   1.050
   Max. coefficient     DIISMaxC        ....  10.000
 MO-DIIS                CNVKDIIS        .... off
 Trust-Rad. Augm. Hess. CNVTRAH         .... auto
   Auto Start mean grad. ratio tolernc. ....  1.125000
   Auto Start start iteration           ....     1
   Auto Start num. interpolation iter.  ....    10
   Max. Number of Micro iterations      ....    24
   Max. Number of Macro iterations      .... Maxiter - #DIIS iter
   Number of Davidson start vectors     ....     2
   Converg. threshold    (grad. norm)   ....   3.330e-04
   Grad. Scal. Fac. for Micro threshold ....   0.100
   Minimum threshold for Micro iter.    ....   1.000e-02
   NR start threshold (gradient norm)   ....   1.000e-04
   Initial trust radius                 ....   0.400
   Minimum AH scaling param. (alpha)    ....   1.000
   Maximum AH scaling param. (alpha)    .... 1000.000
   Quad. conv. algorithm                .... NR
   White noise on init. David. guess    .... on
   Maximum white noise                  ....   0.010
   Pseudo random numbers                .... off
   Inactive MOs                         .... canonical
   Orbital update algorithm             .... Taylor
   Preconditioner                       .... Diag
   Full preconditioner red. dimension   ....   250
   COSX micro iterations for RIJONX calc.... off
 SOSCF                  CNVSOSCF        .... on
   Start iteration      SOSCFMaxIt      ....   150
   Startup grad/error   SOSCFStart      ....  0.003300
   Hessian update       SOSCFHessUp     .... L-BFGS
 Level Shifting         CNVShift        .... on
   Level shift para.    LevelShift      ....    0.2500
   Turn off err/grad.   ShiftErr        ....    0.0010
 Zerner damping         CNVZerner       .... off
 Static damping         CNVDamp         .... on
   Fraction old density DampFac         ....    0.7000
   Max. Damping (<1)    DampMax         ....    0.9800
   Min. Damping (>=0)   DampMin         ....    0.0000
   Turn off err/grad.   DampErr         ....    0.1000

SCF Procedure:
 Maximum # iterations   MaxIter         ....   125
 SCF integral mode      SCFMode         .... Direct
   Integral package                     .... SHARK and LIBINT hybrid scheme
 Reset frequency        DirectResetFreq ....    20
 Integral Threshold     Thresh          ....  1.000e-10 Eh
 Primitive CutOff       TCut            ....  1.000e-11 Eh

Convergence Tolerance:
 Convergence Check Mode ConvCheckMode   .... Total+1el-Energy
 Convergence forced     ConvForced      .... 0
 Energy Change          TolE            ....  1.000e-06 Eh
 1-El. energy change                    ....  1.000e-03 Eh
 Orbital Gradient       TolG            ....  3.330e-04
 Orbital Rotation angle TolX            ....  3.330e-04
 DIIS Error             TolErr          ....  1.000e-06

---------------------
INITIAL GUESS: MOREAD
---------------------
Guess MOs are being read from file: sp_solv.ges
Input Geometry matches current geometry (good)
Atom 0: N(Shells)= 9 and 6 - projection required
Input basis set needs projection
NBasis(read)= 98
NBasis(calc)= 164
Basis set overlap was calculated
Using GuessMode=FMatrix for the initial guess
C*T matrix was formed
Effective Fockian was calculated
Effective Fockian was diagonalized
Initial density was built
                      ------------------
                      INITIAL GUESS DONE (   0.1 sec)
                      ------------------
             **** ENERGY FILE WAS UPDATED (sp_solv.en.tmp) ****
Finished Guess after   0.4 sec
Maximum memory used throughout the entire GUESS-calculation: 11.2 MB

-------------------------------------------------------------------------------------------
                                      ORCA LEAN-SCF
                              memory conserving SCF solver
-------------------------------------------------------------------------------------------

--------------------
CPCM SOLVATION MODEL
--------------------
CPCM parameters:
  Epsilon                                         ...      78.3550
  Refrac                                          ...       1.3328
  Rsolv                                           ...       1.3000
  Surface type                                    ... GAUSSIAN VDW
  Discretization scheme                           ... Constant charge density
    Threshold for H atoms                         ...       5.0000 (charges/Ang^2)
    Threshold for non-H atoms                     ...       5.0000 (charges/Ang^2)
  Epsilon function type                           ...         CPCM
Solvent:                                          ... WATER
SMD-CDS solvent descriptors:
  Soln                                            ...       1.3328
  Soln25                                          ...       1.3323
  Sola                                            ...       0.0000
  Solb                                            ...       0.0000
  Solg                                            ...       0.0000
  Solc                                            ...       0.0000
  Solh                                            ...       0.0000
Radii:
  Scheme                                          ... Element-dependent radii
  Radius for C  used is    3.4960 Bohr (=   1.8500 Ang.)
  Radius for N  used is    3.5716 Bohr (=   1.8900 Ang.)
  Radius for O  used is    2.8724 Bohr (=   1.5200 Ang.)
  Radius for H  used is    2.2677 Bohr (=   1.2000 Ang.)
Calculating surface                               ...        done! (  0.0s)
Cavity surface points                             ...         1000
Cavity Volume                                     ...     610.8736
Cavity Surface-area                               ...     417.3472
Calculating surface distance matrix               ...        done! (  0.0s)
Performing Cholesky decomposition & store         ...        done! (  0.1s)
Overall time for CPCM initialization              ...                 0.1s

----------------------------------------D-I-I-S--------------------------------------------
Iteration    Energy (Eh)           Delta-E    RMSDP     MaxDP     DIISErr   Damp  Time(sec)
-------------------------------------------------------------------------------------------
               ***  Starting incremental Fock matrix formation  ***
    1    -323.4357688473537564     0.00e+00  5.62e-03  1.88e-01  6.38e-01  0.700   2.8
    2    -323.4854793278686884    -4.97e-02  4.66e-03  1.23e-01  4.48e-01  0.700   2.3
    3    -323.5207334141719002    -3.53e-02  3.45e-03  8.95e-02  3.14e-01  0.700   2.2
    4    -323.5455445191875015    -2.48e-02  2.49e-03  6.35e-02  2.20e-01  0.700   2.2
                               ***Turning on AO-DIIS***
    5    -323.5629771319488555    -1.74e-02  1.81e-03  4.51e-02  1.54e-01  0.700   2.0
    6    -323.5752081380202299    -1.22e-02  1.29e-03  3.19e-02  1.08e-01  0.700   2.4
    7    -323.5837948046407746    -8.59e-03  9.13e-04  2.24e-02  7.54e-02  0.700   1.9
    8    -323.5898148681662860    -6.02e-03  2.14e-03  5.23e-02  5.29e-02  0.000   2.3
                              *** Initializing SOSCF ***
---------------------------------------S-O-S-C-F--------------------------------------
Iteration    Energy (Eh)           Delta-E    RMSDP     MaxDP     MaxGrad    Time(sec)
--------------------------------------------------------------------------------------
    9    -323.6038957594912517    -1.41e-02  2.31e-05  8.98e-04  1.87e-04     2.0
               *** Restarting incremental Fock matrix formation ***
   10    -323.6038959391518119    -1.80e-07  1.34e-05  5.00e-04  1.04e-04     2.2
   11    -323.6038957204947337     2.19e-07  5.20e-06  1.37e-04  2.22e-04     2.0
                 **** Energy Check signals convergence ****

               *****************************************************
               *                     SUCCESS                       *
               *           SCF CONVERGED AFTER  11 CYCLES          *
               *****************************************************


SMD CDS free energy correction energy :                 5.28305     Kcal/mol
Total Energy after SMD CDS correction =              -323.595476647 Eh
             **** ENERGY FILE WAS UPDATED (sp_solv.en.tmp) ****

----------------
TOTAL SCF ENERGY
----------------

Total Energy       :       -323.59547664674545 Eh           -8805.48058 eV

Components:
Nuclear Repulsion  :        252.45679249357886 Eh            6869.69857 eV
Electronic Energy  :       -576.04406590682106 Eh          -15674.95593 eV
One Electron Energy:       -939.99239782354289 Eh          -25578.49353 eV
Two Electron Energy:        363.94833191672183 Eh            9903.53760 eV
CPCM Dielectric    :         -0.01662230725251 Eh              -0.45232 eV
SMD CDS (Gcds)     :          0.00841907374929 Eh               0.22909 eV

Virial components:
Potential Energy   :       -646.04283202414967 Eh          -17579.71920 eV
Kinetic Energy     :        322.44735537740416 Eh            8774.23861 eV
Virial Ratio       :          2.00356064718843

DFT components:
N(Alpha)           :       23.999989611956 electrons
N(Beta)            :       23.999989611956 electrons
N(Total)           :       47.999979223913 electrons
E(X)               :      -41.269954092909 Eh       
E(C)               :       -1.561848591821 Eh       
E(XC)              :      -42.831802684730 Eh       

CPCM Solvation Model Properties:
Surface-charge          :         -0.03778319558949
Corrected charge        :          0.00000000000000
Outlying charge corr.   :          0.00012708638050 Eh               0.00346 eV
Free-energy (cav+disp)  :          0.00841907374929 Eh               0.22909 eV

---------------
SCF CONVERGENCE
---------------

  Last Energy change         ...   -2.1866e-07  Tolerance :   1.0000e-06
  Last MAX-Density change    ...    1.3663e-04  Tolerance :   1.0000e-05
  Last RMS-Density change    ...    5.1999e-06  Tolerance :   1.0000e-06
  Last DIIS Error            ...    1.8744e-04  Tolerance :   1.0000e-06
  Last Orbital Gradient      ...    2.2245e-04  Tolerance :   3.3300e-04
  Last Orbital Rotation      ...    1.8448e-04  Tolerance :   3.3300e-04


----------------
ORBITAL ENERGIES
----------------

  NO   OCC          E(Eh)            E(eV) 
   0   2.0000     -18.996626      -516.9245 
   1   2.0000     -18.995445      -516.8923 
   2   2.0000     -14.397982      -391.7890 
   3   2.0000     -10.080128      -274.2942 
   4   2.0000     -10.039607      -273.1916 
   5   2.0000     -10.015857      -272.5453 
   6   2.0000      -1.216106       -33.0919 
   7   2.0000      -1.038358       -28.2552 
   8   2.0000      -0.806854       -21.9556 
   9   2.0000      -0.712743       -19.3947 
  10   2.0000      -0.610536       -16.6135 
  11   2.0000      -0.559141       -15.2150 
  12   2.0000      -0.528184       -14.3726 
  13   2.0000      -0.506480       -13.7820 
  14   2.0000      -0.494161       -13.4468 
  15   2.0000      -0.424238       -11.5441 
  16   2.0000      -0.405160       -11.0250 
  17   2.0000      -0.381171       -10.3722 
  18   2.0000      -0.329235        -8.9589 
  19   2.0000      -0.321257        -8.7418 
  20   2.0000      -0.315321        -8.5803 
  21   2.0000      -0.303766        -8.2659 
  22   2.0000      -0.286454        -7.7948 
  23   2.0000      -0.269323        -7.3286 
  24   0.0000      -0.109758        -2.9867 
  25   0.0000       0.093276         2.5382 
  26   0.0000       0.105884         2.8813 
  27   0.0000       0.126188         3.4338 
  28   0.0000       0.131284         3.5724 
  29   0.0000       0.144653         3.9362 
  30   0.0000       0.157544         4.2870 
  31   0.0000       0.170909         4.6507 
  32   0.0000       0.195066         5.3080 
  33   0.0000       0.197529         5.3750 
  34   0.0000       0.209859         5.7106 
*Only the first 10 virtual orbitals were printed.

                    ********************************
                    * MULLIKEN POPULATION ANALYSIS *
                    ********************************

-----------------------
MULLIKEN ATOMIC CHARGES
-----------------------
   0 C :   -0.524459
   1 C :   -0.224819
   2 C :   -0.278881
   3 N :    0.255897
   4 O :   -0.248074
   5 O :   -0.246428
   6 H :    0.164541
   7 H :    0.167678
   8 H :    0.165071
   9 H :    0.176235
  10 H :    0.168314
  11 H :    0.214714
  12 H :    0.210211
Sum of atomic charges:   -0.0000000

--------------------------------
MULLIKEN REDUCED ORBITAL CHARGES
--------------------------------
  0 C s       :     3.341987  s :     3.341987
      pz      :     1.062000  p :     3.155744
      px      :     1.103846
      py      :     0.989898
      dz2     :     0.001726  d :     0.026727
      dxz     :     0.007216
      dyz     :     0.008048
      dx2y2   :     0.005736
      dxy     :     0.004002

  1 C s       :     3.213249  s :     3.213249
      pz      :     1.030387  p :     2.975349
      px      :     0.953804
      py      :     0.991158
      dz2     :     0.002895  d :     0.036221
      dxz     :     0.009733
      dyz     :     0.009644
      dx2y2   :     0.007859
      dxy     :     0.006089

  2 C s       :     3.315350  s :     3.315350
      pz      :     0.916290  p :     2.921768
      px      :     0.854149
      py      :     1.151330
      dz2     :     0.003552  d :     0.041764
      dxz     :     0.014497
      dyz     :     0.008679
      dx2y2   :     0.009791
      dxy     :     0.005245

  3 N s       :     3.271596  s :     3.271596
      pz      :     1.012029  p :     2.948600
      px      :     1.052781
      py      :     0.883790
      dz2     :     0.068391  d :     0.523907
      dxz     :     0.066877
      dyz     :     0.138717
      dx2y2   :     0.133232
      dxy     :     0.116690

  4 O s       :     3.852568  s :     3.852568
      pz      :     1.620301  p :     4.355020
      px      :     1.522193
      py      :     1.212526
      dz2     :     0.002739  d :     0.040486
      dxz     :     0.002917
      dyz     :     0.011433
      dx2y2   :     0.009333
      dxy     :     0.014065

  5 O s       :     3.855922  s :     3.855922
      pz      :     1.387777  p :     4.352021
      px      :     1.591999
      py      :     1.372245
      dz2     :     0.008579  d :     0.038485
      dxz     :     0.006095
      dyz     :     0.010074
      dx2y2   :     0.003207
      dxy     :     0.010530

  6 H s       :     0.817232  s :     0.817232
      pz      :     0.006331  p :     0.018227
      px      :     0.003888
      py      :     0.008008

  7 H s       :     0.813957  s :     0.813957
      pz      :     0.005505  p :     0.018365
      px      :     0.008969
      py      :     0.003891

  8 H s       :     0.816660  s :     0.816660
      pz      :     0.007049  p :     0.018268
      px      :     0.006867
      py      :     0.004353

  9 H s       :     0.805675  s :     0.805675
      pz      :     0.006526  p :     0.018090
      px      :     0.007327
      py      :     0.004237

 10 H s       :     0.813603  s :     0.813603
      pz      :     0.006565  p :     0.018083
      px      :     0.003575
      py      :     0.007943

 11 H s       :     0.767191  s :     0.767191
      pz      :     0.006015  p :     0.018095
      px      :     0.003253
      py      :     0.008826

 12 H s       :     0.771958  s :     0.771958
      pz      :     0.005888  p :     0.017832
      px      :     0.002838
      py      :     0.009106


------------------------
MULLIKEN OVERLAP CHARGES
------------------------
B(  0-C ,  1-C ) :   0.4876 B(  0-C ,  2-C ) :  -0.2076 B(  0-C ,  6-H ) :   0.8329 
B(  0-C ,  7-H ) :   0.7937 B(  0-C ,  8-H ) :   0.8575 B(  0-C , 10-H ) :  -0.0701 
B(  1-C ,  2-C ) :   0.4719 B(  1-C ,  3-N ) :  -0.0603 B(  1-C ,  6-H ) :  -0.0851 
B(  1-C ,  7-H ) :  -0.0719 B(  1-C ,  8-H ) :  -0.0878 B(  1-C ,  9-H ) :   0.8266 
B(  1-C , 10-H ) :   0.8535 B(  1-C , 12-H ) :  -0.0562 B(  2-C ,  3-N ) :   0.3694 
B(  2-C ,  9-H ) :  -0.0977 B(  2-C , 10-H ) :  -0.0632 B(  2-C , 11-H ) :   0.7591 
B(  2-C , 12-H ) :   0.8524 B(  3-N ,  4-O ) :   0.9383 B(  3-N ,  5-O ) :   0.9557 
B(  3-N , 12-H ) :  -0.0956 B(  4-O ,  5-O ) :  -0.1102 


                     *******************************
                     * LOEWDIN POPULATION ANALYSIS *
                     *******************************

----------------------
LOEWDIN ATOMIC CHARGES
----------------------
   0 C :   -0.419596
   1 C :   -0.257524
   2 C :    0.039164
   3 N :   -0.540417
   4 O :   -0.035996
   5 O :   -0.041506
   6 H :    0.159276
   7 H :    0.159968
   8 H :    0.158231
   9 H :    0.171904
  10 H :    0.173832
  11 H :    0.221496
  12 H :    0.211167

-------------------------------
LOEWDIN REDUCED ORBITAL CHARGES
-------------------------------
  0 C s       :     2.971477  s :     2.971477
      pz      :     1.137983  p :     3.385943
      px      :     1.144579
      py      :     1.103381
      dz2     :     0.003197  d :     0.062177
      dxz     :     0.017444
      dyz     :     0.019334
      dx2y2   :     0.013287
      dxy     :     0.008915

  1 C s       :     2.934783  s :     2.934783
      pz      :     1.107266  p :     3.245537
      px      :     1.033830
      py      :     1.104441
      dz2     :     0.004765  d :     0.077204
      dxz     :     0.022354
      dyz     :     0.021901
      dx2y2   :     0.016187
      dxy     :     0.011997

  2 C s       :     2.855264  s :     2.855264
      pz      :     0.978310  p :     3.014716
      px      :     0.931164
      py      :     1.105243
      dz2     :     0.005932  d :     0.090856
      dxz     :     0.031027
      dyz     :     0.021813
      dx2y2   :     0.022263
      dxy     :     0.009822

  3 N s       :     2.958257  s :     2.958257
      pz      :     1.086497  p :     3.302255
      px      :     1.098261
      py      :     1.117497
      dz2     :     0.195971  d :     1.279905
      dxz     :     0.176923
      dyz     :     0.308309
      dx2y2   :     0.307557
      dxy     :     0.291145

  4 O s       :     3.462459  s :     3.462459
      pz      :     1.528676  p :     4.324343
      px      :     1.467547
      py      :     1.328121
      dz2     :     0.025104  d :     0.249194
      dxz     :     0.022214
      dyz     :     0.059379
      dx2y2   :     0.067722
      dxy     :     0.074774

  5 O s       :     3.458172  s :     3.458172
      pz      :     1.378857  p :     4.327539
      px      :     1.513959
      py      :     1.434722
      dz2     :     0.050350  d :     0.255796
      dxz     :     0.040161
      dyz     :     0.065961
      dx2y2   :     0.051246
      dxy     :     0.048077

  6 H s       :     0.796777  s :     0.796777
      pz      :     0.015511  p :     0.043946
      px      :     0.008824
      py      :     0.019611

  7 H s       :     0.795900  s :     0.795900
      pz      :     0.012998  p :     0.044132
      px      :     0.022180
      py      :     0.008953

  8 H s       :     0.797732  s :     0.797732
      pz      :     0.017134  p :     0.044036
      px      :     0.017043
      py      :     0.009859

  9 H s       :     0.783792  s :     0.783792
      pz      :     0.016292  p :     0.044304
      px      :     0.017948
      py      :     0.010064

 10 H s       :     0.782190  s :     0.782190
      pz      :     0.016385  p :     0.043977
      px      :     0.007930
      py      :     0.019662

 11 H s       :     0.736183  s :     0.736183
      pz      :     0.012962  p :     0.042321
      px      :     0.008075
      py      :     0.021284

 12 H s       :     0.747047  s :     0.747047
      pz      :     0.013007  p :     0.041786
      px      :     0.006044
      py      :     0.022735


---------------------------------
LOEWDIN BOND ORDERS (THRESH 0.050000)
---------------------------------
B(  0-C ,  1-C ) :   1.1421 B(  0-C ,  2-C ) :   0.0670 B(  0-C ,  6-H ) :   0.9262 
B(  0-C ,  7-H ) :   0.9248 B(  0-C ,  8-H ) :   0.9212 B(  1-C ,  2-C ) :   1.0124 
B(  1-C ,  3-N ) :   0.1473 B(  1-C ,  5-O ) :   0.0505 B(  1-C ,  9-H ) :   0.8801 
B(  1-C , 10-H ) :   0.8793 B(  2-C ,  3-N ) :   1.1368 B(  2-C ,  4-O ) :   0.1844 
B(  2-C ,  5-O ) :   0.1816 B(  2-C , 11-H ) :   0.7932 B(  2-C , 12-H ) :   0.8093 
B(  3-N ,  4-O ) :   2.6481 B(  3-N ,  5-O ) :   2.6434 B(  3-N , 11-H ) :   0.0951 
B(  3-N , 12-H ) :   0.0809 B(  4-O ,  5-O ) :   0.5880 

------------------------------------------
LOEWDIN REDUCED ORBITAL POPULATIONS PER MO
-------------------------------------------
THRESHOLD FOR PRINTING IS 0.1%%
                      0         1         2         3         4         5   
                 -18.99663 -18.99545 -14.39798 -10.08013 -10.03961 -10.01586
                   2.00000   2.00000   2.00000   2.00000   2.00000   2.00000
                  --------  --------  --------  --------  --------  --------
 0 C  s               0.0       0.0       0.0       0.0       0.0      99.7
 1 C  s               0.0       0.0       0.0       0.0      99.7       0.0
 2 C  s               0.0       0.0       0.0      99.4       0.0       0.0
 3 N  s               0.0       0.0      99.4       0.0       0.0       0.0
 3 N  dxz             0.0       0.0       0.0       0.2       0.0       0.0
 4 O  s              99.8       0.0       0.0       0.0       0.0       0.0
 5 O  s               0.0      99.8       0.0       0.0       0.0       0.0
 5 O  dyz             0.0       0.0       0.1       0.0       0.0       0.0

                      6         7         8         9        10        11   
                  -1.21611  -1.03836  -0.80685  -0.71274  -0.61054  -0.55914
                   2.00000   2.00000   2.00000   2.00000   2.00000   2.00000
                  --------  --------  --------  --------  --------  --------
 0 C  s               0.0       0.0       3.8      24.3      14.8       4.2
 0 C  pz              0.0       0.0       0.6       0.4       1.2       0.6
 0 C  px              0.1       0.0       0.5       0.1       0.4       0.2
 0 C  py              0.0       0.0       0.8       1.1       1.9       3.3
 1 C  s               0.2       0.0      12.7      17.8       5.8       6.6
 1 C  pz              0.0       0.0       0.3       1.3       4.7       0.0
 1 C  px              0.5       0.0       1.9       1.9       1.8       0.3
 1 C  py              0.0       0.0       0.5       1.4       3.9       3.2
 2 C  s               2.0       0.0      24.0       1.3       5.3       3.4
 2 C  pz              1.5       0.1       1.5       0.6       1.3       3.3
 2 C  px              2.2       0.0       0.4       7.9       5.7       2.6
 2 C  py              0.1       0.7       0.0       0.1       1.4       0.6
 2 C  dxz             0.1       0.0       0.0       0.4       0.3       0.0
 3 N  s              32.5       0.0       2.9       2.9       4.9       3.6
 3 N  pz              1.3       4.5       8.0       4.7       0.5       5.8
 3 N  px              1.8       0.3      13.1       3.2       0.6       0.4
 3 N  py              0.1      31.0       0.5       0.4       0.0       0.4
 3 N  dz2             0.2       0.7       0.0       0.3       0.1       0.0
 3 N  dxz             0.2       0.2       0.8       0.1       0.6       0.5
 3 N  dyz             0.7       1.3       0.5       0.2       0.2       0.9
 3 N  dx2y2           0.9       0.0       1.7       0.1       0.1       1.3
 3 N  dxy             0.2       2.3       0.0       0.0       0.6       0.0
 4 O  s              17.8      25.6       2.8       2.3       5.7       5.9
 4 O  pz              0.1       0.2       0.7       0.5       0.1       2.1
 4 O  px              1.0       0.9       1.1       0.7       1.5       1.3
 4 O  py              6.2       1.9       0.2       0.4       3.4       7.3
 4 O  dz2             0.6       0.1       0.1       0.1       0.1       0.1
 4 O  dxz             0.0       0.0       0.1       0.1       0.0       0.1
 4 O  dyz             0.1       0.3       0.5       0.2       0.0       0.2
 4 O  dx2y2           1.0       0.4       0.1       0.0       0.0       0.1
 4 O  dxy             0.8       0.1       0.8       0.4       0.3       0.1
 5 O  s              17.9      25.3       3.3       1.9       4.4       9.1
 5 O  pz              2.4       1.3       0.7       1.0       1.8       1.5
 5 O  px              0.3       0.6       1.1       0.4       0.5       1.1
 5 O  py              4.7       1.2       0.2       0.0       1.8      11.1
 5 O  dz2             0.0       0.1       0.2       0.2       0.0       0.2
 5 O  dxz             0.1       0.1       0.7       0.2       0.0       0.0
 5 O  dyz             1.5       0.2       0.2       0.2       0.2       0.1
 5 O  dx2y2           0.8       0.4       0.3       0.0       0.0       0.1
 5 O  dxy             0.1       0.1       0.4       0.1       0.1       0.1
 6 H  s               0.0       0.0       0.4       4.0       4.3       2.2
 6 H  pz              0.0       0.0       0.0       0.1       0.2       0.1
 6 H  py              0.0       0.0       0.0       0.2       0.2       0.1
 7 H  s               0.0       0.0       0.4       4.2       4.7       1.6
 7 H  px              0.0       0.0       0.0       0.3       0.3       0.1
 8 H  s               0.0       0.0       0.5       3.9       4.7       1.9
 8 H  pz              0.0       0.0       0.0       0.2       0.2       0.1
 8 H  px              0.0       0.0       0.0       0.2       0.2       0.1
 9 H  s               0.0       0.0       1.4       3.3       2.5       2.8
 9 H  pz              0.0       0.0       0.0       0.1       0.0       0.1
 9 H  px              0.0       0.0       0.1       0.1       0.2       0.1
10 H  s               0.0       0.0       1.5       2.8       1.8       3.3
10 H  pz              0.0       0.0       0.1       0.1       0.1       0.1
10 H  py              0.0       0.0       0.1       0.2       0.0       0.1
11 H  s               0.1       0.0       3.3       0.3       2.3       2.0
11 H  pz              0.0       0.0       0.1       0.0       0.0       0.0
11 H  py              0.0       0.0       0.2       0.0       0.1       0.1
12 H  s               0.1       0.0       3.2       0.2       1.4       2.9
12 H  pz              0.0       0.0       0.1       0.0       0.0       0.0
12 H  py              0.0       0.0       0.2       0.0       0.1       0.1

                     12        13        14        15        16        17   
                  -0.52818  -0.50648  -0.49416  -0.42424  -0.40516  -0.38117
                   2.00000   2.00000   2.00000   2.00000   2.00000   2.00000
                  --------  --------  --------  --------  --------  --------
 0 C  s               0.2       0.0       0.3       0.4       0.1       0.1
 0 C  pz              0.1       0.3       0.0      14.8       0.8       9.3
 0 C  px              1.0       0.0       0.0       0.1      25.2       0.1
 0 C  py              0.0       0.5       3.0       0.2       0.1      17.1
 1 C  s               0.2       0.3       2.1       0.5       0.2       0.0
 1 C  pz              1.0       2.0       3.0       3.8       4.6      11.8
 1 C  px              1.7       0.1       1.7       4.1      18.9       1.9
 1 C  py              0.2       1.6       2.4       9.2       2.9       0.4
 1 C  dxz             0.0       0.0       0.1       0.0       0.1       0.0
 2 C  s               0.3       1.6       3.3       0.4       0.1       0.2
 2 C  pz              7.2       4.3       5.1       1.0       3.6       6.6
 2 C  px              0.1       2.6       2.9       1.4       3.3       1.1
 2 C  py              1.9       3.3       0.3      22.7       0.9      13.4
 2 C  dz2             0.2       0.0       0.0       0.0       0.0       0.0
 2 C  dxz             0.0       0.1       0.1       0.0       0.2       0.0
 2 C  dyz             0.0       0.0       0.0       0.2       0.1       0.2
 2 C  dx2y2           0.0       0.1       0.2       0.1       0.0       0.2
 2 C  dxy             0.0       0.0       0.1       0.0       0.0       0.0
 3 N  s               0.2       0.1       0.1       0.1       0.2       0.0
 3 N  pz              9.1       1.9      14.8       0.8       0.4       0.4
 3 N  px             28.1       1.1       0.3       0.1       2.8       0.1
 3 N  py              3.0      13.5       2.7       2.0       0.1       0.6
 3 N  dz2             0.1       1.7       0.0       0.2       0.7       0.8
 3 N  dxz             0.1       1.2       0.4       0.0       0.0       0.2
 3 N  dyz             0.4       0.5       2.2       1.2       0.0       0.4
 3 N  dx2y2           0.5       0.7       0.3       0.0       1.8       0.0
 3 N  dxy             0.0       3.0       0.7       0.8       0.0       0.4
 4 O  s               1.1       9.9       1.2       0.3       0.0       0.1
 4 O  pz              2.9       0.8       6.6       2.3       0.4       0.1
 4 O  px              5.6       7.4       1.6       0.4       3.0       0.1
 4 O  py              7.9      17.3       2.9       2.0       1.1       1.0
 4 O  dxz             0.1       0.0       0.1       0.1       0.0       0.1
 4 O  dyz             0.4       0.1       0.4       0.0       0.0       0.0
 4 O  dx2y2           1.1       0.1       0.0       0.0       0.0       0.0
 4 O  dxy             0.5       0.2       0.0       0.0       0.1       0.0
 5 O  s               1.3       2.8       6.2       0.1       0.0       0.2
 5 O  pz              9.5      10.1       1.9       2.4       0.7       0.0
 5 O  px              7.2       2.9       1.8       0.1       2.5       0.0
 5 O  py              0.4       0.1      17.9       0.2       0.0       2.9
 5 O  dz2             0.9       0.2       0.2       0.0       0.0       0.0
 5 O  dxz             0.2       0.1       0.0       0.1       0.0       0.1
 5 O  dyz             0.3       0.1       0.2       0.0       0.0       0.0
 5 O  dx2y2           0.0       0.1       0.1       0.0       0.1       0.0
 5 O  dxy             0.8       0.0       0.1       0.0       0.1       0.0
 6 H  s               0.1       0.2       0.9       0.7       0.7      10.9
 6 H  pz              0.0       0.0       0.0       0.0       0.0       0.1
 6 H  px              0.0       0.0       0.0       0.0       0.1       0.0
 6 H  py              0.0       0.0       0.0       0.1       0.0       0.1
 7 H  s               0.2       0.0       0.0       2.3       6.2       2.6
 7 H  pz              0.0       0.0       0.0       0.0       0.2       0.0
 7 H  px              0.0       0.0       0.0       0.1       0.0       0.1
 8 H  s               0.1       0.0       0.5       3.4       5.2       0.1
 8 H  pz              0.0       0.0       0.0       0.0       0.2       0.0
 8 H  px              0.0       0.0       0.0       0.1       0.0       0.0
 8 H  py              0.0       0.0       0.0       0.0       0.1       0.1
 9 H  s               0.8       0.0       1.0       1.9       9.1       0.4
 9 H  pz              0.0       0.0       0.1       0.0       0.2       0.0
 9 H  py              0.0       0.0       0.0       0.1       0.0       0.0
10 H  s               0.0       1.4       3.4       3.5       0.4       2.6
11 H  s               2.6       0.2       3.0      11.5       1.7       0.4
11 H  pz              0.0       0.0       0.0       0.2       0.0       0.1
11 H  py              0.1       0.0       0.1       0.1       0.0       0.0
12 H  s               0.2       5.0       2.9       3.1       0.0      11.3
12 H  pz              0.0       0.1       0.0       0.2       0.0       0.1
12 H  py              0.0       0.2       0.2       0.0       0.0       0.2

                     18        19        20        21        22        23   
                  -0.32923  -0.32126  -0.31532  -0.30377  -0.28645  -0.26932
                   2.00000   2.00000   2.00000   2.00000   2.00000   2.00000
                  --------  --------  --------  --------  --------  --------
 0 C  s               0.4       0.3       0.0       0.1       0.1       0.0
 0 C  pz              6.4       7.6      13.5       1.1       0.1       0.2
 0 C  px              8.8      18.2       0.4       1.9       0.2       0.1
 0 C  py             15.1       3.3       5.8       1.5       1.2       0.2
 0 C  dxz             0.5       0.2       0.0       0.0       0.0       0.0
 0 C  dyz             0.0       0.2       0.3       0.1       0.0       0.0
 0 C  dx2y2           0.0       0.2       0.3       0.0       0.0       0.0
 0 C  dxy             0.1       0.0       0.1       0.0       0.0       0.0
 1 C  s               0.3       0.1       0.1       0.0       0.0       0.1
 1 C  pz              4.0       4.4      11.5       2.6       0.2       0.0
 1 C  px              2.0      10.2       0.6       1.4       1.5       1.2
 1 C  py             14.5       5.2       5.1       2.9       1.6       0.2
 1 C  dxz             0.4       0.1       0.0       0.0       0.1       0.1
 1 C  dyz             0.0       0.3       0.4       0.2       0.0       0.0
 1 C  dx2y2           0.0       0.2       0.3       0.0       0.0       0.0
 1 C  dxy             0.2       0.1       0.1       0.0       0.0       0.0
 2 C  s               0.6       0.4       0.1       0.0       0.2       0.0
 2 C  pz              1.9       5.8       2.0       0.0       2.8       0.2
 2 C  px              0.2       8.5       1.7       0.0       5.5       0.3
 2 C  py              1.7       2.7       0.8       0.9       0.5       3.2
 2 C  dxz             0.1       0.0       0.0       0.0       0.1       0.1
 2 C  dyz             0.1       0.3       0.1       0.1       0.0       0.1
 2 C  dx2y2           0.0       0.0       0.2       0.0       0.1       0.0
 2 C  dxy             0.1       0.1       0.0       0.0       0.0       0.0
 3 N  s               0.0       0.0       0.0       0.0       0.7       0.0
 3 N  pz              0.0       0.0       0.1       0.0       1.6       0.3
 3 N  px              0.0       0.0       0.1       0.0       2.5       0.1
 3 N  py              0.3       0.0       0.0       0.0       0.3       0.6
 3 N  dz2             0.0       0.4       1.1       1.8       1.2       0.3
 3 N  dxz             0.4       0.0       0.1       1.3       2.6       0.0
 3 N  dyz             0.5       1.3       0.9       1.9       1.1       1.2
 3 N  dx2y2           0.9       1.1       0.1       0.8       4.7       0.0
 3 N  dxy             0.7       0.2       0.9       3.1       0.1       1.6
 4 O  s               0.0       0.0       0.0       0.0       0.6       0.1
 4 O  pz              2.8       3.0       2.8      16.4       7.8      26.9
 4 O  px              3.6       2.9       2.5      11.6      12.3      15.8
 4 O  py              1.0       0.7       0.5       3.4       0.7       8.3
 4 O  dxz             0.0       0.0       0.0       0.1       0.1       0.1
 4 O  dyz             0.0       0.0       0.0       0.1       0.0       0.5
 4 O  dx2y2           0.0       0.0       0.0       0.1       0.0       0.3
 4 O  dxy             0.0       0.0       0.0       0.1       0.1       0.2
 5 O  s               0.1       0.0       0.0       0.0       0.3       0.2
 5 O  pz              1.2       0.0       4.1      15.5      13.3       1.6
 5 O  px              0.6       0.0       4.5      16.8      22.8      12.4
 5 O  py              0.1       0.1       2.1       2.5       8.2      18.3
 5 O  dz2             0.0       0.0       0.0       0.2       0.1       0.2
 5 O  dxz             0.1       0.0       0.0       0.0       0.2       0.1
 5 O  dx2y2           0.0       0.0       0.1       0.0       0.0       0.4
 5 O  dxy             0.0       0.0       0.2       0.0       0.0       0.2
 6 H  s               0.3       0.0      12.6       2.3       0.1       0.0
 6 H  px              0.1       0.1       0.0       0.0       0.0       0.0
 7 H  s               3.3      11.5       2.2       0.1       0.2       0.1
 7 H  pz              0.2       0.0       0.0       0.0       0.0       0.0
 7 H  px              0.0       0.1       0.1       0.0       0.0       0.0
 7 H  py              0.1       0.2       0.0       0.0       0.0       0.0
 8 H  s              13.4       0.5       3.5       1.5       0.6       0.3
 8 H  pz              0.1       0.1       0.0       0.0       0.0       0.0
 8 H  py              0.0       0.0       0.1       0.0       0.0       0.0
 9 H  s               8.4       0.2       3.0       1.5       2.2       0.7
 9 H  px              0.1       0.1       0.1       0.0       0.0       0.0
10 H  s               1.3       0.5      12.2       4.3       0.0       0.1
10 H  pz              0.1       0.1       0.0       0.0       0.0       0.0
11 H  s               0.6       6.9       0.1       0.3       0.5       1.0
12 H  s               1.4       0.6       1.9       0.8       0.4       1.9

                     24        25        26        27        28        29   
                  -0.10976   0.09328   0.10588   0.12619   0.13128   0.14465
                   0.00000   0.00000   0.00000   0.00000   0.00000   0.00000
                  --------  --------  --------  --------  --------  --------
 0 C  s               0.0      14.7       0.3       2.2      21.6       0.1
 0 C  pz              0.1       0.9       0.7       0.8       9.0       4.6
 0 C  px              0.0       0.3       0.2       1.9       5.6       0.9
 0 C  py              0.0       1.1       1.7       3.4       7.8       2.4
 0 C  dxz             0.0       0.0       0.2       0.0       0.1       0.3
 0 C  dyz             0.0       0.2       0.1       0.6       0.4       0.2
 0 C  dx2y2           0.0       0.4       0.1       0.0       0.4       0.1
 0 C  dxy             0.0       0.1       0.1       0.4       0.2       0.2
 1 C  s               0.4       8.8       0.6      13.3       3.0       0.5
 1 C  pz              0.6       0.1       0.1       0.9       5.7       4.8
 1 C  px              1.3       1.0       0.5      10.3       3.2       1.6
 1 C  py              0.3       1.2       0.9       4.7      10.7       6.6
 1 C  dz2             0.0       0.0       1.0       0.0       0.1       0.1
 1 C  dxz             0.0       0.3       0.1       0.5       0.0       0.2
 1 C  dyz             0.0       0.1       0.2       0.0       1.0       0.8
 1 C  dx2y2           0.0       0.0       0.2       0.1       0.7       0.6
 1 C  dxy             0.0       0.0       0.2       0.1       0.1       0.1
 2 C  s               0.1      12.3       1.0       3.8       4.5       1.3
 2 C  pz              0.3       2.0      17.3       6.2       1.8       8.1
 2 C  px              0.1       0.9      20.8      16.5       0.1       2.0
 2 C  py              0.2       0.1       0.8       1.0       2.2      15.8
 2 C  dz2             0.4       0.0       0.1       0.1       0.0       0.3
 2 C  dxz             0.1       0.0       3.2       0.8       0.1       0.1
 2 C  dyz             0.2       0.1       0.2       0.0       0.0       2.4
 2 C  dx2y2           0.5       0.1       1.6       0.6       0.2       0.0
 2 C  dxy             0.0       0.2       0.2       0.3       0.1       0.0
 3 N  s               0.0       5.5       9.1       1.7       0.3       0.1
 3 N  pz             16.6       1.9       4.4       0.8       0.2       0.3
 3 N  px             14.7       1.4       4.1       2.2       0.1       0.2
 3 N  py              3.8       0.1       0.2       0.5       0.1       2.0
 3 N  dz2             2.0       0.0       0.0       2.3       0.2       0.2
 3 N  dxz             0.0       6.1       1.7       4.3       0.0       0.1
 3 N  dyz             0.3       1.3       0.1       0.1       0.2       0.2
 3 N  dx2y2           0.9       0.3       0.0       0.3       0.1       0.1
 3 N  dxy             0.1       1.3       0.2       0.4       0.3       3.3
 4 O  s               0.0       2.4       0.1       1.5       0.0       0.5
 4 O  pz             11.1       0.1       0.6       0.2       0.3       0.3
 4 O  px             10.1       0.0       0.8       1.2       0.0       0.6
 4 O  py              2.6       1.0       1.9       1.0       0.1       1.1
 4 O  dz2             0.0       0.0       0.6       1.3       0.0       0.5
 4 O  dxz             0.4       0.4       0.3       0.3       0.3       0.2
 4 O  dyz             1.6       0.0       0.2       0.1       0.0       0.5
 4 O  dx2y2           1.7       0.2       0.8       0.0       0.0       0.1
 4 O  dxy             0.6       1.3       2.1       0.1       0.0       0.2
 5 O  s               0.0       3.2       0.4       0.5       0.0       0.0
 5 O  pz             10.5       1.1       1.0       0.1       0.3       0.2
 5 O  px              9.6       0.0       0.9       0.3       0.0       0.5
 5 O  py              2.4       0.8       0.8       0.5       0.2       0.1
 5 O  dz2             2.4       0.0       0.0       0.1       0.0       0.0
 5 O  dxz             0.2       0.9       0.2       0.7       0.2       0.8
 5 O  dyz             0.3       0.7       1.8       0.1       0.0       0.0
 5 O  dx2y2           0.0       0.1       0.0       0.0       0.2       0.6
 5 O  dxy             1.2       0.0       0.7       0.1       0.3       0.3
 6 H  s               0.0       1.5       0.8       2.0       1.7       2.8
 6 H  pz              0.0       0.8       0.0       0.6       0.2       0.5
 6 H  px              0.0       0.0       0.1       0.1       0.4       0.2
 6 H  py              0.0       0.1       0.0       0.2       1.1       0.4
 7 H  s               0.0       2.9       1.5       0.6       1.3       1.3
 7 H  pz              0.0       0.1       0.0       0.0       0.2       0.0
 7 H  px              0.0       0.7       0.2       0.1       0.6       0.2
 7 H  py              0.0       0.3       0.0       0.9       0.0       0.0
 8 H  s               0.0       2.5       0.0       0.1       3.3       0.0
 8 H  pz              0.0       0.3       0.1       0.0       1.7       0.0
 8 H  px              0.0       1.2       0.0       0.0       0.4       0.1
 8 H  py              0.0       0.0       0.1       0.0       0.5       0.3
 9 H  s               0.1       1.7       1.4       0.4       0.1       1.7
 9 H  pz              0.0       0.6       0.2       0.0       0.4       0.2
 9 H  px              0.0       0.4       0.3       0.9       0.1       0.1
 9 H  py              0.0       0.0       0.1       0.3       0.7       0.0
10 H  s               0.0       2.0       2.5       0.4       0.1       3.2
10 H  pz              0.0       0.5       0.5       0.4       0.3       0.3
10 H  px              0.0       0.3       0.0       0.3       0.1       0.1
10 H  py              0.0       0.3       0.0       0.6       0.6       1.3
11 H  s               1.8       3.5       1.2       0.3       1.1       3.7
11 H  pz              0.0       0.2       0.3       0.7       0.1       0.4
11 H  px              0.0       0.1       1.3       0.5       0.0       0.0
11 H  py              0.0       1.0       0.4       0.0       0.9       0.3
12 H  s               0.0       2.8       1.2       0.2       1.5      10.8
12 H  pz              0.0       0.1       0.3       0.3       0.1       2.8
12 H  px              0.0       0.2       0.8       0.7       0.0       0.0
12 H  py              0.0       0.8       1.1       0.0       0.5       1.9

                     30        31        32        33        34        35   
                   0.15754   0.17091   0.19507   0.19753   0.20986   0.21714
                   0.00000   0.00000   0.00000   0.00000   0.00000   0.00000
                  --------  --------  --------  --------  --------  --------
 0 C  s               0.8       0.3       0.1       0.1       0.1       4.3
 0 C  pz              2.4       0.7       1.6      14.6       9.0       2.0
 0 C  px             11.1       5.4      10.1       2.2      10.4       0.4
 0 C  py              2.8      18.4       7.1       0.8       7.7       6.8
 0 C  dz2             0.1       0.3       0.1       0.6       0.0       0.2
 0 C  dxz             1.0       0.8       1.0       1.3       0.0       0.1
 0 C  dyz             0.0       0.0       0.9       0.0       3.3       0.7
 0 C  dx2y2           0.0       0.5       0.6       0.2       1.6       0.5
 0 C  dxy             0.7       0.1       0.1       0.0       0.4       0.1
 1 C  s               0.7       4.9       0.3       0.4       0.3       1.0
 1 C  pz              5.8       1.2       3.1       8.6       2.9       6.6
 1 C  px              6.0       4.0       3.7       6.4       0.1      12.5
 1 C  py              3.1       3.2       2.2       3.6       1.6       5.7
 1 C  dz2             0.1       0.0       0.0       0.0       0.6       0.1
 1 C  dxz             1.4       1.4       0.0       0.0       0.0       0.3
 1 C  dyz             0.0       0.1       0.4       0.5       0.1       0.4
 1 C  dx2y2           0.0       0.0       0.2       0.9       0.6       1.0
 1 C  dxy             1.0       0.2       0.2       0.2       0.6       0.8
 2 C  s               1.3       2.1       0.5       2.8       1.1       2.8
 2 C  pz             10.8       0.8       4.5       0.7       0.7       1.3
 2 C  px              1.1       5.6       1.3       1.3       1.2       7.1
 2 C  py              5.8       0.7      17.7       2.1       1.4       1.3
 2 C  dz2             0.3       0.0       0.0       0.2       0.0       0.3
 2 C  dxz             0.4       0.4       0.3       0.0       0.2       0.1
 2 C  dyz             1.0       0.3       0.0       0.1       0.3       0.1
 2 C  dx2y2           0.1       0.1       0.6       0.0       0.0       0.0
 2 C  dxy             0.0       0.0       0.3       0.3       0.0       0.6
 3 N  s               1.3       1.9       0.7       2.4       0.9       2.1
 3 N  pz              1.2       0.7       0.7       1.5       0.4       1.8
 3 N  px              1.9       0.2       0.0       1.5       1.9       1.0
 3 N  py              0.1       1.7       1.7       3.1       0.5       3.4
 3 N  dz2             0.1       0.8       1.1       0.0       0.2       0.4
 3 N  dxz             0.0       0.2       0.6       0.7       0.0       0.4
 3 N  dyz             0.9       0.0       0.1       0.1       0.0       1.4
 3 N  dx2y2           0.3       0.1       0.6       1.8       0.2       0.7
 3 N  dxy             0.1       1.1       0.4       1.0       0.2       0.3
 4 O  s               1.0       1.0       1.2       1.2       0.2       0.0
 4 O  pz              0.6       0.1       0.3       1.0       0.0       0.3
 4 O  px              0.1       1.0       0.5       0.1       0.7       1.2
 4 O  py              0.7       2.0       1.2       1.6       0.1       0.5
 4 O  dz2             0.2       1.2       0.1       0.1       0.0       0.0
 4 O  dxz             0.2       0.0       0.3       0.9       0.0       0.2
 4 O  dyz             0.1       0.1       0.0       0.8       0.0       0.4
 4 O  dx2y2           0.2       0.1       0.0       0.1       0.0       0.9
 4 O  dxy             1.0       0.4       0.1       0.0       0.0       0.1
 5 O  s               1.8       0.2       0.1       0.2       0.1       3.5
 5 O  pz              0.4       1.6       0.0       0.1       0.5       2.5
 5 O  px              0.5       1.0       0.2       0.7       0.6       0.9
 5 O  py              0.7       0.9       2.5       1.7       0.0       3.6
 5 O  dz2             0.0       0.4       0.0       0.0       0.1       0.1
 5 O  dxz             0.0       0.7       0.0       0.1       1.7       0.1
 5 O  dyz             0.5       0.3       1.0       0.0       0.3       0.8
 5 O  dx2y2           0.0       1.3       0.1       0.0       0.1       0.1
 5 O  dxy             0.0       0.2       0.6       0.4       0.1       0.2
 6 H  s               0.2       0.9       0.3       0.4      20.0       2.7
 6 H  pz              0.0       0.0       0.0       0.0       0.7       1.6
 6 H  px              0.0       0.5       0.6       0.6       0.0       0.0
 6 H  py              0.4       1.3       0.0       0.0       2.2       0.0
 7 H  s               1.5       1.8      11.5       1.1       3.1       1.9
 7 H  pz              0.8       0.2       0.9       1.9       0.2       0.2
 7 H  px              0.4       0.0       2.0       0.0       2.6       0.3
 7 H  py              0.1       0.1       0.5       0.0       0.2       0.2
 8 H  s               5.1       2.9       2.3       5.8       6.9       2.3
 8 H  pz              0.5       0.3       1.0       0.0       0.0       0.5
 8 H  px              0.7       0.1       0.0       1.1       0.6       1.1
 8 H  py              0.0       0.3       0.2       0.1       1.6       0.2
 9 H  s               6.7       4.8       0.1       3.2       2.4       0.8
 9 H  pz              1.3       1.4       0.0       0.1       0.1       0.2
 9 H  px              0.7       0.8       0.0       1.3       0.0       1.5
 9 H  py              0.2       0.1       0.5       0.5       0.1       0.0
10 H  s               0.0       4.1       1.3       7.1       1.6       0.6
10 H  pz              0.1       1.0       0.2       0.8       0.2       0.5
10 H  px              0.0       1.2       0.1       0.0       0.0       0.4
10 H  py              0.2       0.4       0.0       1.4       0.6       0.0
11 H  s               3.4       3.9       3.5       0.0       0.7       0.3
11 H  pz              1.8       0.2       0.1       0.1       0.0       0.1
11 H  px              0.1       0.2       0.1       0.3       0.1       0.0
11 H  py              0.2       0.9       2.6       0.1       0.0       0.1
12 H  s               3.2       0.8       1.1       3.5       2.0       0.6
12 H  pz              0.0       0.0       0.0       0.2       0.8       0.1
12 H  px              0.0       0.4       0.2       0.1       0.0       0.2
12 H  py              0.3       0.5       0.1       1.1       0.2       0.0

                     36        37        38        39        40        41   
                   0.22693   0.23484   0.24457   0.25663   0.26105   0.28760
                   0.00000   0.00000   0.00000   0.00000   0.00000   0.00000
                  --------  --------  --------  --------  --------  --------
 0 C  s               0.4       1.5       1.4       0.1       0.2       0.2
 0 C  pz              2.1      23.1       3.2      16.2       6.6       4.2
 0 C  px              6.5       5.9      15.9       7.8       6.0       2.0
 0 C  py             12.5       4.8       5.8       6.7       0.8       3.9
 0 C  dz2             0.1       0.0       0.1       0.0       0.0       0.6
 0 C  dxz             0.3       0.0       1.7       0.1       0.1       0.1
 0 C  dyz             0.0       0.0       0.1       0.1       0.0       0.1
 0 C  dx2y2           0.0       0.4       0.1       0.1       0.0       0.2
 0 C  dxy             0.6       0.2       0.0       0.0       0.0       0.0
 1 C  s               0.3       2.1       1.3       0.9       0.1       0.4
 1 C  pz              2.0       1.2       4.9       2.2       0.1      11.6
 1 C  px              8.0       1.1       0.3       0.0       0.4       3.0
 1 C  py              1.8      23.2      10.3       3.8       0.1       4.0
 1 C  dz2             0.2       0.0       0.0       0.1       0.1       0.0
 1 C  dxz             0.5       0.1       1.5       0.2       0.1       0.1
 1 C  dyz             0.9       1.0       0.2       0.8       0.1       0.5
 1 C  dx2y2           0.2       0.0       0.0       0.0       0.1       0.0
 1 C  dxy             0.1       0.0       0.1       0.0       0.0       0.2
 2 C  s               1.0       0.7       0.2       0.4       1.1       0.2
 2 C  pz             23.8       1.9       1.8       1.1       0.3       3.7
 2 C  px              2.9       0.4       7.2       2.1       0.3       0.3
 2 C  py              1.1       0.7       0.9       9.8       0.1       1.8
 2 C  dz2             0.1       0.1       0.1       0.0       0.0       0.3
 2 C  dxz             0.0       0.0       0.1       0.3       0.4       0.1
[...]
 3 N  dz2             0.5       0.1       1.3       0.0       0.3       1.1
 3 N  dxz             0.0       0.1       0.1       0.4       0.5      16.4
 3 N  dyz             3.1       0.2       1.8       0.6       1.3       3.3
 3 N  dx2y2           0.3       0.1       1.7       0.1       1.9      13.1
 3 N  dxy             0.1       0.5       0.0       0.0       1.1       0.9
 4 O  s               4.7       3.3       6.4       0.6       0.1       2.8
 4 O  pz              0.6       0.1       0.3       0.5       2.4       1.1
 4 O  px              0.0       0.7       0.0       0.0       1.7       0.3
 4 O  py              0.2       0.1       0.1       0.0       1.2       2.1
 4 O  dxz             0.8       0.1       0.1       0.2       1.4       0.0
 4 O  dyz             2.4       0.4       0.6       1.1       5.6       4.6
 4 O  dx2y2           0.0       1.1       0.1       0.1       3.8       2.4
 4 O  dxy             0.0       0.7       0.4       0.2       1.4       1.6
 5 O  s               9.3       1.8       3.7       1.4       2.0       3.0
 5 O  pz              0.2       0.0       0.8       0.0       0.4       0.1
 5 O  px              0.2       0.0       0.2       0.3       4.2       0.5
 5 O  py              0.1       0.2       0.6       0.0       2.6       2.8
 5 O  dz2             0.2       0.6       2.7       0.0       1.6       2.2
 5 O  dxz             0.1       0.4       0.7       0.3       3.8       0.9
 5 O  dyz             0.0       0.1       0.0       0.1       1.0       0.0
 5 O  dx2y2           0.1       0.0       1.1       0.3       8.6       2.7
 5 O  dxy             0.2       0.0       0.2       0.4       2.6       2.2
 6 H  s               0.1       2.5       1.0       0.4       0.0       0.0
 6 H  pz              0.1       2.4       1.2       0.1       0.1       0.0
 6 H  px              0.4       0.2       0.7       0.1       0.2       0.0
 6 H  py              0.2       3.5       1.2       1.0       0.0       0.0
 7 H  s               4.8       0.0       2.8       0.0       0.2       0.0
 7 H  pz              4.3       0.1       2.3       0.0       0.1       0.0
 7 H  px              6.2       0.0       4.5       0.1       0.1       0.0
 7 H  py              1.0       0.0       0.1       0.0       0.1       0.0
 8 H  s               4.2       2.3       1.7       0.6       0.1       0.0
 8 H  pz              4.7       2.1       2.8       1.2       0.3       0.0
 8 H  px              4.0       2.5       1.9       0.4       0.1       0.0
 8 H  py              0.6       0.9       0.1       0.1       0.0       0.0
 9 H  s               1.4       1.6       0.7       3.9       0.4       0.3
 9 H  pz              1.7       2.3       1.4       2.6       0.3       0.3
 9 H  px              1.5       0.8       1.3       4.9       0.5       0.5
 9 H  py              0.0       1.4       0.0       0.6       0.2       0.1
10 H  s               0.3       0.8       1.4       5.4       0.0       0.0
10 H  pz              0.0       0.6       2.2       3.0       0.0       0.0
10 H  px              0.3       0.0       0.3       0.4       0.0       0.0
10 H  py              0.8       1.1       1.9      10.2       0.0       0.0
11 H  s               0.9       1.1       2.2       1.1       2.0       0.4
11 H  pz              0.6       1.8       1.9       0.7       0.7       0.1
11 H  px              0.0       0.3       0.0       0.9       1.6       0.4
11 H  py              1.7       0.4       3.0       0.8       2.7       0.6
12 H  s               0.1       4.7       0.3       3.3       0.5       0.7
12 H  pz              0.0       3.4       0.6       3.6       0.6       0.2
12 H  px              0.0       0.2       0.0       0.0       0.0       0.0
12 H  py              0.2       8.6       0.0       5.2       0.3       1.3

                    156       157       158       159       160       161   
                   4.80363   4.81467  21.94053  22.04258  22.10456  31.84774
                   0.00000   0.00000   0.00000   0.00000   0.00000   0.00000
                  --------  --------  --------  --------  --------  --------
 0 C  s               0.0       0.0      86.8      10.2       2.7       0.0
 1 C  s               0.0       0.0       5.0      76.5      18.2       0.0
 2 C  s               0.0       0.1       7.8      13.0      78.6       0.0
 2 C  dyz             0.0       0.2       0.0       0.0       0.0       0.0
 2 C  dx2y2           0.0       0.1       0.0       0.0       0.0       0.0
 3 N  s               1.5       8.9       0.0       0.0       0.1      99.6
 3 N  pz              0.8       3.2       0.0       0.0       0.0       0.0
 3 N  px              0.9       1.6       0.0       0.0       0.0       0.0
 3 N  py             14.4       1.4       0.0       0.0       0.0       0.0
 3 N  dz2             4.6       0.2       0.0       0.0       0.0       0.0
 3 N  dxz             0.4       1.0       0.0       0.0       0.0       0.0
 3 N  dyz             2.0       9.2       0.0       0.0       0.0       0.0
 3 N  dx2y2           1.9       5.7       0.0       0.0       0.0       0.0
 3 N  dxy            11.5       0.1       0.0       0.0       0.0       0.0
 4 O  s              13.4       4.1       0.0       0.0       0.0       0.1
 4 O  px              3.0       0.9       0.0       0.0       0.0       0.0
 4 O  py             11.9       2.8       0.0       0.0       0.0       0.0
 4 O  dz2             6.2       1.0       0.0       0.0       0.0       0.0
 4 O  dxz             0.1       0.2       0.0       0.0       0.0       0.0
 4 O  dx2y2           7.1       0.8       0.0       0.0       0.0       0.0
 4 O  dxy            10.8       2.3       0.0       0.0       0.0       0.0
 5 O  s               1.7      16.4       0.0       0.0       0.0       0.1
 5 O  pz              0.9       6.3       0.0       0.0       0.0       0.0
 5 O  px              0.2       1.5       0.0       0.0       0.0       0.0
 5 O  py              1.4       8.6       0.0       0.0       0.0       0.0
 5 O  dz2             0.0       0.1       0.0       0.0       0.0       0.0
 5 O  dxz             0.0       2.4       0.0       0.0       0.0       0.0
 5 O  dyz             3.0      14.2       0.0       0.0       0.0       0.0
 5 O  dx2y2           1.1       3.5       0.0       0.0       0.0       0.0
 5 O  dxy             0.9       2.9       0.0       0.0       0.0       0.0

                    162       163   
                  43.81517  43.88109
                   0.00000   0.00000
                  --------  --------
 3 N  s               0.1       0.0
 4 O  s              43.7      56.1
 5 O  s              56.1      43.8


                      *****************************
                      * MAYER POPULATION ANALYSIS *
                      *****************************

  NA   - Mulliken gross atomic population
  ZA   - Total nuclear charge
  QA   - Mulliken gross atomic charge
  VA   - Mayer's total valence
  BVA  - Mayer's bonded valence
  FA   - Mayer's free valence

  ATOM       NA         ZA         QA         VA         BVA        FA
  0 C      6.5245     6.0000    -0.5245     3.7996     3.7996    -0.0000
  1 C      6.2248     6.0000    -0.2248     3.6624     3.6624    -0.0000
  2 C      6.2789     6.0000    -0.2789     3.7197     3.7197    -0.0000
  3 N      6.7441     7.0000     0.2559     4.5238     4.5238     0.0000
  4 O      8.2481     8.0000    -0.2481     2.1665     2.1665    -0.0000
  5 O      8.2464     8.0000    -0.2464     2.1955     2.1955    -0.0000
  6 H      0.8355     1.0000     0.1645     0.9587     0.9587     0.0000
  7 H      0.8323     1.0000     0.1677     0.9568     0.9568     0.0000
  8 H      0.8349     1.0000     0.1651     0.9593     0.9593     0.0000
  9 H      0.8238     1.0000     0.1762     0.9533     0.9533    -0.0000
 10 H      0.8317     1.0000     0.1683     0.9593     0.9593    -0.0000
 11 H      0.7853     1.0000     0.2147     0.9378     0.9378    -0.0000
 12 H      0.7898     1.0000     0.2102     0.9407     0.9407    -0.0000

  Mayer bond orders larger than 0.100000
B(  0-C ,  1-C ) :   0.9032 B(  0-C ,  6-H ) :   0.9714 B(  0-C ,  7-H ) :   0.9639 
B(  0-C ,  8-H ) :   0.9772 B(  1-C ,  2-C ) :   0.8911 B(  1-C ,  9-H ) :   0.9525 
B(  1-C , 10-H ) :   0.9642 B(  2-C ,  3-N ) :   0.8755 B(  2-C , 11-H ) :   0.9149 
B(  2-C , 12-H ) :   0.9594 B(  3-N ,  4-O ) :   1.7992 B(  3-N ,  5-O ) :   1.8174 
B(  4-O ,  5-O ) :   0.2668 

-------
TIMINGS
-------

Total SCF time: 0 days 0 hours 0 min 25 sec 

Total time                  ....      25.177 sec
Sum of individual times     ....      23.139 sec  ( 91.9%)

SCF preparation             ....       0.426 sec  (  1.7%)
Fock matrix formation       ....      20.844 sec  ( 82.8%)
  Startup                   ....       0.076 sec  (  0.4% of F)
  Split-RI-J                ....       2.555 sec  ( 12.3% of F)
  XC integration            ....      14.474 sec  ( 69.4% of F)
    Basis function eval.    ....       2.246 sec  ( 15.5% of XC)
    Density eval.           ....       3.370 sec  ( 23.3% of XC)
    XC-Functional eval.     ....       1.828 sec  ( 12.6% of XC)
    XC-Potential eval.      ....       4.282 sec  ( 29.6% of XC)
  CPCM terms                ....       3.044 sec  ( 14.6% of F)
Diagonalization             ....       0.000 sec  (  0.0%)
Density matrix formation    ....       0.538 sec  (  2.1%)
Total Energy calculation    ....       0.063 sec  (  0.2%)
Population analysis         ....       0.091 sec  (  0.4%)
Orbital Transformation      ....       0.068 sec  (  0.3%)
Orbital Orthonormalization  ....       0.000 sec  (  0.0%)
DIIS solution               ....       1.022 sec  (  4.1%)
  MO trafo                  ....       0.000 sec  (  0.0 % of DIIS)
  Orb grad                  ....       0.000 sec  (  0.0 % of DIIS)
  Energy W gradient         ....       0.000 sec  (  0.0 % of DIIS)
  DIIS error                ....       0.013 sec  (  1.2 % of DIIS)
  DIIS work                 ....       0.942 sec  ( 92.2 % of DIIS)
  Form Q                    ....       0.000 sec  (  0.0 % of DIIS)
  Form QpQm                 ....       0.000 sec  (  0.0 % of DIIS)
  Exp/Cayley                ....       0.000 sec  (  0.0 % of DIIS)
  Orb update                ....       0.000 sec  (  0.0 % of DIIS)
  Wake-sleep                ....       0.033 sec  (  3.2 % of DIIS)
SOSCF solution              ....       0.088 sec  (  0.3%)
  MO trafo                  ....       0.053 sec  ( 60.8 % of SOSCF)
  Orb grad                  ....       0.002 sec  (  1.7 % of SOSCF)
  Rot update                ....       0.013 sec  ( 14.4 % of SOSCF)
  Step                      ....       0.020 sec  ( 23.0 % of SOSCF)
Finished LeanSCF after  25.4 sec

Maximum memory used throughout the entire LEANSCF-calculation: 17.0 MB


-------------------------------------------------------------------------------
                          DFT DISPERSION CORRECTION                            
                                                                               
                                DFTD4 V3.4.0                                   
-------------------------------------------------------------------------------
The R2SCAN3C composite method is recognized
Using three-body term ABC
Active option DFTDOPT                   ...         5   

-------------------------   ----------------
Dispersion correction           -0.002953743
-------------------------   ----------------

------------------   -----------------
gCP correction             0.012591595
------------------   -----------------

-------------------------   --------------------
FINAL SINGLE POINT ENERGY      -323.585838794290
-------------------------   --------------------


------------------------------------------------------------------------------
                              ORCA PROPERTY CALCULATIONS
------------------------------------------------------------------------------

GBWName                                 ... sp_solv.gbw
Number of atoms                         ...     13
Number of basis functions               ...    164
Max core memory                         ...   1024 MB

Electric properties:
Dipole moment                           ... YES
Quadrupole moment                       ...  NO
Static polarizability (Dipole/Dipole)   ...  NO
Static polarizability (Dipole/Quad.)    ...  NO
Static polarizability (Quad./Quad.)     ...  NO
Static polarizability (Velocity)        ...  NO

Atomic electric properties:
Dipole moment                           ...  NO
Quadrupole moment                       ...  NO
Static polarizability                   ...  NO

Choice of electric origin               ... Center of mass
Position of electric origin             ...    -0.000051    -0.000002    -0.000011

General magnetic properties:
Magnetizability                         ...  NO

EPR properties:
g-Tensor (aka g-matrix)                 ...  NO
Zero-Field splitting spin-orbit         ...  NO
Zero-field splitting spin-spin          ...  NO
Hyperfine couplings                     ...  NO (   0 nuclei)
Quadrupole couplings                    ...  NO (   0 nuclei)
Contact density                         ...  NO (   0 nuclei)

NMR properties:
Chemical shifts                         ...  NO (   0 nuclei)
Spin-rotation constants                 ...  NO (   0 nuclei)
Spin-spin couplings                     ...  NO (   0 nuclei,    0 pairs)

Choice of magnetic origin               ... GIAO
Position of magnetic origin             ...     0.000000     0.000000     0.000000

Properties with geometric perturbations:
SCF Hessian                             ...  NO
IR spectrum                             ...  NO
VCD spectrum                            ...  NO
X-ray spectroscopy properties:
SCF XES/XAS/RIXS spectra                ...  NO


-------------
DIPOLE MOMENT
-------------

Method             : SCF
Type of density    : Electron Density
Multiplicity       :   1
Irrep              :   0
Energy             :  -323.5954766467454533 Eh
Relativity type    : 
Basis              : AO
                                X                 Y                 Z
Electronic contribution:      7.904207713      -0.412255744       0.111689167
Nuclear contribution   :     -9.492079349       0.044676955      -1.205558801
                        -----------------------------------------
Total Dipole Moment    :     -1.587871636      -0.367578789      -1.093869634
                        -----------------------------------------
Magnitude (a.u.)       :      1.962906333
Magnitude (Debye)      :      4.989311392



--------------------
Rotational spectrum 
--------------------
 
Rotational constants in cm-1:             0.204874             0.085802             0.079184 
Rotational constants in MHz :          6141.960813          2572.289124          2373.872339 

Dipole components along the rotational axes: 
x,y,z [a.u.] :     1.587865    -0.367626    -1.093863 
x,y,z [Debye]:     4.036032    -0.934431    -2.780380 

 

Dipole moment calculation done in   0.0 sec 

Maximum memory used throughout the entire PROP-calculation: 9.6 MB

--------------------------------
SUGGESTED CITATIONS FOR THIS RUN
--------------------------------

Below you find a list of papers that are relevant to this ORCA run
We neither can nor want to force you to cite these papers, but we appreciate if you do
You receive ORCA, which is the product of decades of hard work by many enthusiastic individuals, for free
The only thing we kindly ask in return is that you cite our papers,
We deeply appreciate it, if you show your appreciation for ORCA by not just citing the generic ORCA reference.

Please note that relegating all ORCA citations to the supporting information does *not* help us.
SI sections are not indexed - citations you put there will not count into any citation statistics
But we need these citations in order to attract the funding resources that allow us to do what we are doing

Therefore, if you are a happy ORCA user, please consider citing a few of the papers listed below in the main body of your paper

In addition to the list printed below, the program has created the file sp_solv.bibtex that contains the list in bibtex format
You can import this file easily into all common literature databanks and citation aid programs


List of essential papers. We consider these as the minimum necessary citations

  1. Neese,F.
     Software update: the ORCA program system, version 5.0
     WIRES Comput. Molec. Sci., 2022 12(1)e1606
     doi.org/10.1002/wcms.1606
  2. Grimme,S.; Hansen,A.; Ehlert,S.; Mewes,J.
     r2SCAN-3c: A 'Swiss army knife' composite electronic-structure method
     J. Chem. Phys., 2021 154 064103
     doi.org/10.1063/5.0040021

List of papers to cite with high priority. The work reported in these papers was absolutely
necessary for this run to complete.
Our perspective: the developers of density functionals and basis sets usually get cited in chemistry papers
Good! But without the algorithms to do something with them, the functionals or basis sets would not do anything.
Hence, in our opinion, the algorithm design and method developments papers are equally worthy of getting cited

  1. Neese,F.
     An improvement of the resolution of the identity approximation for the formation of the Coulomb matrix
     J. Comp. Chem., 2003 24(14)1740-1747
     doi.org/10.1002/jcc.10318
  2. Garcia-Rates,M.; Neese,F.
     Effect of the Solute Cavity on the Solvation Energy and its Derivatives within the Framework of the Gaussian Charge Scheme
     J. Comput. Chem., 2020 41 922-939
     doi.org/10.1002/jcc.26139
  3. Neese,F.
     The SHARK Integral Generation and Digestion System
     J. Comp. Chem., 2022  1-16
     doi.org/10.1002/jcc.26942
  4. Lehtola,S.; Steigemann,C.; Oliveira,M.; Marques,M.
     Recent developments in Libxc - A comprehensive library of functionals for density functional theory
     Software X, 2018 7 
     doi.org/10.1016/j.softx.2017.11.002
  5. Caldeweyher,E.; Bannwarth,C.; Grimme,S.
     Extension of the D3 dispersion coefficient model
     J. Chem. Phys., 2017 147 034112-XXXX
     doi.org/10.1063/1.4993215
  6. Caldeweyher,E.; Ehlert,S.; Hansen,A.; Neugebauer,H.; Spicher,S.; Bannwarth,C.; Grimme,S.
     A generally applicable atomic-charge dependent London dispersion correction
     J. Chem. Phys., 2019 150 154122-XXXX
     doi.org/10.1063/1.5090222
  7. Caldeweyher,E.; Mewes,J.; Ehlert,S.; Grimme,S.
     Extension and evaluation of the D4 London-dispersion model for periodic systems
     Phys. Chem. Chem. Phys., 2020 22(16)8499-8512
     doi.org/10.1039/D0CP00502A

List of suggested additional citations. These are papers that are important in the 'surrounding' of 
of this run, or papers that preceded the highly important papers. If you like your results we are grateful for a citation.

  1. Neese,F.
     The ORCA program system
     WIRES Comput. Molec. Sci., 2012 2(1)73-78
     doi.org/10.1002/wcms.81
  2. Neese,F.
     Software update: the ORCA program system, version 4.0
     WIRES Comput. Molec. Sci., 2018 8(1)1-6
     doi.org/10.1002/wcms.1327
  3. Neese,F.; Wennmohs,F.; Becker,U.; Riplinger,C.
     The ORCA quantum chemistry program package
     J. Chem. Phys., 2020 152 Art. No. L224108
     doi.org/10.1063/5.0004608

List of optional additional citations

  1. Neese,F.
     Approximate second-order SCF convergence for spin unrestricted wavefunctions
     Chem. Phys. Lett., 2000 325(1-3)93-98
     doi.org/10.1016/s0009-2614(00)00662-x

Timings for individual modules:

Sum of individual times          ...       27.376 sec (=   0.456 min)
Startup calculation              ...        1.306 sec (=   0.022 min)   4.8 %
SCF iterations                   ...       25.953 sec (=   0.433 min)  94.8 %
Property calculations            ...        0.117 sec (=   0.002 min)   0.4 %
                             ****ORCA TERMINATED NORMALLY****
TOTAL RUN TIME: 0 days 0 hours 0 minutes 28 seconds 356 msec
