 Entering Gaussian System
 *********************************************
 Gaussian 98:
 frequency output generated by the xtb code
 *********************************************
                         Standard orientation:
 --------------------------------------------------------------------
  Center     Atomic     Atomic              Coordinates (Angstroms)
  Number     Number      Type              X           Y           Z
 --------------------------------------------------------------------
    1          6             0        1.522873   -1.139935   -0.945424
    2          6             0        1.528279   -0.083014    0.144342
    3          6             0        1.888694    1.298715   -0.378590
    4         16             0       -0.005882   -0.072322    1.177361
    5          6             0       -1.529875    0.065129    0.138412
    6          6             0       -1.514661    1.247378   -0.813828
    7          6             0       -1.884043   -1.242161   -0.553027
    8          1             0        0.886346   -0.840814   -1.774426
    9          1             0        2.534939   -1.268482   -1.324561
   10          1             0        1.176196   -2.093118   -0.553859
   11          1             0        2.251111   -0.367923    0.916493
   12          1             0        2.920414    1.294211   -0.724795
   13          1             0        1.790777    2.039638    0.411098
   14          1             0        1.250807    1.586358   -1.209064
   15          1             0       -2.260448    0.253771    0.932486
   16          1             0       -1.172825    2.145428   -0.305181
   17          1             0       -0.869614    1.051741   -1.666777
   18          1             0       -2.523026    1.421577   -1.184502
   19          1             0       -1.793131   -2.074115    0.141057
   20          1             0       -1.237920   -1.426310   -1.406216
   21          1             0       -2.912370   -1.195002   -0.906075
 --------------------------------------------------------------------
     1 basis functions        1 primitive gaussians
     1 alpha electrons        1 beta electrons
 
 Harmonic frequencies (cm**-1), IR intensities (km*mol⁻¹),
 Raman scattering activities (A**4/amu), Raman depolarization ratios,
 reduced masses (AMU), force constants (mDyne/A) and normal coordinates:
                      1                      2                      3
                        a                      a                      a 
 Frequencies --    44.5670                94.6945               167.0918
 Red. masses --     8.3220                11.1519                11.4323
 Frc consts  --     0.0000                 0.0000                 0.0000
 IR Inten    --     0.0349                 3.2514                 0.2963
 Raman Activ --     0.0000                 0.0000                 0.0000
 Depolar     --     0.0000                 0.0000                 0.0000
 Atom AN      X      Y      Z        X      Y      Z        X      Y      Z
   1   6    -0.20   0.27  -0.28    -0.28  -0.00  -0.09     0.42  -0.03   0.03
   2   6    -0.01  -0.01  -0.02    -0.01  -0.11   0.01     0.18  -0.04   0.03
   3   6     0.17   0.08   0.32     0.30  -0.15   0.13     0.30  -0.03   0.14
   4  16    -0.00  -0.00   0.00    -0.02   0.41   0.02     0.00   0.02  -0.32
   5   6     0.01   0.01  -0.02    -0.01  -0.11  -0.03    -0.18   0.03   0.03
   6   6     0.20  -0.23  -0.31    -0.28  -0.02   0.09    -0.42   0.03   0.03
   7   6    -0.17  -0.12   0.31     0.30  -0.14  -0.14    -0.30   0.02   0.14
   8   1    -0.08   0.15  -0.04    -0.03   0.09  -0.03     0.13  -0.04  -0.00
   9   1    -0.07   0.09  -0.12    -0.08  -0.09  -0.00     0.14   0.03   0.03
  10   1    -0.06   0.06  -0.14    -0.18   0.02  -0.07     0.15  -0.02   0.00
  11   1    -0.01  -0.09  -0.03    -0.02  -0.10  -0.01     0.00  -0.01   0.06
  12   1     0.04   0.00   0.07     0.05  -0.13  -0.08     0.06  -0.05  -0.03
  13   1     0.10  -0.04   0.15     0.25  -0.08   0.09     0.17  -0.04   0.08
  14   1     0.04   0.12   0.13     0.02   0.07   0.12     0.04   0.05   0.10
  15   1     0.01   0.09  -0.02    -0.02  -0.10  -0.00    -0.00   0.01   0.06
  16   1     0.06  -0.04  -0.15    -0.18   0.01   0.06    -0.15   0.02   0.00
  17   1     0.08  -0.14  -0.06    -0.03   0.08   0.04    -0.13   0.04  -0.00
  18   1     0.07  -0.07  -0.13    -0.08  -0.09  -0.01    -0.14  -0.04   0.03
  19   1    -0.10   0.02   0.16     0.25  -0.07  -0.09    -0.17   0.03   0.08
  20   1    -0.04  -0.13   0.11     0.02   0.08  -0.12    -0.04  -0.06   0.09
  21   1    -0.04  -0.01   0.07     0.05  -0.14   0.06    -0.06   0.05  -0.03
                      4                      5                      6
                        a                      a                      a 
 Frequencies --   198.1933               212.2456               251.8992
 Red. masses --     1.7993                 3.3352                 8.6932
 Frc consts  --     0.0000                 0.0000                 0.0000
 IR Inten    --     0.1703                 1.3499                 0.0001
 Raman Activ --     0.0000                 0.0000                 0.0000
 Depolar     --     0.0000                 0.0000                 0.0000
 Atom AN      X      Y      Z        X      Y      Z        X      Y      Z
   1   6    -0.02  -0.01  -0.00     0.03  -0.03   0.16     0.18  -0.12  -0.21
   2   6    -0.04   0.01  -0.00     0.07   0.05   0.08    -0.06  -0.28  -0.04
   3   6    -0.13   0.00  -0.05    -0.13   0.07   0.04    -0.34  -0.13   0.20
   4  16    -0.00  -0.01   0.10     0.08  -0.16  -0.01    -0.00  -0.00   0.01
   5   6     0.04  -0.00  -0.00     0.07   0.05  -0.07     0.06   0.28  -0.00
   6   6     0.02   0.01  -0.00     0.03  -0.01  -0.16    -0.18   0.15  -0.20
   7   6     0.13   0.00  -0.05    -0.13   0.08  -0.03     0.33   0.10   0.22
   8   1     0.12   0.07  -0.07    -0.06  -0.06   0.08     0.10  -0.01  -0.09
   9   1     0.02  -0.11   0.11    -0.01   0.02  -0.02     0.08   0.01  -0.00
  10   1    -0.14   0.03  -0.04     0.07  -0.01   0.09     0.05  -0.06  -0.13
  11   1     0.01   0.01  -0.01     0.04   0.04   0.01    -0.01  -0.09  -0.02
  12   1    -0.15  -0.09  -0.36    -0.15  -0.04  -0.33    -0.09   0.08   0.09
  13   1     0.30  -0.05   0.07     0.28  -0.04   0.10    -0.20  -0.08   0.09
  14   1    -0.28   0.13   0.22    -0.29   0.14   0.25    -0.10  -0.06   0.05
  15   1    -0.01  -0.01  -0.01     0.04   0.04  -0.01     0.01   0.09  -0.01
  16   1     0.14  -0.03  -0.04     0.07  -0.00  -0.09    -0.05   0.08  -0.12
  17   1    -0.12  -0.06  -0.08    -0.06  -0.05  -0.09    -0.10   0.02  -0.09
  18   1    -0.02   0.09   0.12    -0.01   0.02   0.02    -0.08  -0.01  -0.00
  19   1    -0.30   0.04   0.08     0.28  -0.02  -0.10     0.20   0.07   0.10
  20   1     0.28  -0.16   0.20    -0.28   0.17  -0.23     0.10   0.05   0.06
  21   1     0.16   0.13  -0.34    -0.16  -0.08   0.32     0.08  -0.09   0.09
                      7                      8                      9
                        a                      a                      a 
 Frequencies --   259.0390               263.4461               292.2356
 Red. masses --     2.5738                 1.5372                11.2280
 Frc consts  --     0.0000                 0.0000                 0.0000
 IR Inten    --     0.5179                 0.0987                 0.4274
 Raman Activ --     0.0000                 0.0000                 0.0000
 Depolar     --     0.0000                 0.0000                 0.0000
 Atom AN      X      Y      Z        X      Y      Z        X      Y      Z
   1   6     0.09  -0.03  -0.01     0.02   0.04   0.02     0.30   0.09  -0.18
   2   6    -0.05   0.07  -0.08     0.03   0.05   0.01    -0.20  -0.01  -0.07
   3   6    -0.05   0.08  -0.08     0.07   0.05   0.03     0.09  -0.12  -0.16
   4  16    -0.02  -0.15  -0.01    -0.00   0.00  -0.09    -0.40   0.09   0.00
   5   6    -0.05   0.06   0.09    -0.03  -0.05   0.00    -0.20  -0.02   0.06
   6   6     0.09  -0.03   0.00    -0.02  -0.04   0.01     0.30   0.07   0.19
   7   6    -0.05   0.07   0.09    -0.07  -0.05   0.03     0.09  -0.14   0.14
   8   1     0.32   0.12  -0.18     0.29   0.18  -0.16     0.09  -0.03  -0.07
   9   1     0.10  -0.27   0.28     0.06  -0.28   0.26     0.12   0.18  -0.01
  10   1    -0.31   0.09  -0.07    -0.36   0.11  -0.08     0.19  -0.04  -0.11
  11   1    -0.02   0.04  -0.01    -0.01   0.01   0.02    -0.09   0.00   0.01
  12   1    -0.03  -0.00  -0.08     0.06   0.05   0.14    -0.00  -0.16  -0.12
  13   1     0.05   0.01  -0.00    -0.11   0.04  -0.03     0.17  -0.02  -0.05
  14   1    -0.04   0.06   0.02     0.11  -0.04  -0.08     0.00   0.03  -0.00
  15   1    -0.02   0.04   0.02     0.01  -0.01   0.02    -0.09   0.00  -0.02
  16   1    -0.32   0.08   0.08     0.35  -0.09  -0.09     0.19  -0.05   0.11
  17   1     0.33   0.10   0.21    -0.28  -0.16  -0.17     0.09  -0.03   0.07
  18   1     0.10  -0.24  -0.32    -0.06   0.24   0.28     0.12   0.17   0.03
  19   1     0.04   0.01   0.01     0.11  -0.03  -0.03     0.17  -0.02   0.04
  20   1    -0.04   0.06  -0.01    -0.11   0.06  -0.07     0.00   0.03   0.01
  21   1    -0.03  -0.01   0.07    -0.06  -0.07   0.13    -0.00  -0.17   0.10
                     10                     11                     12
                        a                      a                      a 
 Frequencies --   326.9280               340.6139               407.1167
 Red. masses --    15.1623                12.6541                 7.7044
 Frc consts  --     0.0000                 0.0000                 0.0000
 IR Inten    --     7.8812                 0.8479                 1.1274
 Raman Activ --     0.0000                 0.0000                 0.0000
 Depolar     --     0.0000                 0.0000                 0.0000
 Atom AN      X      Y      Z        X      Y      Z        X      Y      Z
   1   6     0.18  -0.16  -0.15    -0.16  -0.25   0.15    -0.02  -0.26   0.00
   2   6     0.02  -0.20  -0.09     0.01   0.04  -0.13    -0.18   0.12  -0.32
   3   6    -0.28  -0.02   0.19    -0.08   0.21   0.22     0.16   0.23   0.09
   4  16     0.15   0.51   0.03     0.00   0.03  -0.46    -0.03  -0.06  -0.00
   5   6     0.01  -0.21   0.06    -0.01  -0.03  -0.14    -0.18   0.08   0.33
   6   6     0.17  -0.17   0.13     0.16   0.23   0.18    -0.02  -0.26  -0.03
   7   6    -0.28  -0.00  -0.20     0.08  -0.23   0.19     0.16   0.24  -0.06
   8   1     0.08  -0.05  -0.07    -0.08  -0.15   0.04    -0.04  -0.25  -0.04
   9   1     0.07  -0.02   0.01    -0.07  -0.14   0.01     0.00  -0.05   0.01
  10   1     0.05  -0.06  -0.07    -0.05  -0.02   0.17     0.08  -0.05   0.15
  11   1     0.01  -0.06  -0.03    -0.01   0.02  -0.03    -0.06   0.03  -0.08
  12   1    -0.09   0.11   0.04    -0.02   0.13   0.06     0.07   0.03   0.09
  13   1    -0.13  -0.08   0.12    -0.04  -0.04   0.15     0.06  -0.03   0.12
  14   1    -0.12   0.01   0.09    -0.04   0.14   0.10     0.11   0.22   0.03
  15   1     0.01  -0.06   0.03     0.01  -0.01  -0.03    -0.06   0.02   0.08
  16   1     0.05  -0.06   0.06     0.05  -0.00   0.18     0.08  -0.03  -0.15
  17   1     0.08  -0.06   0.06     0.08   0.14   0.06    -0.04  -0.25   0.01
  18   1     0.07  -0.02  -0.01     0.07   0.14   0.03     0.00  -0.05  -0.01
  19   1    -0.13  -0.07  -0.13     0.03   0.02   0.16     0.06  -0.01  -0.12
  20   1    -0.12   0.02  -0.09     0.04  -0.15   0.08     0.11   0.22   0.00
  21   1    -0.09   0.12  -0.02     0.02  -0.13   0.04     0.07   0.04  -0.09
                     13                     14                     15
                        a                      a                      a 
 Frequencies --   499.7440               576.3657               638.1571
 Red. masses --    13.0591                12.8515                18.0332
 Frc consts  --     0.0000                 0.0000                 0.0000
 IR Inten    --     1.8652                 3.6705                 1.2335
 Raman Activ --     0.0000                 0.0000                 0.0000
 Depolar     --     0.0000                 0.0000                 0.0000
 Atom AN      X      Y      Z        X      Y      Z        X      Y      Z
   1   6     0.10  -0.17  -0.11     0.03  -0.12  -0.12     0.04  -0.09  -0.10
   2   6    -0.28   0.09  -0.26     0.49  -0.05  -0.11     0.42  -0.04  -0.09
   3   6     0.12   0.15  -0.00     0.06   0.13  -0.05     0.08   0.12  -0.06
   4  16    -0.00  -0.03   0.46    -0.00  -0.02   0.40    -0.62   0.02  -0.00
   5   6     0.28  -0.06  -0.27    -0.49   0.06  -0.11     0.42  -0.05   0.09
   6   6    -0.09   0.18  -0.09    -0.03   0.13  -0.10     0.04  -0.11   0.09
   7   6    -0.12  -0.15  -0.02    -0.06  -0.13  -0.07     0.07   0.11   0.08
   8   1     0.08  -0.18  -0.12    -0.04   0.01   0.02    -0.04   0.02   0.03
   9   1     0.08  -0.01   0.08    -0.04  -0.14  -0.13    -0.04  -0.12  -0.12
  10   1     0.07  -0.04   0.03    -0.04   0.01   0.02    -0.04   0.01   0.01
  11   1    -0.04   0.02  -0.10     0.15  -0.02  -0.05     0.08  -0.01  -0.00
  12   1     0.06  -0.04   0.08     0.01   0.18  -0.05     0.01   0.16  -0.06
  13   1     0.06  -0.01   0.05    -0.05  -0.00   0.01    -0.04   0.00   0.00
  14   1     0.12   0.18  -0.02    -0.05  -0.01   0.02    -0.04  -0.02   0.02
  15   1     0.05  -0.01  -0.10    -0.15   0.02  -0.05     0.08  -0.01   0.00
  16   1    -0.07   0.03   0.03     0.04  -0.01   0.02    -0.04   0.01  -0.01
  17   1    -0.08   0.19  -0.10     0.04  -0.01   0.02    -0.04   0.02  -0.02
  18   1    -0.08   0.00   0.08     0.04   0.15  -0.11    -0.04  -0.14   0.11
  19   1    -0.06   0.01   0.05     0.05   0.00   0.02    -0.04   0.00  -0.00
  20   1    -0.12  -0.17  -0.05     0.05   0.01   0.02    -0.04  -0.01  -0.02
  21   1    -0.06   0.03   0.08    -0.01  -0.18  -0.07     0.01   0.15   0.08
                     16                     17                     18
                        a                      a                      a 
 Frequencies --   924.9881               929.3587               941.7977
 Red. masses --     8.2357                 7.9572                 2.5461
 Frc consts  --     0.0000                 0.0000                 0.0000
 IR Inten    --     1.6564                 0.0659                 2.2258
 Raman Activ --     0.0000                 0.0000                 0.0000
 Depolar     --     0.0000                 0.0000                 0.0000
 Atom AN      X      Y      Z        X      Y      Z        X      Y      Z
   1   6     0.03   0.30   0.12    -0.02  -0.30  -0.11     0.05  -0.06   0.15
   2   6     0.10   0.07  -0.29    -0.10  -0.07   0.29    -0.00  -0.07  -0.05
   3   6    -0.06  -0.33   0.02     0.07   0.32  -0.01    -0.07  -0.03  -0.16
   4  16    -0.06   0.00  -0.00     0.00   0.00  -0.06    -0.00   0.01   0.00
   5   6     0.10   0.04   0.30     0.10   0.04   0.29    -0.00  -0.08   0.04
   6   6     0.03   0.32  -0.08     0.02   0.31  -0.07     0.06  -0.04  -0.16
   7   6    -0.06  -0.33  -0.06    -0.07  -0.32  -0.05    -0.07  -0.05   0.16
   8   1    -0.01  -0.07  -0.00     0.00   0.09   0.02    -0.02   0.28   0.17
   9   1     0.00  -0.04   0.05    -0.01   0.02  -0.08    -0.03   0.04  -0.10
  10   1    -0.00   0.17   0.25    -0.01  -0.17  -0.25    -0.05  -0.09  -0.20
  11   1     0.02  -0.00  -0.08    -0.05   0.01   0.11     0.03   0.24   0.05
  12   1    -0.00  -0.02   0.05    -0.00   0.03  -0.06     0.04  -0.01   0.11
  13   1    -0.06  -0.21   0.12     0.05   0.21  -0.11    -0.01  -0.22   0.16
  14   1    -0.00   0.01   0.03    -0.00  -0.02  -0.03     0.11   0.31  -0.03
  15   1     0.02  -0.01   0.08     0.05  -0.02   0.11     0.03   0.25  -0.02
  16   1     0.00   0.20  -0.23     0.01   0.20  -0.23    -0.05  -0.11   0.19
  17   1    -0.01  -0.07  -0.01    -0.00  -0.09   0.01    -0.02   0.30  -0.14
  18   1     0.00  -0.03  -0.06     0.01  -0.01  -0.08    -0.03   0.03   0.10
  19   1    -0.06  -0.20  -0.14    -0.05  -0.19  -0.14    -0.00  -0.20  -0.19
  20   1    -0.00   0.01  -0.03     0.00   0.02  -0.02     0.11   0.30   0.07
  21   1     0.00  -0.01  -0.06     0.00  -0.02  -0.06     0.04   0.00  -0.12
                     19                     20                     21
                        a                      a                      a 
 Frequencies --   942.6855               974.6125               976.9956
 Red. masses --     2.5366                 3.8054                 3.7908
 Frc consts  --     0.0000                 0.0000                 0.0000
 IR Inten    --     0.2033                 0.0078                 0.0886
 Raman Activ --     0.0000                 0.0000                 0.0000
 Depolar     --     0.0000                 0.0000                 0.0000
 Atom AN      X      Y      Z        X      Y      Z        X      Y      Z
   1   6    -0.07   0.05  -0.15    -0.18   0.04   0.16    -0.18   0.05   0.15
   2   6    -0.00   0.07   0.05    -0.01  -0.10  -0.03    -0.01  -0.10  -0.03
   3   6     0.08   0.04   0.16     0.19   0.03  -0.14     0.18   0.03  -0.14
   4  16     0.00   0.00  -0.01    -0.00  -0.00  -0.01    -0.01  -0.04  -0.00
   5   6    -0.00  -0.08   0.04     0.01   0.10  -0.02    -0.01  -0.11   0.02
   6   6     0.07  -0.04  -0.15     0.18  -0.05   0.15    -0.18   0.07  -0.15
   7   6    -0.08  -0.06   0.15    -0.19  -0.01  -0.14     0.18   0.01   0.14
   8   1     0.03  -0.27  -0.17     0.10  -0.01  -0.07     0.10  -0.02  -0.08
   9   1     0.03  -0.03   0.10     0.06   0.27   0.24     0.06   0.26   0.24
  10   1     0.05   0.08   0.19     0.09  -0.11  -0.13     0.09  -0.10  -0.12
  11   1    -0.04  -0.24  -0.05    -0.01  -0.12  -0.03    -0.01  -0.13  -0.04
  12   1    -0.04   0.02  -0.12     0.03   0.35  -0.09     0.03   0.34  -0.09
  13   1     0.00   0.23  -0.17    -0.12  -0.14   0.08    -0.12  -0.13   0.08
  14   1    -0.11  -0.31   0.03    -0.10  -0.01   0.07    -0.10  -0.01   0.07
  15   1     0.04   0.25  -0.02     0.01   0.13  -0.02    -0.01  -0.14   0.02
  16   1    -0.05  -0.10   0.18    -0.09   0.12  -0.11     0.09  -0.11   0.11
  17   1    -0.02   0.29  -0.13    -0.10   0.01  -0.07     0.10  -0.03   0.08
  18   1    -0.03   0.02   0.10    -0.06  -0.29   0.20     0.07   0.29  -0.21
  19   1    -0.00  -0.20  -0.19     0.12   0.12   0.10    -0.12  -0.12  -0.10
  20   1     0.11   0.31   0.07     0.10  -0.00   0.07    -0.10   0.00  -0.07
  21   1     0.04  -0.01  -0.12    -0.03  -0.33  -0.12     0.03   0.33   0.13
                     22                     23                     24
                        a                      a                      a 
 Frequencies --  1058.1512              1087.2058              1141.9224
 Red. masses --     3.7789                 4.2496                 8.0959
 Frc consts  --     0.0000                 0.0000                 0.0000
 IR Inten    --    19.5018                15.9430                 0.2909
 Raman Activ --     0.0000                 0.0000                 0.0000
 Depolar     --     0.0000                 0.0000                 0.0000
 Atom AN      X      Y      Z        X      Y      Z        X      Y      Z
   1   6     0.17  -0.01   0.01     0.19   0.01  -0.03     0.11   0.18   0.13
   2   6    -0.20   0.04  -0.08    -0.25   0.05  -0.04    -0.08  -0.43  -0.04
   3   6     0.18  -0.04   0.00     0.18  -0.07  -0.03    -0.03   0.24  -0.10
   4  16     0.09  -0.02  -0.00    -0.00  -0.00   0.06    -0.00  -0.00   0.00
   5   6    -0.20   0.03   0.09     0.25  -0.05  -0.04     0.08   0.43   0.01
   6   6     0.17  -0.01  -0.01    -0.19  -0.01  -0.03    -0.11  -0.20   0.11
   7   6     0.18  -0.04  -0.01    -0.18   0.07  -0.03     0.03  -0.22  -0.13
   8   1    -0.09   0.13   0.15    -0.09   0.08   0.12    -0.05   0.04   0.09
   9   1    -0.05  -0.15  -0.19    -0.06  -0.19  -0.21    -0.01  -0.07  -0.02
  10   1    -0.09   0.06   0.03    -0.09   0.09   0.08    -0.03   0.11   0.14
  11   1    -0.29  -0.00   0.20    -0.23   0.01   0.15    -0.03  -0.29  -0.07
  12   1     0.00   0.25  -0.11     0.01   0.27  -0.11     0.00  -0.03   0.00
  13   1    -0.11  -0.04   0.01    -0.12  -0.08   0.03     0.05   0.08  -0.04
  14   1    -0.14  -0.16   0.09    -0.13  -0.11   0.09     0.07   0.13  -0.06
  15   1    -0.29   0.02  -0.20     0.23  -0.03   0.15     0.03   0.30  -0.03
  16   1    -0.09   0.06  -0.02     0.09  -0.10   0.07     0.03  -0.12   0.12
  17   1    -0.09   0.14  -0.13     0.09  -0.10   0.11     0.04  -0.05   0.09
  18   1    -0.05  -0.17   0.17     0.06   0.21  -0.19     0.01   0.07  -0.01
  19   1    -0.11  -0.04  -0.01     0.12   0.08   0.04    -0.05  -0.08  -0.05
  20   1    -0.14  -0.14  -0.11     0.13   0.10   0.10    -0.07  -0.12  -0.08
  21   1     0.00   0.23   0.14    -0.01  -0.26  -0.14    -0.00   0.03   0.00
                     25                     26                     27
                        a                      a                      a 
 Frequencies --  1144.8259              1157.6642              1169.8159
 Red. masses --     8.1449                 6.8759                 7.0285
 Frc consts  --     0.0000                 0.0000                 0.0000
 IR Inten    --    17.3123                29.7190                15.8575
 Raman Activ --     0.0000                 0.0000                 0.0000
 Depolar     --     0.0000                 0.0000                 0.0000
 Atom AN      X      Y      Z        X      Y      Z        X      Y      Z
   1   6     0.11   0.18   0.15     0.04   0.07  -0.22    -0.03   0.05  -0.24
   2   6    -0.08  -0.42  -0.07    -0.10  -0.04   0.39    -0.00  -0.03   0.40
   3   6    -0.03   0.24  -0.09     0.04  -0.01  -0.22    -0.01  -0.01  -0.21
   4  16     0.00   0.02   0.00     0.02   0.00   0.00     0.00   0.00  -0.05
   5   6    -0.08  -0.43   0.02    -0.09   0.01  -0.40    -0.00  -0.02   0.40
   6   6     0.11   0.19  -0.13     0.03   0.04   0.23     0.03  -0.02  -0.25
   7   6    -0.03   0.23   0.11     0.03  -0.04   0.21     0.01   0.03  -0.21
   8   1    -0.04   0.06   0.10    -0.04  -0.20  -0.09    -0.02  -0.22  -0.13
   9   1    -0.01  -0.07  -0.03    -0.01  -0.15  -0.04     0.01  -0.11   0.03
  10   1    -0.03   0.10   0.13    -0.00   0.11   0.17     0.02   0.08   0.16
  11   1    -0.03  -0.29  -0.08     0.07   0.01   0.02     0.04   0.03   0.08
  12   1     0.00  -0.04   0.00     0.04   0.14   0.04     0.04   0.10   0.07
  13   1     0.06   0.10  -0.05    -0.05  -0.18   0.12    -0.03  -0.17   0.11
  14   1     0.06   0.11  -0.06     0.01   0.20   0.01     0.04   0.22   0.00
  15   1    -0.03  -0.30   0.04     0.07   0.01  -0.02    -0.04  -0.04   0.08
  16   1    -0.03   0.12  -0.12    -0.00   0.13  -0.16    -0.03  -0.10   0.15
  17   1    -0.04   0.07  -0.09    -0.04  -0.21   0.07     0.02   0.24  -0.11
  18   1    -0.01  -0.07   0.02    -0.01  -0.15   0.02    -0.01   0.10   0.04
  19   1     0.06   0.09   0.06    -0.05  -0.17  -0.14     0.03   0.15   0.13
  20   1     0.06   0.10   0.08     0.01   0.20   0.01    -0.04  -0.22  -0.03
  21   1     0.00  -0.04  -0.01     0.04   0.15  -0.03    -0.04  -0.10   0.05
                     28                     29                     30
                        a                      a                      a 
 Frequencies --  1242.5059              1272.4038              1294.1436
 Red. masses --     3.3351                 2.9650                 4.3179
 Frc consts  --     0.0000                 0.0000                 0.0000
 IR Inten    --    68.8250                13.6239                17.7379
 Raman Activ --     0.0000                 0.0000                 0.0000
 Depolar     --     0.0000                 0.0000                 0.0000
 Atom AN      X      Y      Z        X      Y      Z        X      Y      Z
   1   6    -0.12   0.03  -0.06    -0.10   0.02  -0.04     0.06  -0.09   0.06
   2   6     0.24  -0.06  -0.03     0.20  -0.04  -0.14     0.06   0.33   0.08
   3   6    -0.11   0.05  -0.06    -0.09   0.04  -0.02    -0.09  -0.04  -0.09
   4  16     0.07  -0.01  -0.00    -0.00  -0.00   0.06     0.00  -0.01  -0.00
   5   6     0.23  -0.06   0.03    -0.20   0.06  -0.13     0.06   0.33  -0.03
   6   6    -0.12   0.03   0.06     0.10  -0.01  -0.04     0.06  -0.08  -0.07
   7   6    -0.11   0.04   0.06     0.09  -0.04  -0.02    -0.09  -0.05   0.08
   8   1     0.03  -0.09  -0.09     0.02  -0.03  -0.05     0.01   0.04   0.04
   9   1     0.02   0.05   0.09     0.02   0.07   0.08    -0.02  -0.02  -0.09
  10   1     0.05  -0.00   0.04     0.04  -0.00   0.04    -0.03  -0.06  -0.12
  11   1    -0.40  -0.02   0.42    -0.44   0.00   0.43    -0.10  -0.53  -0.10
  12   1    -0.00  -0.08   0.05    -0.01  -0.08   0.03     0.01  -0.06   0.07
  13   1     0.05  -0.02   0.02     0.04   0.00   0.01    -0.00  -0.10   0.07
  14   1     0.05   0.10  -0.05     0.03   0.04  -0.03     0.01   0.07  -0.01
  15   1    -0.40   0.03  -0.43     0.44  -0.06   0.44    -0.10  -0.52   0.03
  16   1     0.06   0.00  -0.04    -0.04  -0.00   0.04    -0.03  -0.07   0.11
  17   1     0.03  -0.10   0.08    -0.02   0.04  -0.05     0.01   0.05  -0.03
  18   1     0.02   0.06  -0.08    -0.02  -0.08   0.07    -0.02  -0.03   0.09
  19   1     0.05  -0.01  -0.02    -0.04  -0.00   0.01     0.00  -0.09  -0.08
  20   1     0.05   0.09   0.06    -0.03  -0.04  -0.04     0.01   0.07   0.02
  21   1    -0.00  -0.08  -0.06     0.01   0.08   0.04     0.01  -0.05  -0.08
                     31                     32                     33
                        a                      a                      a 
 Frequencies --  1296.9393              1395.5012              1396.0661
 Red. masses --     4.3500                 3.2215                 3.1878
 Frc consts  --     0.0000                 0.0000                 0.0000
 IR Inten    --     0.0227                 0.1218                 9.9961
 Raman Activ --     0.0000                 0.0000                 0.0000
 Depolar     --     0.0000                 0.0000                 0.0000
 Atom AN      X      Y      Z        X      Y      Z        X      Y      Z
   1   6     0.05  -0.10   0.05     0.02  -0.16  -0.14    -0.01   0.20   0.18
   2   6     0.06   0.33   0.08     0.01   0.05   0.01    -0.01  -0.05  -0.02
   3   6    -0.09  -0.03  -0.10    -0.06  -0.19   0.06     0.06   0.17  -0.04
   4  16    -0.00   0.00   0.00     0.00   0.00  -0.00     0.00   0.00   0.00
   5   6    -0.07  -0.34   0.04    -0.01  -0.05   0.00    -0.01  -0.04   0.01
   6   6    -0.05   0.09   0.06    -0.02   0.20  -0.13    -0.01   0.20  -0.14
   7   6     0.09   0.05  -0.09     0.07   0.20   0.09     0.05   0.14   0.05
   8   1     0.02   0.05   0.03    -0.06   0.20   0.11     0.06  -0.27  -0.13
   9   1    -0.02  -0.02  -0.08     0.09   0.20   0.14    -0.10  -0.24  -0.17
  10   1    -0.01  -0.06  -0.10    -0.07   0.10   0.21     0.07  -0.13  -0.29
  11   1    -0.12  -0.51  -0.07    -0.00  -0.05  -0.02     0.01   0.06   0.01
  12   1     0.01  -0.07   0.08    -0.02   0.24  -0.03     0.01  -0.21   0.02
  13   1    -0.00  -0.10   0.07     0.10   0.17  -0.16    -0.09  -0.14   0.14
  14   1     0.00   0.07  -0.01     0.11   0.20  -0.01    -0.10  -0.19   0.01
  15   1     0.12   0.53  -0.01     0.01   0.06  -0.01     0.01   0.06  -0.01
  16   1     0.01   0.07  -0.09     0.08  -0.14   0.22     0.05  -0.15   0.25
  17   1    -0.02  -0.06   0.03     0.07  -0.24   0.10     0.05  -0.26   0.09
  18   1     0.02   0.03  -0.08    -0.10  -0.24   0.13    -0.09  -0.24   0.12
  19   1    -0.00   0.10   0.08    -0.11  -0.16  -0.19    -0.08  -0.11  -0.13
  20   1    -0.00  -0.07  -0.02    -0.12  -0.22  -0.04    -0.09  -0.17  -0.03
  21   1    -0.01   0.06   0.09     0.02  -0.26  -0.06     0.01  -0.18  -0.04
                     34                     35                     36
                        a                      a                      a 
 Frequencies --  1405.4156              1412.5561              1473.9852
 Red. masses --     3.0665                 3.0206                 1.5697
 Frc consts  --     0.0000                 0.0000                 0.0000
 IR Inten    --     2.8835                 0.7304                 0.1519
 Raman Activ --     0.0000                 0.0000                 0.0000
 Depolar     --     0.0000                 0.0000                 0.0000
 Atom AN      X      Y      Z        X      Y      Z        X      Y      Z
   1   6     0.01  -0.11  -0.14     0.01  -0.15  -0.15     0.10   0.01  -0.03
   2   6     0.00  -0.00   0.02    -0.01  -0.01   0.02     0.01   0.02   0.02
   3   6     0.07   0.22  -0.09     0.07   0.19  -0.08    -0.05   0.05   0.09
   4  16    -0.01   0.00   0.00     0.00   0.00  -0.01     0.00   0.00  -0.00
   5   6     0.00  -0.00  -0.02     0.01   0.01   0.02    -0.01  -0.03   0.01
   6   6     0.01  -0.12   0.12    -0.01   0.17  -0.13    -0.10  -0.01  -0.03
   7   6     0.07   0.21   0.12    -0.07  -0.18  -0.10     0.05  -0.06   0.08
   8   1    -0.08   0.15   0.11    -0.04   0.22   0.10    -0.22  -0.20   0.10
   9   1     0.09   0.14   0.16     0.08   0.20   0.12     0.07   0.09   0.12
  10   1    -0.05   0.08   0.17    -0.06   0.12   0.25    -0.25   0.04  -0.15
  11   1     0.02   0.00  -0.01     0.03   0.01  -0.02    -0.00  -0.01   0.00
  12   1     0.03  -0.30   0.06     0.03  -0.26   0.05    -0.10   0.04  -0.28
  13   1    -0.12  -0.21   0.20    -0.11  -0.18   0.16     0.03  -0.15   0.15
  14   1    -0.15  -0.25   0.02    -0.14  -0.21   0.03     0.25  -0.12  -0.23
  15   1     0.02   0.00   0.01    -0.03  -0.01  -0.02     0.00   0.01   0.01
  16   1    -0.05   0.10  -0.16     0.05  -0.15   0.24     0.25  -0.02  -0.15
  17   1    -0.08   0.16  -0.09     0.04  -0.23   0.07     0.22   0.18   0.13
  18   1     0.09   0.16  -0.14    -0.08  -0.21   0.10    -0.07  -0.10   0.11
  19   1    -0.11  -0.19  -0.22     0.11   0.16   0.18    -0.03   0.13   0.17
  20   1    -0.15  -0.24  -0.05     0.14   0.21   0.05    -0.25   0.15  -0.22
  21   1     0.03  -0.29  -0.10    -0.03   0.25   0.09     0.10  -0.01  -0.28
                     37                     38                     39
                        a                      a                      a 
 Frequencies --  1479.3134              1481.0001              1484.7512
 Red. masses --     1.5612                 1.5774                 1.5388
 Frc consts  --     0.0000                 0.0000                 0.0000
 IR Inten    --     3.0427                 0.2076                 3.8935
 Raman Activ --     0.0000                 0.0000                 0.0000
 Depolar     --     0.0000                 0.0000                 0.0000
 Atom AN      X      Y      Z        X      Y      Z        X      Y      Z
   1   6     0.09   0.00   0.03    -0.04   0.05  -0.08     0.02  -0.08   0.09
   2   6     0.02  -0.03  -0.03     0.01   0.03   0.00     0.02  -0.02   0.02
   3   6    -0.00  -0.03  -0.11     0.09  -0.02   0.07     0.09  -0.00   0.03
   4  16    -0.00   0.00   0.00     0.00  -0.00   0.00    -0.00   0.00   0.00
   5   6     0.02  -0.03   0.03    -0.01  -0.03  -0.00     0.02  -0.02  -0.02
   6   6     0.09   0.01  -0.03     0.04  -0.04  -0.09     0.02  -0.07  -0.10
   7   6    -0.01  -0.05   0.11    -0.09   0.01   0.07     0.09   0.00  -0.03
   8   1    -0.10  -0.20   0.02    -0.12   0.11   0.12     0.20  -0.05  -0.16
   9   1     0.02   0.16  -0.00     0.05  -0.24   0.22    -0.07   0.28  -0.27
  10   1    -0.28   0.06  -0.11     0.24  -0.09  -0.03    -0.21   0.11   0.09
  11   1     0.00   0.03   0.01    -0.01  -0.03  -0.01    -0.00   0.00   0.02
  12   1     0.13   0.03   0.37    -0.08  -0.16  -0.25    -0.04  -0.17  -0.15
  13   1     0.15   0.11  -0.10    -0.35   0.02  -0.06    -0.31   0.03  -0.06
  14   1    -0.26   0.00   0.19     0.07   0.19   0.03    -0.01   0.16   0.07
  15   1     0.00   0.03  -0.01     0.01   0.04  -0.00    -0.00   0.01  -0.02
  16   1    -0.28   0.05   0.11    -0.24   0.09  -0.02    -0.21   0.12  -0.08
  17   1    -0.10  -0.19  -0.04     0.11  -0.13   0.11     0.20  -0.08   0.16
  18   1     0.02   0.16   0.03    -0.05   0.21   0.24    -0.07   0.24   0.31
  19   1     0.15   0.10   0.11     0.35  -0.02  -0.06    -0.31   0.02   0.06
  20   1    -0.26   0.03  -0.20    -0.07  -0.19   0.00    -0.01   0.17  -0.05
  21   1     0.13   0.08  -0.36     0.08   0.19  -0.22    -0.05  -0.19   0.13
                     40                     41                     42
                        a                      a                      a 
 Frequencies --  1492.1438              1498.6158              1501.6092
 Red. masses --     1.5743                 1.5303                 1.5725
 Frc consts  --     0.0000                 0.0000                 0.0000
 IR Inten    --     2.1351                 3.7367                 1.4467
 Raman Activ --     0.0000                 0.0000                 0.0000
 Depolar     --     0.0000                 0.0000                 0.0000
 Atom AN      X      Y      Z        X      Y      Z        X      Y      Z
   1   6    -0.02   0.06  -0.06    -0.02   0.07  -0.09     0.12   0.04  -0.03
   2   6     0.02   0.02  -0.02    -0.02   0.02  -0.02     0.03   0.01   0.00
   3   6     0.11  -0.06  -0.01    -0.08   0.02  -0.06    -0.00   0.00   0.09
   4  16    -0.00   0.00  -0.00     0.00   0.00  -0.00    -0.00  -0.00  -0.00
   5   6     0.02   0.01   0.02     0.02  -0.01  -0.03     0.03   0.01  -0.00
   6   6    -0.02   0.05   0.06     0.02  -0.06  -0.10     0.12   0.04   0.04
   7   6     0.11  -0.07   0.01     0.08  -0.01  -0.06    -0.00   0.01  -0.09
   8   1    -0.13   0.04   0.11    -0.20   0.07   0.17    -0.30  -0.25   0.14
   9   1     0.05  -0.19   0.19     0.07  -0.25   0.27     0.09   0.07   0.18
  10   1     0.17  -0.08  -0.06     0.20  -0.10  -0.07    -0.28   0.03  -0.20
  11   1    -0.01  -0.02   0.00     0.00   0.00  -0.02    -0.01  -0.01   0.01
  12   1     0.01  -0.18   0.02     0.06   0.14   0.21    -0.08  -0.01  -0.24
  13   1    -0.33   0.14  -0.18     0.31  -0.03   0.06    -0.09  -0.05   0.04
  14   1    -0.15   0.26   0.22    -0.06  -0.19  -0.03     0.19   0.04  -0.13
  15   1    -0.01  -0.02  -0.00    -0.00  -0.00  -0.02    -0.01  -0.01  -0.01
  16   1     0.16  -0.08   0.05    -0.20   0.10  -0.06    -0.28   0.00   0.20
  17   1    -0.13   0.05  -0.10     0.20  -0.09   0.16    -0.30  -0.23  -0.18
  18   1     0.05  -0.16  -0.21    -0.07   0.22   0.30     0.09   0.09  -0.17
  19   1    -0.33   0.11   0.19    -0.30   0.02   0.06    -0.09  -0.04  -0.04
  20   1    -0.15   0.29  -0.19     0.06   0.19  -0.00     0.19   0.02   0.13
  21   1     0.01  -0.18  -0.04    -0.07  -0.16   0.19    -0.08  -0.04   0.24
                     43                     44                     45
                        a                      a                      a 
 Frequencies --  1505.3367              2923.0473              2925.9842
 Red. masses --     1.5387                 1.7593                 1.7472
 Frc consts  --     0.0000                 0.0000                 0.0000
 IR Inten    --     0.2486                26.1032                50.2637
 Raman Activ --     0.0000                 0.0000                 0.0000
 Depolar     --     0.0000                 0.0000                 0.0000
 Atom AN      X      Y      Z        X      Y      Z        X      Y      Z
   1   6     0.10   0.04  -0.01     0.00  -0.00   0.00    -0.00   0.00  -0.00
   2   6     0.04  -0.01  -0.03    -0.12   0.05  -0.13     0.12  -0.05   0.13
   3   6     0.06  -0.04  -0.07     0.00   0.00   0.00    -0.00  -0.00  -0.00
   4  16    -0.00  -0.00   0.00    -0.01   0.00   0.00    -0.00   0.00   0.00
   5   6    -0.04   0.01  -0.03    -0.12   0.03   0.14    -0.12   0.03   0.14
   6   6    -0.10  -0.03  -0.01     0.00  -0.00  -0.00     0.00  -0.00  -0.00
   7   6    -0.06   0.05  -0.06     0.00   0.00  -0.00     0.00   0.00  -0.00
   8   1    -0.25  -0.23   0.11    -0.01   0.01  -0.02     0.02  -0.01   0.02
   9   1     0.07   0.08   0.14    -0.01   0.00   0.01     0.01  -0.00  -0.01
  10   1    -0.26   0.02  -0.19     0.00   0.01  -0.00    -0.00  -0.01   0.00
  11   1    -0.01   0.01   0.01     0.46  -0.18   0.48    -0.45   0.18  -0.47
  12   1     0.07  -0.10   0.19    -0.01   0.00   0.01     0.01  -0.00  -0.01
  13   1    -0.11   0.12  -0.13     0.00  -0.01  -0.01    -0.00   0.01   0.01
  14   1    -0.23   0.13   0.22    -0.01   0.01  -0.02     0.01  -0.01   0.02
  15   1     0.01  -0.01   0.01     0.45  -0.12  -0.49     0.46  -0.12  -0.50
  16   1     0.26  -0.00  -0.18     0.00   0.01   0.00     0.00   0.01   0.00
  17   1     0.25   0.21   0.14    -0.01   0.00   0.02    -0.02   0.00   0.03
  18   1    -0.07  -0.10   0.13    -0.01   0.00  -0.01    -0.01   0.00  -0.01
  19   1     0.11  -0.10  -0.15     0.00  -0.01   0.01     0.00  -0.01   0.01
  20   1     0.23  -0.15   0.21    -0.01   0.01   0.02    -0.01   0.01   0.02
  21   1    -0.07   0.08   0.21    -0.01   0.00  -0.01    -0.01   0.00  -0.01
                     46                     47                     48
                        a                      a                      a 
 Frequencies --  3016.5907              3016.8523              3019.1369
 Red. masses --     1.8568                 1.8435                 1.8338
 Frc consts  --     0.0000                 0.0000                 0.0000
 IR Inten    --     0.4617                38.0599               181.4459
 Raman Activ --     0.0000                 0.0000                 0.0000
 Depolar     --     0.0000                 0.0000                 0.0000
 Atom AN      X      Y      Z        X      Y      Z        X      Y      Z
   1   6     0.17  -0.01  -0.04    -0.17   0.01   0.03     0.08  -0.01   0.01
   2   6     0.00  -0.00   0.00    -0.00   0.00  -0.00     0.01  -0.00   0.00
   3   6    -0.10   0.02   0.04     0.06  -0.01  -0.03     0.17  -0.02  -0.05
   4  16    -0.00  -0.00   0.00     0.00   0.00   0.00     0.00   0.00   0.00
   5   6    -0.00   0.00   0.00    -0.01   0.00   0.00     0.01  -0.00  -0.00
   6   6    -0.15   0.01  -0.03    -0.19   0.01  -0.04     0.08  -0.01  -0.01
   7   6     0.09  -0.02   0.03     0.07  -0.01   0.03     0.16  -0.03   0.05
   8   1    -0.05   0.04  -0.11     0.06  -0.04   0.11    -0.07   0.04  -0.11
   9   1    -0.56   0.07   0.20     0.53  -0.06  -0.20    -0.21   0.03   0.08
  10   1    -0.01  -0.08   0.03    -0.00   0.07  -0.02     0.00  -0.02   0.01
  11   1    -0.01   0.00  -0.01     0.01  -0.00   0.01    -0.02   0.01  -0.02
  12   1     0.36  -0.01  -0.12    -0.22   0.00   0.07    -0.59   0.01   0.20
  13   1    -0.01  -0.05  -0.05     0.01   0.02   0.02     0.02   0.06   0.06
  14   1     0.01  -0.01   0.04     0.01  -0.00   0.00    -0.02   0.01  -0.06
  15   1     0.01  -0.00  -0.01     0.01  -0.00  -0.01    -0.02   0.00   0.02
  16   1     0.00   0.07   0.04    -0.00   0.07   0.04     0.00  -0.02  -0.01
  17   1     0.05  -0.02  -0.09     0.07  -0.03  -0.13    -0.07   0.03   0.11
  18   1     0.47  -0.08   0.17     0.60  -0.10   0.22    -0.20   0.03  -0.08
  19   1     0.01   0.05  -0.04     0.01   0.03  -0.02     0.02   0.06  -0.05
  20   1    -0.01   0.00   0.04     0.01  -0.00   0.00    -0.02   0.01   0.06
  21   1    -0.32   0.02  -0.11    -0.26   0.02  -0.09    -0.58   0.03  -0.19
                     49                     50                     51
                        a                      a                      a 
 Frequencies --  3020.1524              3034.9120              3035.2551
 Red. masses --     1.7972                 1.7831                 1.8715
 Frc consts  --     0.0000                 0.0000                 0.0000
 IR Inten    --    22.7333                21.6702                34.8313
 Raman Activ --     0.0000                 0.0000                 0.0000
 Depolar     --     0.0000                 0.0000                 0.0000
 Atom AN      X      Y      Z        X      Y      Z        X      Y      Z
   1   6     0.10  -0.01  -0.02    -0.04   0.09  -0.15     0.05  -0.10   0.15
   2   6     0.01  -0.00   0.00    -0.00   0.00  -0.01     0.00  -0.00   0.01
   3   6     0.15  -0.02  -0.05     0.03   0.04   0.05    -0.02  -0.02  -0.05
   4  16    -0.00  -0.00  -0.00    -0.00  -0.00  -0.00    -0.00  -0.00   0.00
   5   6    -0.01   0.00   0.00    -0.00   0.00   0.01    -0.00   0.00   0.01
   6   6    -0.10   0.01  -0.02    -0.04   0.07   0.15    -0.05   0.09   0.17
   7   6    -0.15   0.02  -0.05     0.03   0.04  -0.04     0.02   0.02  -0.05
   8   1    -0.03   0.02  -0.06     0.36  -0.16   0.44    -0.35   0.16  -0.43
   9   1    -0.33   0.04   0.12    -0.14   0.03   0.03     0.09  -0.03  -0.01
  10   1     0.01  -0.02   0.01    -0.08  -0.18   0.06     0.10   0.22  -0.08
  11   1    -0.02   0.01  -0.02     0.01  -0.01   0.01    -0.01   0.01  -0.01
  12   1    -0.53   0.01   0.17    -0.09   0.01   0.04     0.01  -0.00  -0.01
  13   1     0.02   0.04   0.04     0.03  -0.15  -0.17    -0.02   0.09   0.10
  14   1    -0.00   0.01  -0.04    -0.03   0.02  -0.04     0.07  -0.03   0.09
  15   1     0.02  -0.00  -0.02     0.01  -0.00  -0.01     0.01  -0.01  -0.01
  16   1    -0.01   0.02   0.01    -0.07  -0.16  -0.08    -0.10  -0.22  -0.11
  17   1     0.03  -0.01  -0.07     0.35  -0.10  -0.44     0.37  -0.11  -0.46
  18   1     0.33  -0.05   0.12    -0.14   0.03  -0.02    -0.10   0.03  -0.01
  19   1    -0.02  -0.05   0.04     0.02  -0.17   0.15     0.02  -0.11   0.09
  20   1     0.01  -0.00  -0.04    -0.03   0.01   0.03    -0.08   0.02   0.09
  21   1     0.55  -0.03   0.18    -0.09   0.01  -0.04    -0.02   0.00  -0.01
                     52                     53                     54
                        a                      a                      a 
 Frequencies --  3039.4428              3039.6517              3040.3085
 Red. masses --     1.6213                 1.5979                 1.6019
 Frc consts  --     0.0000                 0.0000                 0.0000
 IR Inten    --    51.5429                49.9634                17.6413
 Raman Activ --     0.0000                 0.0000                 0.0000
 Depolar     --     0.0000                 0.0000                 0.0000
 Atom AN      X      Y      Z        X      Y      Z        X      Y      Z
   1   6     0.03   0.03   0.04     0.04   0.05   0.04    -0.04  -0.14   0.04
   2   6     0.00   0.00   0.01     0.01   0.00   0.01     0.00  -0.00   0.00
   3   6     0.00   0.09   0.11     0.02   0.10   0.13     0.01   0.05   0.06
   4  16     0.00  -0.00  -0.00     0.00  -0.00   0.00     0.00   0.00   0.00
   5   6     0.00   0.00  -0.01    -0.00  -0.00   0.01     0.00  -0.00  -0.01
   6   6     0.04   0.04  -0.04    -0.03  -0.04   0.02    -0.04  -0.13  -0.05
   7   6     0.01   0.12  -0.12    -0.02  -0.10   0.09     0.01   0.05  -0.05
   8   1    -0.15   0.08  -0.19    -0.17   0.09  -0.21     0.04  -0.04   0.06
   9   1     0.10  -0.01  -0.03     0.12  -0.01  -0.04    -0.10  -0.01   0.04
  10   1    -0.06  -0.17   0.08    -0.09  -0.25   0.12     0.20   0.53  -0.23
  11   1    -0.01   0.00  -0.01    -0.01   0.01  -0.01    -0.01   0.00  -0.01
  12   1    -0.03   0.01   0.03    -0.08   0.01   0.05    -0.04   0.01   0.02
  13   1     0.05  -0.34  -0.37     0.06  -0.41  -0.44     0.03  -0.19  -0.21
  14   1    -0.04   0.03  -0.03    -0.05   0.03  -0.05    -0.02   0.02  -0.02
  15   1    -0.01   0.00   0.01     0.01  -0.00  -0.01    -0.01   0.00   0.01
  16   1    -0.07  -0.19  -0.12     0.07   0.19   0.12     0.20   0.50   0.30
  17   1    -0.18   0.06   0.24     0.14  -0.05  -0.18     0.04  -0.03  -0.07
  18   1     0.12  -0.01   0.03    -0.09   0.01  -0.03    -0.10  -0.00  -0.04
  19   1     0.06  -0.47   0.40    -0.05   0.38  -0.32     0.02  -0.20   0.17
  20   1    -0.05   0.03   0.04     0.04  -0.02  -0.04    -0.02   0.01   0.02
  21   1    -0.04   0.02  -0.03     0.07  -0.02   0.04    -0.04   0.01  -0.02
                     55                     56                     57
                        a                      a                      a 
 Frequencies --  3041.3084              3055.1378              3055.5011
 Red. masses --     1.5646                 1.5982                 1.5882
 Frc consts  --     0.0000                 0.0000                 0.0000
 IR Inten    --    17.2723                16.6705                43.3442
 Raman Activ --     0.0000                 0.0000                 0.0000
 Depolar     --     0.0000                 0.0000                 0.0000
 Atom AN      X      Y      Z        X      Y      Z        X      Y      Z
   1   6     0.05   0.12  -0.02    -0.01  -0.00   0.01     0.01  -0.02   0.02
   2   6    -0.00   0.00  -0.00     0.01  -0.00   0.01     0.01  -0.00   0.01
   3   6    -0.00  -0.06  -0.07     0.09  -0.06   0.13     0.08  -0.06   0.11
   4  16    -0.00  -0.00   0.00     0.00  -0.00   0.00    -0.00  -0.00   0.00
   5   6     0.00  -0.00  -0.00     0.00  -0.00  -0.01    -0.01   0.00   0.01
   6   6    -0.05  -0.12  -0.03    -0.01  -0.00  -0.00    -0.01   0.01   0.02
   7   6     0.00   0.06  -0.06     0.09  -0.04  -0.13    -0.09   0.05   0.13
   8   1    -0.08   0.06  -0.12    -0.00   0.00  -0.00    -0.06   0.02  -0.07
   9   1     0.10   0.00  -0.04     0.03  -0.00  -0.01    -0.00  -0.00   0.00
  10   1    -0.18  -0.49   0.21     0.00   0.01  -0.00     0.02   0.04  -0.01
  11   1     0.01  -0.00   0.01    -0.01   0.00  -0.01    -0.02   0.00  -0.01
  12   1     0.02  -0.01  -0.02     0.09  -0.01  -0.01     0.08  -0.01  -0.01
  13   1    -0.03   0.23   0.25     0.01   0.05   0.08     0.00   0.06   0.09
  14   1     0.03  -0.02   0.02    -0.42   0.17  -0.53    -0.39   0.16  -0.49
  15   1    -0.01   0.00   0.01    -0.01   0.00   0.01     0.02  -0.00  -0.02
  16   1     0.18   0.46   0.27     0.00   0.01   0.00    -0.02  -0.04  -0.02
  17   1     0.09  -0.05  -0.13     0.00   0.00   0.00     0.06  -0.01  -0.07
  18   1    -0.10  -0.00  -0.04     0.03  -0.00   0.01    -0.00   0.00   0.00
  19   1     0.03  -0.26   0.22     0.01   0.06  -0.07    -0.00  -0.08   0.09
  20   1    -0.02   0.01   0.02    -0.40   0.10   0.51     0.42  -0.11  -0.54
  21   1    -0.02   0.01  -0.02     0.08  -0.01   0.01    -0.09   0.01  -0.01
