
                                 *****************
                                 * O   R   C   A *
                                 *****************

                                            #,                                       
                                            ###                                      
                                            ####                                     
                                            #####                                    
                                            ######                                   
                                           ########,                                 
                                     ,,################,,,,,                         
                               ,,#################################,,                 
                          ,,##########################################,,             
                       ,#########################################, ''#####,          
                    ,#############################################,,   '####,        
                  ,##################################################,,,,####,       
                ,###########''''           ''''###############################       
              ,#####''   ,,,,##########,,,,          '''####'''          '####       
            ,##' ,,,,###########################,,,                        '##       
           ' ,,###''''                  '''############,,,                           
         ,,##''                                '''############,,,,        ,,,,,,###''
      ,#''                                            '''#######################'''  
     '                                                          ''''####''''         
             ,#######,   #######,   ,#######,      ##                                
            ,#'     '#,  ##    ##  ,#'     '#,    #''#        ,####,   ,####,        
            ##       ##  ##   ,#'  ##            #'  '#       #'       #'  '#        
            ##       ##  #######   ##           ,######,      #####,   #    #        
            '#,     ,#'  ##    ##  '#,     ,#' ,#      #,     #,   #   #,  ,#        
             '#######'   ##     ##  '#######'  #'      '#     '####' # '####'        



                #########################################################
                #                        -***-                          #
                #          Department of theory and spectroscopy        #
                #                                                       #
                #                      Frank Neese                      #
                #                                                       #
                #     Directorship, Architecture, Infrastructure        #
                #                    SHARK, DRIVERS                     #
                #        Core code/Algorithms in most modules           #
                #                                                       #
                #        Max Planck Institute fuer Kohlenforschung      #
                #                Kaiser Wilhelm Platz 1                 #
                #                 D-45470 Muelheim/Ruhr                 #
                #                      Germany                          #
                #                                                       #
                #                  All rights reserved                  #
                #                        -***-                          #
                #########################################################


                         Program Version 6.0.0  -   RELEASE  -


 With contributions from (in alphabetic order):
   Daniel Aravena         : Magnetic Suceptibility
   Michael Atanasov       : Ab Initio Ligand Field Theory (pilot matlab implementation)
   Alexander A. Auer      : GIAO ZORA, VPT2 properties, NMR spectrum
   Ute Becker             : All parallelization in ORCA, NUMFREQ, NUMCALC
   Giovanni Bistoni       : ED, misc. LED, open-shell LED, HFLD
   Martin Brehm           : Molecular dynamics
   Dmytro Bykov           : pre 5.0 version of the SCF Hessian
   Marcos Casanova-Páez   : Triplet and SCS-CIS(D). UHF-(DLPNO)-IP/EA/STEOM-CCSD. UHF-CVS-IP/STEOM-CCSD
   Vijay G. Chilkuri      : MRCI spin determinant printing, contributions to CSF-ICE
   Pauline Colinet        : FMM embedding
   Dipayan Datta          : RHF DLPNO-CCSD density
   Achintya Kumar Dutta   : EOM-CC, STEOM-CC
   Nicolas Foglia         : Exact transition moments, OPA infrastructure, MCD improvements
   Dmitry Ganyushin       : Spin-Orbit,Spin-Spin,Magnetic field MRCI
   Miquel Garcia          : C-PCM and meta-GGA Hessian, CCSD/C-PCM, Gaussian charge scheme
   Tiago L. C. Gouveia    : GS-ROHF, GS-ROCIS
   Yang Guo               : DLPNO-NEVPT2, F12-NEVPT2, CIM, IAO-localization
   Andreas Hansen         : Spin unrestricted coupled pair/coupled cluster methods
   Ingolf Harden          : AUTO-CI MPn and infrastructure 
   Benjamin Helmich-Paris : MC-RPA, TRAH-(SCF,CASSCF), AVAS, COSX integrals, SCF dyn. polar.
   Lee Huntington         : MR-EOM, pCC
   Robert Izsak           : Overlap fitted RIJCOSX, COSX-SCS-MP3, EOM
   Riya Kayal             : Wick's Theorem for AUTO-CI, AUTO-CI UHF-CCSDT
   Emily Kempfer          : AUTO-CI, RHF CISDT and CCSDT
   Christian Kollmar      : KDIIS, OOCD, Brueckner-CCSD(T), CCSD density, CASPT2, CASPT2-K, improved NEVPT2
   Axel Koslowski         : Symmetry handling
   Simone Kossmann        : Meta GGA functionals, TD-DFT gradient, OOMP2, (MP2 Hessian; deprecated post 5.0)
   Lucas Lang             : DCDCAS
   Marvin Lechner         : AUTO-CI (C++ implementation), FIC-MRCC
   Spencer Leger          : CASSCF response
   Dagmar Lenk            : GEPOL surface, SMD, ORCA-2-JSON
   Dimitrios Liakos       : Extrapolation schemes; Compound Job, initial MDCI parallelization
   Dimitrios Manganas     : Further ROCIS development; embedding schemes. LFT, Crystal Embedding
   Dimitrios Pantazis     : SARC Basis sets
   Anastasios Papadopoulos: AUTO-CI, single reference methods and gradients
   Taras Petrenko         : pre 6.0 DFT Hessian and TD-DFT gradient, (ASA, deprecated), ECA, 1-Electron XAS/XES, NRVS
   Peter Pinski           : DLPNO-MP2, DLPNO-MP2 Gradient
   Christoph Reimann      : Effective Core Potentials
   Marius Retegan         : Local ZFS, SOC
   Christoph Riplinger    : Optimizer, TS searches, QM/MM, DLPNO-CCSD(T), (RO)-DLPNO pert. Triples
   Michael Roemelt        : Original ROCIS implementation
   Masaaki Saitow         : Open-shell DLPNO-CCSD energy and density
   Barbara Sandhoefer     : DKH picture change effects
   Kantharuban Sivalingam : CASSCF convergence/infrastructure, NEVPT2 and variants, FIC-MRCI
   Bernardo de Souza      : ESD, SOC TD-DFT
   Georgi Stoychev        : AutoAux, RI-MP2 NMR, DLPNO-MP2 response, X2C
   Van Anh Tran           : RI-MP2 g-tensors
   Willem Van den Heuvel  : Paramagnetic NMR
   Zikuan Wang            : NOTCH, Electric field optimization 
   Frank Wennmohs         : Technical directorship and infrastructure
   Hang Xu                : AUTO-CI-Response properties 


 We gratefully acknowledge several colleagues who have allowed us to
 interface, adapt or use parts of their codes:
   Stefan Grimme, W. Hujo, H. Kruse, P. Pracht,  : VdW corrections, initial TS optimization,
                  C. Bannwarth, S. Ehlert,         DFT functionals, gCP, sTDA/sTD-DF
                  L. Wittmann, M. Mueller
   Ed Valeev, F. Pavosevic, A. Kumar             : LibInt (2-el integral package), F12 methods
   Garnet Chan, S. Sharma, J. Yang, R. Olivares  : DMRG
   Ulf Ekstrom                                   : XCFun DFT Library
   Mihaly Kallay                                 : mrcc  (arbitrary order and MRCC methods)
   Frank Weinhold                                : gennbo (NPA and NBO analysis)
   Simon Mueller                                 : openCOSMO-RS
   Christopher J. Cramer and Donald G. Truhlar   : smd solvation model
   Lars Goerigk                                  : TD-DFT with DH, B97 family of functionals
   V. Asgeirsson, H. Jonsson                     : NEB implementation
   FAccTs GmbH                                   : IRC, NEB, NEB-TS, DLPNO-Multilevel, CI-OPT
                                                   MM, QMMM, 2- and 3-layer-ONIOM, Crystal-QMMM,
                                                   LR-CPCM, SF, NACMEs, symmetry and pop. for TD-DFT,
                                                   nearIR, NL-DFT gradient (VV10), updates on ESD,
                                                   ML-optimized integration grids, MBIS, APM,
                                                   GOAT, DOCKER, SOLVATOR, interface openCOSMO-RS
   S Lehtola, MJT Oliveira, MAL Marques          : LibXC Library
   Liviu Ungur et al                             : ANISO software


 Your calculation uses the libint2 library for the computation of 2-el integrals
 For citations please refer to: http://libint.valeyev.net

 Your ORCA version has been built with support for libXC version: 6.2.2
 For citations please refer to: https://libxc.gitlab.io

 This ORCA versions uses:
   CBLAS   interface :  Fast vector & matrix operations
   LAPACKE interface :  Fast linear algebra routines
   SCALAPACK package :  Parallel linear algebra routines
   Shared memory     :  Shared parallel matrices
   BLAS/LAPACK       :  OpenBLAS 0.3.27  USE64BITINT DYNAMIC_ARCH NO_AFFINITY SkylakeX SINGLE_THREADED
        Core in use  :  SkylakeX
   Copyright (c) 2011-2014, The OpenBLAS Project


Your calculation utilizes the geometrical counterpoise correction gCP
Please cite in your paper:
H.Kruse, S. Grimme J.Chem.Phys., 136, (2012), 154101 
   

Your calculation utilizes the atom-pairwise dispersion correction
based on EEQ partial charges (D4)


================================================================================

----- Orbital basis set information -----
Your calculation utilizes the basis: def2-mTZVPP
   Stefan Grimme, Andreas Hansen, Sebastian Ehlert, and Jan-Michael Mewes 
   J. Chem. Phys. 154, 064103 (2021). DOI: 10.1063/5.0040021

----- AuxJ basis set information -----
Your calculation utilizes the auxiliary basis: def2/J
   F. Weigend, Phys. Chem. Chem. Phys. 8, 1057 (2006).

================================================================================
                                        WARNINGS
                       Please study these warnings very carefully!
================================================================================

Using LibXC functional ID 497 : Re-regularized SCAN exchange by Furness et al
[ 1]  J. W. Furness, A. D. Kaplan, J. Ning, J. P. Perdew, and J. Sun.,  J. Phys. Chem. Lett. 11, 8208-8215 (2020)
[ 2]  J. W. Furness, A. D. Kaplan, J. Ning, J. P. Perdew, and J. Sun.,  J. Phys. Chem. Lett. 11, 9248-9248 (2020)
Using LibXC functional ID 498 : Re-regularized SCAN correlation by Furness et al
[ 1]  J. W. Furness, A. D. Kaplan, J. Ning, J. P. Perdew, and J. Sun.,  J. Phys. Chem. Lett. 11, 8208-8215 (2020)
[ 2]  J. W. Furness, A. D. Kaplan, J. Ning, J. P. Perdew, and J. Sun.,  J. Phys. Chem. Lett. 11, 9248-9248 (2020)
Using LibXC functional ID 497 : Re-regularized SCAN exchange by Furness et al
[ 1]  J. W. Furness, A. D. Kaplan, J. Ning, J. P. Perdew, and J. Sun.,  J. Phys. Chem. Lett. 11, 8208-8215 (2020)
[ 2]  J. W. Furness, A. D. Kaplan, J. Ning, J. P. Perdew, and J. Sun.,  J. Phys. Chem. Lett. 11, 9248-9248 (2020)
Using LibXC functional ID 498 : Re-regularized SCAN correlation by Furness et al
[ 1]  J. W. Furness, A. D. Kaplan, J. Ning, J. P. Perdew, and J. Sun.,  J. Phys. Chem. Lett. 11, 8208-8215 (2020)
[ 2]  J. W. Furness, A. D. Kaplan, J. Ning, J. P. Perdew, and J. Sun.,  J. Phys. Chem. Lett. 11, 9248-9248 (2020)

================================================================================
                                       INPUT FILE
================================================================================
NAME = sp_gas.inp
|  1> ! r2scan-3c def2/J RI DEFGRID2 scfconv6 printgap
|  2> %output
|  3>     printlevel normal
|  4> end
|  5> * xyz 0 1
|  6> C -2.643277058 -1.2274327603 -0.3410678049
|  7> C -2.5738223826 0.2203165669 0.1295991104
|  8> C -1.2563473584 0.5150212131 0.8498268712
|  9> C -0.0860584061 0.4752828456 -0.0994864604
| 10> O -0.0710801072 0.9632236706 -1.2110758592
| 11> O 0.9537946677 -0.1500079044 0.435399848
| 12> C 2.1702705326 -0.2314834722 -0.3271049883
| 13> C 3.3183069251 -0.4892290704 0.630296914
| 14> H -2.5470199324 -1.9089549531 0.5007971469
| 15> H -3.5912544942 -1.4198228682 -0.8360965397
| 16> H -1.8409274398 -1.4341884741 -1.0469559906
| 17> H -3.4018518819 0.4254039505 0.8084416806
| 18> H -2.6578909755 0.8883594558 -0.7295614897
| 19> H -1.0742779785 -0.1967891706 1.6542899855
| 20> H -1.2878322103 1.5220292153 1.271278364
| 21> H 2.0622119529 -1.0456090139 -1.0508718057
| 22> H 2.2976766058 0.7059451482 -0.8783925164
| 23> H 4.2433008399 -0.5670560281 0.068724058
| 24> H 3.4000478186 0.3251011402 1.3442870668
| 25> H 3.1477034322 -1.4144257738 1.1723856361
| 26> *
| 27> 
| 28>                          ****END OF INPUT****
================================================================================

                       ****************************
                       * Single Point Calculation *
                       ****************************

---------------------------------
CARTESIAN COORDINATES (ANGSTROEM)
---------------------------------
  C     -2.643277   -1.227433   -0.341068
  C     -2.573822    0.220317    0.129599
  C     -1.256347    0.515021    0.849827
  C     -0.086058    0.475283   -0.099486
  O     -0.071080    0.963224   -1.211076
  O      0.953795   -0.150008    0.435400
  C      2.170271   -0.231483   -0.327105
  C      3.318307   -0.489229    0.630297
  H     -2.547020   -1.908955    0.500797
  H     -3.591254   -1.419823   -0.836097
  H     -1.840927   -1.434188   -1.046956
  H     -3.401852    0.425404    0.808442
  H     -2.657891    0.888359   -0.729561
  H     -1.074278   -0.196789    1.654290
  H     -1.287832    1.522029    1.271278
  H      2.062212   -1.045609   -1.050872
  H      2.297677    0.705945   -0.878393
  H      4.243301   -0.567056    0.068724
  H      3.400048    0.325101    1.344287
  H      3.147703   -1.414426    1.172386

----------------------------
CARTESIAN COORDINATES (A.U.)
----------------------------
  NO LB      ZA    FRAG     MASS         X           Y           Z
   0 C     6.0000    0    12.011   -4.995070   -2.319512   -0.644525
   1 C     6.0000    0    12.011   -4.863819    0.416338    0.244907
   2 C     6.0000    0    12.011   -2.374152    0.973249    1.605940
   3 C     6.0000    0    12.011   -0.162627    0.898154   -0.188002
   4 O     8.0000    0    15.999   -0.134322    1.820229   -2.288602
   5 O     8.0000    0    15.999    1.802411   -0.283474    0.822786
   6 C     6.0000    0    12.011    4.101217   -0.437440   -0.618139
   7 C     6.0000    0    12.011    6.270691   -0.924509    1.191089
   8 H     1.0000    0     1.008   -4.813170   -3.607402    0.946369
   9 H     1.0000    0     1.008   -6.786487   -2.683076   -1.579993
  10 H     1.0000    0     1.008   -3.478849   -2.710223   -1.978460
  11 H     1.0000    0     1.008   -6.428568    0.803897    1.527733
  12 H     1.0000    0     1.008   -5.022686    1.678756   -1.378671
  13 H     1.0000    0     1.008   -2.030091   -0.371878    3.126155
  14 H     1.0000    0     1.008   -2.433650    2.876218    2.402368
  15 H     1.0000    0     1.008    3.897016   -1.975915   -1.985860
  16 H     1.0000    0     1.008    4.341980    1.334043   -1.659921
  17 H     1.0000    0     1.008    8.018676   -1.071581    0.129870
  18 H     1.0000    0     1.008    6.425159    0.614352    2.540334
  19 H     1.0000    0     1.008    5.948297   -2.672877    2.215488

--------------------------------
INTERNAL COORDINATES (ANGSTROEM)
--------------------------------
 C      0   0   0     0.000000000000     0.00000000     0.00000000
 C      1   0   0     1.523919096114     0.00000000     0.00000000
 C      2   1   0     1.530137018476   111.56712695     0.00000000
 C      3   2   1     1.507431978990   111.52750396    68.35866874
 O      4   3   2     1.214059961313   125.14061498    43.24162328
 O      4   3   2     1.326041590615   111.54301849   222.34701424
 C      6   4   3     1.438007449012   118.43761525   182.19515856
 C      7   6   4     1.516917517343   108.37225137   158.81155171
 H      1   2   3     1.087416447630   110.62588792    58.91346387
 H      1   2   3     1.086613372566   110.40603665   179.15482902
 H      1   2   3     1.088481035997   110.31325067   298.82212976
 H      2   1   3     1.090193066268   109.65878530   239.21014107
 H      2   1   3     1.091561160213   109.56102923   120.29016364
 H      3   2   1     1.089488037433   111.44508029   306.87415925
 H      3   2   1     1.092097877105   109.53708367   186.42191169
 H      7   6   4     1.094675961307   108.01211731   279.68343110
 H      7   6   4     1.094953270451   108.47528817    36.95613332
 H      8   7   6     1.084912369898   109.31476745   179.23297675
 H      8   7   6     1.086092631345   110.14975128   299.29708702
 H      8   7   6     1.085796792406   109.93611821    59.19868773

---------------------------
INTERNAL COORDINATES (A.U.)
---------------------------
 C      0   0   0     0.000000000000     0.00000000     0.00000000
 C      1   0   0     2.879789741908     0.00000000     0.00000000
 C      2   1   0     2.891539912294   111.56712695     0.00000000
 C      3   2   1     2.848633605805   111.52750396    68.35866874
 O      4   3   2     2.294240837041   125.14061498    43.24162328
 O      4   3   2     2.505855448452   111.54301849   222.34701424
 C      6   4   3     2.717440257171   118.43761525   182.19515856
 C      7   6   4     2.866558675527   108.37225137   158.81155171
 H      1   2   3     2.054919279543   110.62588792    58.91346387
 H      1   2   3     2.053401687607   110.40603665   179.15482902
 H      1   2   3     2.056931060002   110.31325067   298.82212976
 H      2   1   3     2.060166328346   109.65878530   239.21014107
 H      2   1   3     2.062751651229   109.56102923   120.29016364
 H      3   2   1     2.058834016932   111.44508029   306.87415925
 H      3   2   1     2.063765899165   109.53708367   186.42191169
 H      7   6   4     2.068637772258   108.01211731   279.68343110
 H      7   6   4     2.069161810594   108.47528817    36.95613332
 H      8   7   6     2.050187258411   109.31476745   179.23297675
 H      8   7   6     2.052417629311   110.14975128   299.29708702
 H      8   7   6     2.051858574738   109.93611821    59.19868773

---------------------
BASIS SET INFORMATION
---------------------
There are 3 groups of distinct atoms

 Group   1 Type C   : 11s6p1d contracted to 5s3p1d pattern {62111/411/1}
 Group   2 Type O   : 11s6p2d contracted to 5s3p2d pattern {62111/411/11}
 Group   3 Type H   : 4s1p contracted to 2s1p pattern {31/1}

Atom   0C    basis set group =>   1
Atom   1C    basis set group =>   1
Atom   2C    basis set group =>   1
Atom   3C    basis set group =>   1
Atom   4O    basis set group =>   2
Atom   5O    basis set group =>   2
Atom   6C    basis set group =>   1
Atom   7C    basis set group =>   1
Atom   8H    basis set group =>   3
Atom   9H    basis set group =>   3
Atom  10H    basis set group =>   3
Atom  11H    basis set group =>   3
Atom  12H    basis set group =>   3
Atom  13H    basis set group =>   3
Atom  14H    basis set group =>   3
Atom  15H    basis set group =>   3
Atom  16H    basis set group =>   3
Atom  17H    basis set group =>   3
Atom  18H    basis set group =>   3
Atom  19H    basis set group =>   3
---------------------------------
AUXILIARY/J BASIS SET INFORMATION
---------------------------------
There are 3 groups of distinct atoms

 Group   1 Type C   : 12s5p4d2f1g contracted to 6s4p3d1f1g pattern {711111/2111/211/2/1}
 Group   2 Type O   : 12s5p4d2f1g contracted to 6s4p3d1f1g pattern {711111/2111/211/2/1}
 Group   3 Type H   : 5s2p1d contracted to 3s1p1d pattern {311/2/1}

Atom   0C    basis set group =>   1
Atom   1C    basis set group =>   1
Atom   2C    basis set group =>   1
Atom   3C    basis set group =>   1
Atom   4O    basis set group =>   2
Atom   5O    basis set group =>   2
Atom   6C    basis set group =>   1
Atom   7C    basis set group =>   1
Atom   8H    basis set group =>   3
Atom   9H    basis set group =>   3
Atom  10H    basis set group =>   3
Atom  11H    basis set group =>   3
Atom  12H    basis set group =>   3
Atom  13H    basis set group =>   3
Atom  14H    basis set group =>   3
Atom  15H    basis set group =>   3
Atom  16H    basis set group =>   3
Atom  17H    basis set group =>   3
Atom  18H    basis set group =>   3
Atom  19H    basis set group =>   3

Checking for AutoStart:
The File: sp_gas.gbw exists
Trying to determine its content:
     ... Fine, the file contains calculation information
     ... Fine, the calculation information was read
     ... Fine, the file contains a basis set
     ... Fine, the basis set was read
     ... Fine, the file contains a geometry
     ... Fine, the geometry was read
     ... Fine, the file contains a set of orbitals
     ... Fine, the orbitals can be read
     => possible old guess file was deleted
     => GBW file was renamed to GES file
     => GES file is set as startup file
     => Guess is set to MORead
     ... now leaving AutoStart

------------------------------------------------------------------------------
                             ORCA STARTUP CALCULATIONS
                           -- RI-GTO INTEGRALS CHOSEN --
------------------------------------------------------------------------------
------------------------------------------------------------------------------
                   ___                                                        
                  /   \      - P O W E R E D   B Y -                         
                 /     \                                                     
                 |  |  |   _    _      __       _____    __    __             
                 |  |  |  | |  | |    /  \     |  _  \  |  |  /  |          
                  \  \/   | |  | |   /    \    | | | |  |  | /  /          
                 / \  \   | |__| |  /  /\  \   | |_| |  |  |/  /          
                |  |  |   |  __  | /  /__\  \  |    /   |      \           
                |  |  |   | |  | | |   __   |  |    \   |  |\   \          
                \     /   | |  | | |  |  |  |  | |\  \  |  | \   \       
                 \___/    |_|  |_| |__|  |__|  |_| \__\ |__|  \__/        
                                                                              
                      - O R C A' S   B I G   F R I E N D -                    
                                      &                                       
                       - I N T E G R A L  F E E D E R -                       
                                                                              
 v1 FN, 2020, v2 2021, v3 2022-2024                                           
------------------------------------------------------------------------------


----------------------
SHARK INTEGRAL PACKAGE
----------------------

Number of atoms                             ...     20
Number of basis functions                   ...    222
Number of shells                            ...    110
Maximum angular momentum                    ...      2
Integral batch strategy                     ... SHARK/LIBINT Hybrid
RI-J (if used) integral strategy            ... SPLIT-RIJ (Revised 2003 algorithm where possible)
Printlevel                                  ...      1
Contraction scheme used                     ... SEGMENTED contraction
Prescreening option                         ... SCHWARTZ
   Thresh                                   ... 1.000e-10
   Tcut                                     ... 1.000e-11
   Tpresel                                  ... 1.000e-11 
Coulomb Range Separation                    ... NOT USED
Exchange Range Separation                   ... NOT USED
Multipole approximations                    ... NOT USED
Finite Nucleus Model                        ... NOT USED
CABS basis                                  ... NOT available
Auxiliary Coulomb fitting basis             ... AVAILABLE
   # of basis functions in Aux-J            ...    524
   # of shells in Aux-J                     ...    180
   Maximum angular momentum in Aux-J        ...      4
Auxiliary J/K fitting basis                 ... NOT available
Auxiliary Correlation fitting basis         ... NOT available
Auxiliary 'external' fitting basis          ... NOT available

Checking pre-screening integrals            ... done (  0.0 sec) Dimension = 110
Check shell pair data                       ... done (  0.0 sec)
Shell pair information
Shell pair cut-off parameter TPreSel        ...   1.0e-11
Total number of shell pairs                 ...      6105
Shell pairs after pre-screening             ...      5251
Total number of primitive shell pairs       ...     21533
Primitive shell pairs kept                  ...     13061
          la=0 lb=0:   1764 shell pairs
          la=1 lb=0:   1979 shell pairs
          la=1 lb=1:    580 shell pairs
          la=2 lb=0:    560 shell pairs
          la=2 lb=1:    317 shell pairs
          la=2 lb=2:     51 shell pairs

Calculating one electron integrals          ... done (  0.0 sec)
Calculating RI/J V-Matrix + Cholesky decomp.... done (  0.1 sec)
Calculating Nuclear repulsion               ... done (  0.0 sec) ENN=    391.451622253805 Eh

Diagonalization of the overlap matrix:
Smallest eigenvalue                        ... 1.796e-04
Time for diagonalization                   ...    0.011 sec
Threshold for overlap eigenvalues          ... 1.000e-07
Number of eigenvalues below threshold      ... 0
Time for construction of square roots      ...    0.020 sec
Total time needed                          ...    0.044 sec

-------------------
DFT GRID GENERATION
-------------------

General Integration Accuracy     IntAcc      ... 4.388
Radial Grid Type                 RadialGrid  ... OptM3 with GC (2021)
Angular Grid (max. ang.)         AngularGrid ... 4 (Lebedev-302)
Angular grid pruning method      GridPruning ... 4 (adaptive)
Weight generation scheme         WeightScheme... mBecke (2022)
Basis function cutoff            BFCut       ... 1.0000e-10
Integration weight cutoff        WCut        ... 1.0000e-14
Partially contracted basis set               ... off
Rotationally invariant grid construction     ... off
Angular grids for H and He will be reduced by one unit
Diffuse basis detected: some atoms will have their outermost
                        angular grid increased by 1.

Total number of grid points                  ...    87454
Total number of batches                      ...     1376
Average number of points per batch           ...       63
Average number of grid points per atom       ...     4373
Initializing property integral containers    ... done (  0.0 sec)

SHARK setup successfully completed in   1.5 seconds

Maximum memory used throughout the entire STARTUP-calculation: 39.3 MB
-------------------------------------------------------------------------------
                                 ORCA GUESS
                   Start orbitals & Density for SCF / CASSCF
-------------------------------------------------------------------------------

------------
SCF SETTINGS
------------
Hamiltonian:
 Density Functional     Method          .... DFT(GTOs)
  Functional kind                       .... Exchange
  Functional name                       .... Re-regularized SCAN exchange by Furness et al
  Functional family                     .... MGGA
  Functional refs                              
    [ 0] J. W. Furness, A. D. Kaplan, J. Ning, J. P. Perdew, and J. Sun.,  J. Phys. Chem. Lett. 11, 8208-8215 (2020), doi: 10.1021/acs.jpclett.0c02405
    [ 1] J. W. Furness, A. D. Kaplan, J. Ning, J. P. Perdew, and J. Sun.,  J. Phys. Chem. Lett. 11, 9248-9248 (2020), doi: 10.1021/acs.jpclett.0c03077
  Functional external parameters        .... 6
    Parameter  0 _c1        =  6.670000e-01 : c1 parameter        
    Parameter  1 _c2        =  8.000000e-01 : c2 parameter        
    Parameter  2 _d         =  1.240000e+00 : d parameter         
    Parameter  3 _k1        =  6.500000e-02 : k1 parameter        
    Parameter  4 _eta       =  1.000000e-03 : eta parameter       
    Parameter  5 _dp2       =  3.610000e-01 : dp2 parameter       
  Functional kind                       .... Correlation
  Functional name                       .... Re-regularized SCAN correlation by Furness et al
  Functional family                     .... MGGA
  Functional refs                              
    [ 0] J. W. Furness, A. D. Kaplan, J. Ning, J. P. Perdew, and J. Sun.,  J. Phys. Chem. Lett. 11, 8208-8215 (2020), doi: 10.1021/acs.jpclett.0c02405
    [ 1] J. W. Furness, A. D. Kaplan, J. Ning, J. P. Perdew, and J. Sun.,  J. Phys. Chem. Lett. 11, 9248-9248 (2020), doi: 10.1021/acs.jpclett.0c03077
  Functional external parameters        .... 1
    Parameter  0 _eta       =  1.000000e-03 : Regularization parameter
 Gradients option       PostSCFGGA      .... off
 RI-approximation to the Coulomb term is turned on
   Number of AuxJ basis functions       .... 524


General Settings:
 Integral files         IntName         .... sp_gas
 Hartree-Fock type      HFTyp           .... RHF
 Total Charge           Charge          ....    0
 Multiplicity           Mult            ....    1
 Number of Electrons    NEL             ....   64
 Basis Dimension        Dim             ....  222
 Nuclear Repulsion      ENuc            ....    391.4516222538 Eh

Convergence Acceleration:
 AO-DIIS                CNVDIIS         .... on
   Start iteration      DIISMaxIt       ....    12
   Startup error        DIISStart       ....  0.200000
   # of expansion vecs  DIISMaxEq       ....     5
   Bias factor          DIISBfac        ....   1.050
   Max. coefficient     DIISMaxC        ....  10.000
 MO-DIIS                CNVKDIIS        .... off
 Trust-Rad. Augm. Hess. CNVTRAH         .... auto
   Auto Start mean grad. ratio tolernc. ....  1.125000
   Auto Start start iteration           ....     1
   Auto Start num. interpolation iter.  ....    10
   Max. Number of Micro iterations      ....    24
   Max. Number of Macro iterations      .... Maxiter - #DIIS iter
   Number of Davidson start vectors     ....     2
   Converg. threshold    (grad. norm)   ....   3.330e-04
   Grad. Scal. Fac. for Micro threshold ....   0.100
   Minimum threshold for Micro iter.    ....   1.000e-02
   NR start threshold (gradient norm)   ....   1.000e-04
   Initial trust radius                 ....   0.400
   Minimum AH scaling param. (alpha)    ....   1.000
   Maximum AH scaling param. (alpha)    .... 1000.000
   Quad. conv. algorithm                .... NR
   White noise on init. David. guess    .... on
   Maximum white noise                  ....   0.010
   Pseudo random numbers                .... off
   Inactive MOs                         .... canonical
   Orbital update algorithm             .... Taylor
   Preconditioner                       .... Diag
   Full preconditioner red. dimension   ....   250
   COSX micro iterations for RIJONX calc.... off
 SOSCF                  CNVSOSCF        .... on
   Start iteration      SOSCFMaxIt      ....   150
   Startup grad/error   SOSCFStart      ....  0.003300
   Hessian update       SOSCFHessUp     .... L-BFGS
 Level Shifting         CNVShift        .... on
   Level shift para.    LevelShift      ....    0.2500
   Turn off err/grad.   ShiftErr        ....    0.0010
 Zerner damping         CNVZerner       .... off
 Static damping         CNVDamp         .... on
   Fraction old density DampFac         ....    0.7000
   Max. Damping (<1)    DampMax         ....    0.9800
   Min. Damping (>=0)   DampMin         ....    0.0000
   Turn off err/grad.   DampErr         ....    0.1000

SCF Procedure:
 Maximum # iterations   MaxIter         ....   125
 SCF integral mode      SCFMode         .... Direct
   Integral package                     .... SHARK and LIBINT hybrid scheme
 Reset frequency        DirectResetFreq ....    20
 Integral Threshold     Thresh          ....  1.000e-10 Eh
 Primitive CutOff       TCut            ....  1.000e-11 Eh

Convergence Tolerance:
 Convergence Check Mode ConvCheckMode   .... Total+1el-Energy
 Convergence forced     ConvForced      .... 0
 Energy Change          TolE            ....  1.000e-06 Eh
 1-El. energy change                    ....  1.000e-03 Eh
 Orbital Gradient       TolG            ....  3.330e-04
 Orbital Rotation angle TolX            ....  3.330e-04
 DIIS Error             TolErr          ....  1.000e-06

---------------------
INITIAL GUESS: MOREAD
---------------------
Guess MOs are being read from file: sp_gas.ges
Input Geometry matches current geometry (good)
Atom 0: N(Shells)= 9 and 6 - projection required
Input basis set needs projection
NBasis(read)= 136
NBasis(calc)= 222
Basis set overlap was calculated
Using GuessMode=FMatrix for the initial guess
C*T matrix was formed
Effective Fockian was calculated
Effective Fockian was diagonalized
Initial density was built
                      ------------------
                      INITIAL GUESS DONE (   0.1 sec)
                      ------------------
             **** ENERGY FILE WAS UPDATED (sp_gas.en.tmp) ****
Finished Guess after   0.4 sec
Maximum memory used throughout the entire GUESS-calculation: 15.0 MB

-------------------------------------------------------------------------------------------
                                      ORCA LEAN-SCF
                              memory conserving SCF solver
-------------------------------------------------------------------------------------------

----------------------------------------D-I-I-S--------------------------------------------
Iteration    Energy (Eh)           Delta-E    RMSDP     MaxDP     DIISErr   Damp  Time(sec)
-------------------------------------------------------------------------------------------
               ***  Starting incremental Fock matrix formation  ***
    1    -386.0476129819703033     0.00e+00  3.72e-03  1.34e-01  6.26e-01  0.700   3.1
    2    -386.1057008352042317    -5.81e-02  3.03e-03  9.88e-02  4.40e-01  0.700   2.9
    3    -386.1467537290502037    -4.11e-02  2.23e-03  6.99e-02  3.09e-01  0.700   3.2
    4    -386.1755715500103747    -2.88e-02  1.59e-03  4.92e-02  2.16e-01  0.700   2.9
                               ***Turning on AO-DIIS***
    5    -386.1957828148085241    -2.02e-02  1.15e-03  3.52e-02  1.51e-01  0.700   3.0
    6    -386.2099490661614141    -1.42e-02  8.16e-04  2.48e-02  1.06e-01  0.700   2.7
    7    -386.2198788412104591    -9.93e-03  5.75e-04  1.74e-02  7.41e-02  0.700   2.8
    8    -386.2268354657695113    -6.96e-03  1.35e-03  4.06e-02  5.19e-02  0.000   3.2
                              *** Initializing SOSCF ***
---------------------------------------S-O-S-C-F--------------------------------------
Iteration    Energy (Eh)           Delta-E    RMSDP     MaxDP     MaxGrad    Time(sec)
--------------------------------------------------------------------------------------
    9    -386.2430876048210280    -1.63e-02  7.84e-06  2.84e-04  9.08e-05     3.0
               *** Restarting incremental Fock matrix formation ***
   10    -386.2430877569178733    -1.52e-07  4.91e-06  1.43e-04  3.89e-05     3.0
                  *** Gradient check signals convergence ***

               *****************************************************
               *                     SUCCESS                       *
               *           SCF CONVERGED AFTER  10 CYCLES          *
               *****************************************************

             **** ENERGY FILE WAS UPDATED (sp_gas.en.tmp) ****

----------------
TOTAL SCF ENERGY
----------------

Total Energy       :       -386.24308775691787 Eh          -10510.20875 eV

Components:
Nuclear Repulsion  :        391.45162225380506 Eh           10651.94018 eV
Electronic Energy  :       -777.69471001072293 Eh          -21162.14892 eV
One Electron Energy:      -1300.08156855679226 Eh          -35377.01801 eV
Two Electron Energy:        522.38685854606933 Eh           14214.86909 eV

Virial components:
Potential Energy   :       -770.88458319244000 Eh          -20976.83595 eV
Kinetic Energy     :        384.64149543552207 Eh           10466.62720 eV
Virial Ratio       :          2.00416385735913

DFT components:
N(Alpha)           :       32.000023841825 electrons
N(Beta)            :       32.000023841825 electrons
N(Total)           :       64.000047683650 electrons
E(X)               :      -52.078092867392 Eh       
E(C)               :       -2.037274840044 Eh       
E(XC)              :      -54.115367707436 Eh       

---------------
SCF CONVERGENCE
---------------

  Last Energy change         ...    1.5210e-07  Tolerance :   1.0000e-06
  Last MAX-Density change    ...    1.4311e-04  Tolerance :   1.0000e-05
  Last RMS-Density change    ...    4.9060e-06  Tolerance :   1.0000e-06
  Last DIIS Error            ...    9.0767e-05  Tolerance :   1.0000e-06
  Last Orbital Gradient      ...    3.8901e-05  Tolerance :   3.3300e-04
  Last Orbital Rotation      ...    1.5131e-04  Tolerance :   3.3300e-04


----------------
ORBITAL ENERGIES
----------------

  NO   OCC          E(Eh)            E(eV) 
   0   2.0000     -18.996802      -516.9293 
   1   2.0000     -18.926991      -515.0296 
   2   2.0000     -10.150973      -276.2220 
   3   2.0000     -10.090972      -274.5893 
   4   2.0000     -10.040504      -273.2160 
   5   2.0000     -10.032116      -272.9877 
   6   2.0000     -10.031462      -272.9700 
   7   2.0000     -10.017634      -272.5937 
   8   2.0000      -1.071305       -29.1517 
   9   2.0000      -0.974417       -26.5152 
  10   2.0000      -0.772246       -21.0139 
  11   2.0000      -0.742878       -20.2147 
  12   2.0000      -0.677465       -18.4348 
  13   2.0000      -0.617841       -16.8123 
  14   2.0000      -0.564201       -15.3527 
  15   2.0000      -0.528041       -14.3687 
  16   2.0000      -0.472084       -12.8461 
  17   2.0000      -0.462606       -12.5882 
  18   2.0000      -0.431302       -11.7363 
  19   2.0000      -0.429013       -11.6740 
  20   2.0000      -0.407558       -11.0902 
  21   2.0000      -0.379981       -10.3398 
  22   2.0000      -0.377855       -10.2820 
  23   2.0000      -0.365429        -9.9438 
  24   2.0000      -0.361108        -9.8262 
  25   2.0000      -0.335258        -9.1228 
  26   2.0000      -0.320478        -8.7207 
  27   2.0000      -0.308831        -8.4037 
  28   2.0000      -0.307283        -8.3616 
  29   2.0000      -0.305097        -8.3021 
  30   2.0000      -0.271589        -7.3903 
  31   2.0000      -0.235171        -6.3993 
  32   0.0000      -0.014440        -0.3929 
  33   0.0000       0.074631         2.0308 
  34   0.0000       0.095898         2.6095 
  35   0.0000       0.104661         2.8480 
  36   0.0000       0.124343         3.3836 
  37   0.0000       0.131255         3.5716 
  38   0.0000       0.136896         3.7251 
  39   0.0000       0.141086         3.8391 
  40   0.0000       0.146733         3.9928 
  41   0.0000       0.161446         4.3932 
  42   0.0000       0.162729         4.4281 
*Only the first 10 virtual orbitals were printed.

                    ********************************
                    * MULLIKEN POPULATION ANALYSIS *
                    ********************************

-----------------------
MULLIKEN ATOMIC CHARGES
-----------------------
   0 C :   -0.496796
   1 C :   -0.207129
   2 C :   -0.296546
   3 C :    0.332141
   4 O :   -0.426232
   5 O :   -0.162288
   6 C :   -0.154510
   7 C :   -0.441440
   8 H :    0.143616
   9 H :    0.148042
  10 H :    0.157847
  11 H :    0.142399
  12 H :    0.159742
  13 H :    0.164438
  14 H :    0.166790
  15 H :    0.147672
  16 H :    0.170836
  17 H :    0.146938
  18 H :    0.152494
  19 H :    0.151987
Sum of atomic charges:    0.0000000

--------------------------------
MULLIKEN REDUCED ORBITAL CHARGES
--------------------------------
  0 C s       :     3.336009  s :     3.336009
      pz      :     1.074182  p :     3.133711
      px      :     1.109797
      py      :     0.949732
      dz2     :     0.002196  d :     0.027076
      dxz     :     0.006260
      dyz     :     0.007833
      dx2y2   :     0.007484
      dxy     :     0.003303

  1 C s       :     3.178986  s :     3.178986
      pz      :     1.059099  p :     2.991415
      px      :     0.970109
      py      :     0.962207
      dz2     :     0.003785  d :     0.036728
      dxz     :     0.008654
      dyz     :     0.009027
      dx2y2   :     0.009893
      dxy     :     0.005369

  2 C s       :     3.217864  s :     3.217864
      pz      :     0.975464  p :     3.043680
      px      :     0.945722
      py      :     1.122494
      dz2     :     0.003845  d :     0.035002
      dxz     :     0.011042
      dyz     :     0.006976
      dx2y2   :     0.009362
      dxy     :     0.003778

  3 C s       :     3.173598  s :     3.173598
      pz      :     0.760418  p :     2.369137
      px      :     0.851727
      py      :     0.756992
      dz2     :     0.027313  d :     0.125124
      dxz     :     0.043404
      dyz     :     0.021090
      dx2y2   :     0.015641
      dxy     :     0.017676

  4 O s       :     3.841227  s :     3.841227
      pz      :     1.326079  p :     4.565240
      px      :     1.776086
      py      :     1.463075
      dz2     :     0.006334  d :     0.019765
      dxz     :     0.000694
      dyz     :     0.009070
      dx2y2   :     0.002754
      dxy     :     0.000914

  5 O s       :     3.701697  s :     3.701697
      pz      :     1.641768  p :     4.430301
      px      :     1.136136
      py      :     1.652397
      dz2     :     0.004336  d :     0.030291
      dxz     :     0.015624
      dyz     :     0.010171
      dx2y2   :     0.001467
      dxy     :    -0.001307

  6 C s       :     3.286495  s :     3.286495
      pz      :     0.936823  p :     2.814421
      px      :     0.758373
      py      :     1.119225
      dz2     :     0.005730  d :     0.053595
      dxz     :     0.015353
      dyz     :     0.012108
      dx2y2   :     0.013234
      dxy     :     0.007169

  7 C s       :     3.310000  s :     3.310000
      pz      :     1.018566  p :     3.105633
      px      :     0.991925
      py      :     1.095142
      dz2     :     0.001406  d :     0.025807
      dxz     :     0.007733
      dyz     :     0.008005
      dx2y2   :     0.006720
      dxy     :     0.001944

  8 H s       :     0.838156  s :     0.838156
      pz      :     0.007848  p :     0.018228
      px      :     0.003766
      py      :     0.006614

  9 H s       :     0.833634  s :     0.833634
      pz      :     0.005264  p :     0.018323
      px      :     0.009171
      py      :     0.003888

 10 H s       :     0.823955  s :     0.823955
      pz      :     0.006789  p :     0.018198
      px      :     0.007562
      py      :     0.003847

 11 H s       :     0.839657  s :     0.839657
      pz      :     0.006248  p :     0.017945
      px      :     0.007899
      py      :     0.003797

 12 H s       :     0.822317  s :     0.822317
      pz      :     0.008353  p :     0.017941
      px      :     0.003337
      py      :     0.006251

 13 H s       :     0.817745  s :     0.817745
      pz      :     0.007677  p :     0.017817
      px      :     0.003470
      py      :     0.006669

 14 H s       :     0.815003  s :     0.815003
      pz      :     0.004744  p :     0.018207
      px      :     0.003598
      py      :     0.009866

 15 H s       :     0.834952  s :     0.834952
      pz      :     0.007008  p :     0.017376
      px      :     0.002513
      py      :     0.007855

 16 H s       :     0.811350  s :     0.811350
      pz      :     0.005535  p :     0.017814
      px      :     0.002713
      py      :     0.009566

 17 H s       :     0.834620  s :     0.834620
      pz      :     0.005392  p :     0.018443
      px      :     0.009248
      py      :     0.003803

 18 H s       :     0.829265  s :     0.829265
      pz      :     0.006964  p :     0.018240
      px      :     0.003563
      py      :     0.007713

 19 H s       :     0.829743  s :     0.829743
      pz      :     0.005573  p :     0.018270
      px      :     0.003708
      py      :     0.008989


------------------------
MULLIKEN OVERLAP CHARGES
------------------------
B(  0-C ,  1-C ) :   0.4472 B(  0-C ,  2-C ) :  -0.2134 B(  0-C ,  8-H ) :   0.8536 
B(  0-C ,  9-H ) :   0.7878 B(  0-C , 10-H ) :   0.8460 B(  0-C , 11-H ) :  -0.0510 
B(  1-C ,  2-C ) :   0.4256 B(  1-C ,  3-C ) :  -0.1072 B(  1-C ,  8-H ) :  -0.0993 
B(  1-C ,  9-H ) :  -0.0667 B(  1-C , 10-H ) :  -0.0885 B(  1-C , 11-H ) :   0.8236 
B(  1-C , 12-H ) :   0.8254 B(  1-C , 13-H ) :  -0.0930 B(  1-C , 14-H ) :  -0.0581 
B(  2-C ,  3-C ) :   0.2555 B(  2-C ,  4-O ) :  -0.1472 B(  2-C ,  5-O ) :  -0.0771 
B(  2-C , 11-H ) :  -0.1125 B(  2-C , 13-H ) :   0.9183 B(  2-C , 14-H ) :   0.7304 
B(  3-C ,  4-O ) :   0.9467 B(  3-C ,  5-O ) :   0.4055 B(  3-C ,  6-C ) :  -0.2194 
B(  3-C , 10-H ) :   0.0554 B(  3-C , 13-H ) :  -0.1669 B(  4-O ,  5-O ) :  -0.2258 
B(  5-O ,  6-C ) :   0.2568 B(  5-O ,  7-C ) :  -0.0831 B(  5-O , 15-H ) :  -0.0757 
B(  5-O , 16-H ) :  -0.0689 B(  6-C ,  7-C ) :   0.4547 B(  6-C , 15-H ) :   0.7642 
B(  6-C , 16-H ) :   0.8608 B(  6-C , 17-H ) :  -0.0784 B(  6-C , 18-H ) :  -0.0799 
B(  7-C , 16-H ) :  -0.0689 B(  7-C , 17-H ) :   0.8206 B(  7-C , 18-H ) :   0.8382 
B(  7-C , 19-H ) :   0.8088 B(  8-H , 10-H ) :  -0.0507 B( 15-H , 16-H ) :  -0.0595 



                     *******************************
                     * LOEWDIN POPULATION ANALYSIS *
                     *******************************

----------------------
LOEWDIN ATOMIC CHARGES
----------------------
   0 C :   -0.417062
   1 C :   -0.296137
   2 C :   -0.232944
   3 C :    0.355035
   4 O :   -0.436961
   5 O :   -0.597918
   6 C :    0.032623
   7 C :   -0.386830
   8 H :    0.149415
   9 H :    0.152847
  10 H :    0.156627
  11 H :    0.152420
  12 H :    0.168998
  13 H :    0.177738
  14 H :    0.182719
  15 H :    0.175419
  16 H :    0.186717
  17 H :    0.159336
  18 H :    0.159044
  19 H :    0.158913

-------------------------------
LOEWDIN REDUCED ORBITAL CHARGES
-------------------------------
  0 C s       :     2.970743  s :     2.970743
      pz      :     1.148009  p :     3.383136
      px      :     1.154655
      py      :     1.080472
      dz2     :     0.004977  d :     0.063183
      dxz     :     0.015565
      dyz     :     0.018114
      dx2y2   :     0.018167
      dxy     :     0.006360

  1 C s       :     2.934546  s :     2.934546
      pz      :     1.125435  p :     3.282066
      px      :     1.067109
      py      :     1.089523
      dz2     :     0.007704  d :     0.079525
      dxz     :     0.020065
      dyz     :     0.019685
      dx2y2   :     0.022200
      dxy     :     0.009872

  2 C s       :     2.922701  s :     2.922701
      pz      :     1.074735  p :     3.236076
      px      :     1.030067
      py      :     1.131273
      dz2     :     0.007492  d :     0.074167
      dxz     :     0.022691
      dyz     :     0.016981
      dx2y2   :     0.020592
      dxy     :     0.006411

  3 C s       :     2.736514  s :     2.736514
      pz      :     0.963954  p :     2.635984
      px      :     0.905100
      py      :     0.766931
      dz2     :     0.060147  d :     0.272466
      dxz     :     0.094809
      dyz     :     0.047220
      dx2y2   :     0.031508
      dxy     :     0.038782

  4 O s       :     3.548176  s :     3.548176
      pz      :     1.480780  p :     4.668102
      px      :     1.715877
      py      :     1.471445
      dz2     :     0.070143  d :     0.220683
      dxz     :     0.056964
      dyz     :     0.053284
      dx2y2   :     0.022592
      dxy     :     0.017701

  5 O s       :     3.464298  s :     3.464298
      pz      :     1.646912  p :     4.657494
      px      :     1.349328
      py      :     1.661253
      dz2     :     0.075740  d :     0.476126
      dxz     :     0.125238
      dyz     :     0.064644
      dx2y2   :     0.113446
      dxy     :     0.097057

  6 C s       :     2.868250  s :     2.868250
      pz      :     1.001286  p :     2.979014
      px      :     0.872225
      py      :     1.105504
      dz2     :     0.010189  d :     0.120113
      dxz     :     0.036342
      dyz     :     0.029357
      dx2y2   :     0.030682
      dxy     :     0.013544

  7 C s       :     2.971803  s :     2.971803
      pz      :     1.118859  p :     3.354171
      px      :     1.079426
      py      :     1.155886
      dz2     :     0.002769  d :     0.060856
      dxz     :     0.018553
      dyz     :     0.019878
      dx2y2   :     0.016158
      dxy     :     0.003497

  8 H s       :     0.807224  s :     0.807224
      pz      :     0.019356  p :     0.043361
      px      :     0.008305
      py      :     0.015700

  9 H s       :     0.803672  s :     0.803672
      pz      :     0.012185  p :     0.043481
      px      :     0.022635
      py      :     0.008661

 10 H s       :     0.799521  s :     0.799521
      pz      :     0.016430  p :     0.043852
      px      :     0.018694
      py      :     0.008728

 11 H s       :     0.804283  s :     0.804283
      pz      :     0.015457  p :     0.043298
      px      :     0.018932
      py      :     0.008908

 12 H s       :     0.786923  s :     0.786923
      pz      :     0.021049  p :     0.044079
      px      :     0.007550
      py      :     0.015480

 13 H s       :     0.778203  s :     0.778203
      pz      :     0.019098  p :     0.044059
      px      :     0.008216
      py      :     0.016746

 14 H s       :     0.772876  s :     0.772876
      pz      :     0.010932  p :     0.044405
      px      :     0.008724
      py      :     0.024750

 15 H s       :     0.784134  s :     0.784134
      pz      :     0.015751  p :     0.040447
      px      :     0.006043
      py      :     0.018653

 16 H s       :     0.770791  s :     0.770791
      pz      :     0.012523  p :     0.042492
      px      :     0.006272
      py      :     0.023697

 17 H s       :     0.796813  s :     0.796813
      pz      :     0.013074  p :     0.043851
      px      :     0.022392
      py      :     0.008385

 18 H s       :     0.797592  s :     0.797592
      pz      :     0.016694  p :     0.043365
      px      :     0.007643
      py      :     0.019028

 19 H s       :     0.797661  s :     0.797661
      pz      :     0.013024  p :     0.043426
      px      :     0.008166
      py      :     0.022236


---------------------------------
LOEWDIN BOND ORDERS (THRESH 0.050000)
---------------------------------
B(  0-C ,  1-C ) :   1.1415 B(  0-C ,  2-C ) :   0.0672 B(  0-C ,  8-H ) :   0.9300 
B(  0-C ,  9-H ) :   0.9297 B(  0-C , 10-H ) :   0.9212 B(  1-C ,  2-C ) :   1.0892 
B(  1-C ,  3-C ) :   0.0687 B(  1-C , 11-H ) :   0.8944 B(  1-C , 12-H ) :   0.8847 
B(  2-C ,  3-C ) :   0.9218 B(  2-C ,  4-O ) :   0.1791 B(  2-C ,  5-O ) :   0.1862 
B(  2-C , 13-H ) :   0.8640 B(  2-C , 14-H ) :   0.8615 B(  3-C ,  4-O ) :   2.1640 
B(  3-C ,  5-O ) :   1.4569 B(  3-C ,  6-C ) :   0.0881 B(  4-O ,  5-O ) :   0.4625 
B(  4-O ,  6-C ) :   0.0715 B(  5-O ,  6-C ) :   1.2916 B(  5-O ,  7-C ) :   0.1684 
B(  5-O , 15-H ) :   0.0953 B(  5-O , 16-H ) :   0.0915 B(  6-C ,  7-C ) :   1.0918 
B(  6-C , 15-H ) :   0.8302 B(  6-C , 16-H ) :   0.8175 B(  7-C , 17-H ) :   0.9194 
B(  7-C , 18-H ) :   0.9235 B(  7-C , 19-H ) :   0.9220 

------------------------------------------
LOEWDIN REDUCED ORBITAL POPULATIONS PER MO
-------------------------------------------
THRESHOLD FOR PRINTING IS 0.1%%
                      0         1         2         3         4         5   
                 -18.99680 -18.92699 -10.15097 -10.09097 -10.04050 -10.03212
                   2.00000   2.00000   2.00000   2.00000   2.00000   2.00000
                  --------  --------  --------  --------  --------  --------
 2 C  s               0.0       0.0       0.0       0.0      99.7       0.0
 3 C  s               0.0       0.0      98.9       0.0       0.0       0.0
 4 O  s               0.0      99.9       0.0       0.0       0.0       0.0
 4 O  pz              0.0       0.0       0.2       0.0       0.0       0.0
 4 O  dz2             0.0       0.0       0.2       0.0       0.0       0.0
 4 O  dyz             0.0       0.0       0.1       0.0       0.0       0.0
 5 O  s              99.9       0.0       0.0       0.0       0.0       0.0
 5 O  dxz             0.0       0.0       0.1       0.2       0.0       0.0
 5 O  dx2y2           0.0       0.0       0.0       0.1       0.0       0.0
 5 O  dxy             0.0       0.0       0.1       0.0       0.0       0.0
 6 C  s               0.0       0.0       0.0      99.4       0.0       0.0
 7 C  s               0.0       0.0       0.0       0.0       0.0      99.7

                      6         7         8         9        10        11   
                 -10.03146 -10.01763  -1.07130  -0.97442  -0.77225  -0.74288
                   2.00000   2.00000   2.00000   2.00000   2.00000   2.00000
                  --------  --------  --------  --------  --------  --------
 0 C  s               0.0      99.7       0.0       0.0       7.7       5.7
 0 C  pz              0.0       0.0       0.0       0.0       0.3       0.1
 0 C  py              0.1       0.0       0.0       0.0       1.8       0.8
 1 C  s              99.7       0.0       0.1       0.1      17.4       8.3
 1 C  pz              0.0       0.0       0.0       0.0       0.2       0.0
 1 C  px              0.0       0.0       0.2       0.1       1.5       0.1
 1 C  py              0.0       0.1       0.0       0.0       0.2       0.3
 2 C  s               0.0       0.0       1.0       0.3      19.8       1.9
 2 C  pz              0.0       0.0       0.6       0.5       0.6       0.2
 2 C  px              0.1       0.0       1.4       0.0       0.5       2.3
 2 C  py              0.0       0.0       0.0       0.0       0.2       0.0
 3 C  s               0.0       0.0      16.1       4.2       2.8       0.8
 3 C  pz              0.0       0.0       0.2      15.3       5.6       0.6
 3 C  px              0.0       0.0       4.5       2.5       3.8       1.3
 3 C  py              0.0       0.0       0.4       5.3       0.3       0.5
 3 C  dz2             0.0       0.0       0.0       1.2       0.0       0.0
 3 C  dxz             0.0       0.0       0.2       0.1       0.0       0.1
 3 C  dyz             0.0       0.0       0.4       0.4       0.0       0.0
 3 C  dx2y2           0.0       0.0       0.1       0.1       0.1       0.0
 3 C  dxy             0.0       0.0       0.4       0.1       0.0       0.1
 4 O  s               0.0       0.0      11.6      42.7       1.7       0.1
 4 O  pz              0.0       0.0       2.4       3.2       0.4       0.0
 4 O  px              0.0       0.0       0.1       0.0       0.1       0.0
 4 O  py              0.0       0.0       0.6       0.5       0.0       0.0
 4 O  dz2             0.0       0.0       0.4       0.1       0.3       0.1
 4 O  dxz             0.0       0.0       0.2       0.1       0.2       0.1
 4 O  dyz             0.0       0.0       0.7       0.1       0.1       0.0
 4 O  dxy             0.0       0.0       0.1       0.1       0.0       0.0
 5 O  s               0.0       0.0      42.3      15.6       0.0       1.0
 5 O  pz              0.0       0.0       1.8       0.2       0.4       0.2
 5 O  px              0.0       0.0       0.3       0.7       5.6       8.5
 5 O  py              0.0       0.0       0.7       0.2       0.3       0.6
 5 O  dxz             0.0       0.0       0.1       0.8       0.1       0.7
 5 O  dyz             0.0       0.0       0.2       0.4       0.0       0.0
 5 O  dx2y2           0.0       0.0       0.2       0.0       0.0       0.9
 5 O  dxy             0.0       0.0       0.3       0.2       0.1       0.0
 6 C  s               0.0       0.0       4.5       1.8       5.1      16.4
 6 C  pz              0.0       0.0       1.0       0.8       0.2       0.7
 6 C  px              0.0       0.0       4.4       0.9       0.2       2.9
 6 C  py              0.0       0.0       0.1       0.0       0.0       0.2
 6 C  dxz             0.0       0.0       0.2       0.1       0.0       0.1
 6 C  dx2y2           0.0       0.0       0.2       0.1       0.0       0.0
 7 C  s               0.0       0.0       0.3       0.2       3.4      20.0
 7 C  pz              0.0       0.0       0.1       0.0       0.2       0.8
 7 C  px              0.0       0.0       0.6       0.3       0.4       1.0
 8 H  s               0.0       0.0       0.0       0.0       1.0       0.8
 9 H  s               0.0       0.0       0.0       0.0       0.9       0.8
10 H  s               0.0       0.0       0.0       0.0       1.0       0.8
11 H  s               0.0       0.0       0.0       0.0       2.3       1.3
11 H  px              0.0       0.0       0.0       0.0       0.1       0.1
12 H  s               0.0       0.0       0.0       0.0       2.2       1.2
12 H  pz              0.0       0.0       0.0       0.0       0.1       0.1
13 H  s               0.0       0.0       0.1       0.0       3.0       0.2
13 H  pz              0.0       0.0       0.0       0.0       0.2       0.0
13 H  py              0.0       0.0       0.0       0.0       0.1       0.0
14 H  s               0.0       0.0       0.0       0.0       2.8       0.3
14 H  py              0.0       0.0       0.0       0.0       0.2       0.0
15 H  s               0.0       0.0       0.3       0.1       0.7       2.7
15 H  pz              0.0       0.0       0.0       0.0       0.0       0.1
15 H  py              0.0       0.0       0.0       0.0       0.0       0.1
16 H  s               0.0       0.0       0.3       0.1       0.7       2.5
16 H  py              0.0       0.0       0.0       0.0       0.1       0.2
17 H  s               0.0       0.0       0.0       0.0       0.5       3.4
17 H  px              0.0       0.0       0.0       0.0       0.0       0.2
18 H  s               0.0       0.0       0.0       0.0       0.5       3.2
18 H  pz              0.0       0.0       0.0       0.0       0.0       0.1
18 H  py              0.0       0.0       0.0       0.0       0.0       0.1
19 H  s               0.0       0.0       0.0       0.0       0.5       3.2
19 H  py              0.0       0.0       0.0       0.0       0.0       0.2

                     12        13        14        15        16        17   
                  -0.67746  -0.61784  -0.56420  -0.52804  -0.47208  -0.46261
                   2.00000   2.00000   2.00000   2.00000   2.00000   2.00000
                  --------  --------  --------  --------  --------  --------
 0 C  s              19.9       6.6       6.6       0.8       0.1       0.0
 0 C  pz              0.0       0.2       0.4       0.0       1.1       2.1
 0 C  px              0.1       0.0       0.2       0.1       0.9       0.2
 0 C  py              0.1       1.0       6.2       1.8       0.9       0.1
 0 C  dx2y2           0.0       0.0       0.1       0.0       0.0       0.0
 1 C  s               3.0       1.8      12.3       2.6       0.1       0.0
 1 C  pz              1.8       1.0       0.0       0.3       6.4       5.6
 1 C  px              2.9       0.4       2.1       1.4       1.1       0.1
 1 C  py              4.5       3.1       4.1       0.4       0.1       1.1
 1 C  dx2y2           0.2       0.1       0.0       0.0       0.0       0.0
 2 C  s              11.8       3.1       1.9       2.1       1.1       0.5
 2 C  pz              0.3       0.1       0.5       1.4      14.6       6.7
 2 C  px              2.6       2.6       6.6       0.1       1.5       1.9
 2 C  py              0.4       0.4       0.0       0.2       0.6       6.5
 2 C  dxz             0.1       0.1       0.2       0.0       0.1       0.1
 3 C  s               2.6       1.6       1.0       2.1       1.3       1.4
 3 C  pz              3.9       0.8       0.9       0.4       0.1       1.2
 3 C  px              2.8       1.2       1.8       3.1       9.7       1.2
 3 C  py              0.1       0.7       0.1       1.3       2.3       7.6
 3 C  dxz             0.1       0.1       0.1       0.0       0.0       0.0
 4 O  s               0.6       0.2       0.4       1.7       1.2       3.0
 4 O  pz              0.4       0.2       0.4       0.9       1.3       8.1
 4 O  px              0.2       0.0       0.0       1.2       5.8       0.7
 4 O  py              0.0       0.1       0.0       0.9       1.7       0.5
 4 O  dz2             0.3       0.1       0.1       0.0       0.0       0.5
 4 O  dxz             0.2       0.0       0.0       0.2       0.7       0.1
 4 O  dyz             0.0       0.1       0.0       0.2       0.2       0.0
 4 O  dx2y2           0.0       0.1       0.0       0.0       0.1       0.2
 4 O  dxy             0.0       0.0       0.0       0.1       0.1       0.0
 5 O  s               0.9       0.0       1.7       3.8       0.2       0.0
 5 O  pz              0.3       0.8       0.6       5.8       0.1       1.1
 5 O  px              1.8      14.0       0.0      14.4       0.2       4.6
 5 O  py              0.2       1.4       0.0       4.3      11.5       8.9
 5 O  dz2             0.4       0.1       0.0       0.1       0.1       0.5
 5 O  dxz             0.0       1.1       0.9       0.3       0.2       0.1
 5 O  dyz             0.0       0.0       0.0       0.0       0.4       0.2
 5 O  dx2y2           0.7       0.0       0.4       0.0       0.2       0.0
 5 O  dxy             0.3       0.1       0.1       0.0       0.5       0.0
 6 C  s               0.3       4.9       5.2       3.8       0.1       0.1
 6 C  pz              0.1       1.2       4.0      15.1       0.0       2.6
 6 C  px              2.8       4.8       0.1       3.2       0.2       0.1
 6 C  py              0.0       0.0       0.0       0.5      11.8      10.5
 6 C  dxz             0.2       0.3       0.0       0.3       0.0       0.0
 6 C  dx2y2           0.0       0.0       0.1       0.2       0.0       0.0
 7 C  s               6.9      14.0       2.4       0.1       0.0       0.1
 7 C  pz              0.0       0.9       2.2       4.0       0.1       0.2
 7 C  px              0.1       2.8       1.0       0.2       0.6       0.6
 7 C  py              0.0       0.1       0.1       0.1       3.0       4.6
 8 H  s               3.9       1.9       3.3       0.7       0.8       0.4
 8 H  pz              0.2       0.1       0.2       0.0       0.0       0.0
 8 H  py              0.1       0.0       0.0       0.0       0.0       0.0
 9 H  s               4.4       2.1       2.5       0.3       0.2       0.4
 9 H  px              0.3       0.1       0.2       0.0       0.0       0.0
10 H  s               3.8       2.0       3.3       0.5       0.2       0.1
10 H  pz              0.1       0.1       0.1       0.0       0.0       0.0
10 H  px              0.2       0.1       0.1       0.0       0.0       0.0
11 H  s               0.7       0.7       6.2       1.4       1.0       0.2
11 H  pz              0.0       0.0       0.2       0.1       0.0       0.0
11 H  px              0.0       0.0       0.2       0.0       0.0       0.0
12 H  s               0.5       0.5       5.2       1.4       1.4       1.9
12 H  pz              0.0       0.0       0.3       0.1       0.0       0.0
12 H  py              0.0       0.0       0.1       0.0       0.0       0.0
13 H  s               2.6       0.4       1.2       1.3       3.0       5.4
13 H  pz              0.1       0.0       0.1       0.0       0.0       0.1
13 H  py              0.1       0.0       0.0       0.0       0.1       0.1
14 H  s               3.1       1.3       0.8       1.5       3.4       0.1
14 H  py              0.2       0.1       0.0       0.1       0.2       0.0
15 H  s               0.0       1.7       3.2       4.2       2.4       3.5
15 H  pz              0.0       0.1       0.1       0.0       0.1       0.1
15 H  py              0.0       0.1       0.1       0.2       0.0       0.0
16 H  s               0.0       1.4       3.0       6.1       2.5       1.3
16 H  pz              0.0       0.0       0.0       0.0       0.1       0.1
16 H  py              0.0       0.1       0.2       0.3       0.0       0.0
17 H  s               1.7       5.0       0.8       0.1       0.1       0.5
17 H  pz              0.0       0.1       0.0       0.0       0.0       0.0
17 H  px              0.1       0.2       0.0       0.0       0.0       0.0
18 H  s               1.5       4.3       1.4       0.4       0.9       0.7
18 H  pz              0.1       0.1       0.0       0.0       0.0       0.0
18 H  py              0.1       0.2       0.1       0.0       0.0       0.0
19 H  s               1.4       4.1       1.3       0.7       0.4       0.9
19 H  py              0.1       0.2       0.1       0.0       0.0       0.0

                     18        19        20        21        22        23   
                  -0.43130  -0.42901  -0.40756  -0.37998  -0.37785  -0.36543
                   2.00000   2.00000   2.00000   2.00000   2.00000   2.00000
                  --------  --------  --------  --------  --------  --------
 0 C  s               0.0       0.3       0.1       0.0       0.0       0.0
 0 C  pz              0.6       1.1      15.0       2.7       2.8       8.0
 0 C  px              1.4       8.1       3.7      15.9       0.0       0.5
 0 C  py              0.5       1.3       0.0       0.1       3.8       8.3
 0 C  dyz             0.0       0.0       0.0       0.0       0.0       0.1
 1 C  s               0.1       0.1       0.1       0.2       0.0       0.0
 1 C  pz              1.9       0.0       8.0       0.2       2.6       2.8
 1 C  px              2.4       6.4       5.9       6.3       0.0       0.2
 1 C  py              0.2       3.1       4.2       0.2       0.8       2.3
 2 C  s               0.3       0.0       0.6       0.1       0.0       0.1
 2 C  pz              0.1       1.7       0.1       1.7       1.6       7.0
 2 C  px              3.0       0.2       1.2       2.5       1.0       0.5
 2 C  py              0.0      19.3       4.1       0.1       2.6       5.5
 2 C  dxz             0.0       0.0       0.1       0.1       0.0       0.0
 2 C  dyz             0.0       0.0       0.0       0.0       0.0       0.1
 3 C  s               1.0       0.1       1.5       0.1       0.0       0.1
 3 C  pz              6.4       0.3       0.9       0.7       0.4       2.0
 3 C  px              0.3       1.0       0.8       2.0       1.3       0.4
 3 C  py              0.4       3.3       1.4       4.9       0.1       0.8
 3 C  dxz             0.1       0.0       0.0       0.0       0.1       0.0
 3 C  dyz             0.1       0.0       0.0       0.0       0.0       0.0
 4 O  s               9.6       0.5       1.5       0.0       0.1       0.9
 4 O  pz             16.7       2.8       9.7       0.3       0.3       5.8
 4 O  px              0.7       0.3       0.3       1.0       2.5       0.4
 4 O  py              9.2       0.4       0.1       6.0       0.2       0.6
 4 O  dz2             0.1       0.2       0.3       0.1       0.0       0.0
 4 O  dxz             0.0       0.0       0.0       0.1       0.1       0.1
 4 O  dyz             0.3       0.1       0.0       0.2       0.0       0.0
 4 O  dxy             0.0       0.1       0.0       0.0       0.0       0.0
 5 O  s               1.7       0.0       0.1       0.1       2.0       0.1
 5 O  pz             21.3       0.7       3.9       1.5       0.6       0.4
 5 O  px              2.1       0.1       0.1       0.4       0.1       2.3
 5 O  py              0.1       0.1       0.1       8.7       4.1       0.4
 5 O  dz2             0.2       0.0       0.4       0.0       0.0       0.0
 5 O  dxz             0.5       0.0       0.0       0.0       0.0       0.0
 5 O  dx2y2           0.0       0.6       0.2       0.6       0.2       0.0
 5 O  dxy             0.0       1.2       0.3       0.2       0.2       0.0
 6 C  s               0.4       0.0       0.2       0.0       0.1       0.1
 6 C  pz              0.1       0.5       1.9       0.0       0.1       1.3
 6 C  px              6.0       0.5       1.7       0.4       0.5       0.3
 6 C  py              0.2       9.7       0.6       0.5       0.1       0.0
 6 C  dx2y2           0.1       0.0       0.0       0.0       0.1       0.1
 6 C  dxy             0.0       0.0       0.0       0.2       0.0       0.0
 7 C  s               0.2       0.0       0.1       0.0       0.0       0.0
 7 C  pz              4.1       0.0       0.4       3.3      15.5      11.8
 7 C  px              1.4       0.0       5.9       0.0      16.8       2.8
 7 C  py              0.1       9.3       0.1      12.9       5.0       1.2
 7 C  dxz             0.0       0.0       0.1       0.0       0.1       0.0
 7 C  dyz             0.0       0.0       0.0       0.1       0.1       0.0
 7 C  dx2y2           0.0       0.0       0.0       0.0       0.3       0.2
 8 H  s               0.4       0.0       2.3       1.6       2.9       8.0
 8 H  pz              0.0       0.0       0.0       0.0       0.0       0.1
 9 H  s               0.5       4.4       0.0       7.7       0.0       0.9
10 H  s               0.1       0.2       6.4       1.5       0.2       0.2
10 H  pz              0.0       0.0       0.0       0.1       0.0       0.0
10 H  px              0.0       0.0       0.1       0.0       0.0       0.0
11 H  s               0.2       1.4       4.8       0.9       0.4       0.5
11 H  py              0.0       0.0       0.1       0.0       0.0       0.0
12 H  s               1.1       0.3       3.1       0.1       0.3       0.1
13 H  s               0.0       1.1       0.2       1.4       2.3       7.7
13 H  pz              0.0       0.1       0.0       0.0       0.0       0.1
14 H  s               0.1       8.2       3.2       0.1       0.4       0.5
14 H  py              0.0       0.2       0.1       0.0       0.0       0.0
15 H  s               0.3       2.7       0.0       0.0       0.2       0.8
16 H  s               0.3       2.3       0.3       0.2       0.0       0.4
17 H  s               0.0       0.1       1.7       0.7      14.8       5.9
17 H  px              0.0       0.0       0.0       0.0       0.2       0.1
18 H  s               1.0       1.8       0.5       7.3       0.3       4.8
18 H  px              0.0       0.0       0.0       0.0       0.1       0.0
19 H  s               0.8       2.3       0.0       2.0      10.1       0.7
19 H  pz              0.0       0.1       0.0       0.1       0.0       0.0
19 H  py              0.0       0.0       0.0       0.0       0.3       0.1

                     24        25        26        27        28        29   
                  -0.36111  -0.33526  -0.32048  -0.30883  -0.30728  -0.30510
                   2.00000   2.00000   2.00000   2.00000   2.00000   2.00000
                  --------  --------  --------  --------  --------  --------
 0 C  s               0.0       0.1       0.3       0.0       0.3       0.2
 0 C  pz              3.4       0.0       3.8       5.1       4.2       6.4
 0 C  px              3.7       7.3       3.6      10.0       0.8       1.1
 0 C  py              2.7       3.1       6.1       0.5      10.9       3.6
 0 C  dxz             0.1       0.1       0.1       0.2       0.1       0.1
 0 C  dyz             0.0       0.0       0.0       0.1       0.5       0.0
 0 C  dx2y2           0.1       0.0       0.1       0.2       0.0       0.2
 0 C  dxy             0.0       0.0       0.1       0.2       0.0       0.0
 1 C  s               0.0       0.1       0.2       0.2       0.1       0.1
 1 C  pz              0.6       0.4       2.1       4.8      11.2       6.5
 1 C  px              0.1       0.5       3.8      14.2       0.5       2.8
 1 C  py              4.2       2.2       6.6       0.5      13.4       2.8
 1 C  dxz             0.0       0.0       0.1       0.3       0.1       0.1
 1 C  dyz             0.0       0.0       0.0       0.0       0.8       0.0
 1 C  dx2y2           0.0       0.1       0.1       0.2       0.0       0.3
 1 C  dxy             0.0       0.0       0.1       0.1       0.0       0.1
 2 C  s               0.1       0.3       0.3       0.6       0.0       0.1
 2 C  pz              1.9       2.1       0.6       4.6       1.1       1.4
 2 C  px              4.6       0.4       0.2      14.1       0.1       1.2
 2 C  py              1.3       0.3       2.1       2.9       5.8       4.1
 2 C  dxz             0.1       0.0       0.0       0.1       0.1       0.1
 2 C  dyz             0.0       0.0       0.1       0.0       0.3       0.1
 2 C  dx2y2           0.0       0.0       0.0       0.2       0.0       0.2
 3 C  s               0.1       0.0       0.0       0.2       0.1       0.6
 3 C  pz              3.2       0.5       0.6       0.1       0.1       3.4
 3 C  px              2.3       1.0       1.3       0.5       0.8       0.2
 3 C  py              1.8       4.5       0.6       0.8       0.3       0.2
 3 C  dz2             0.1       0.0       0.1       0.1       0.0       0.3
 3 C  dxz             0.1       0.0       0.1       0.1       0.0       0.1
 3 C  dyz             0.0       0.1       0.1       0.2       0.1       0.0
 3 C  dx2y2           0.0       0.2       0.1       0.0       0.0       0.1
 4 O  s               0.6       0.2       0.4       0.0       0.0       0.5
 4 O  pz              1.2       5.8       3.2       2.0       1.0       1.6
 4 O  px              0.2       1.0       1.3       0.7       0.8       0.0
 4 O  py              6.8       5.1       0.3       3.2       0.7       5.9
 4 O  dz2             0.1       0.1       0.1       0.0       0.0       0.2
 4 O  dyz             0.1       0.2       0.0       0.0       0.0       0.1
 4 O  dx2y2           0.2       0.0       0.1       0.0       0.1       0.1
 5 O  s               0.0       0.1       0.9       0.5       0.1       1.7
 5 O  pz              1.9       1.7      11.7       3.9       0.1      12.6
 5 O  px              3.6       0.2       0.1       0.5       0.1       1.3
 5 O  py              0.3       1.3       0.7       0.2       0.4       3.4
 5 O  dz2             0.1       0.1       0.3       0.1       0.0       0.6
 5 O  dxz             0.7       0.1       0.2       0.0       0.1       0.0
 5 O  dyz             0.0       0.3       0.1       0.0       0.0       0.2
 5 O  dx2y2           0.2       0.5       0.1       0.3       0.0       0.3
 5 O  dxy             0.0       0.3       0.3       0.0       0.0       0.3
 6 C  s               0.1       0.1       0.3       0.1       0.0       0.3
 6 C  pz              5.2       2.5       6.6       1.6       0.1       3.4
 6 C  px             11.7       0.3       0.5       0.1       0.0       0.8
 6 C  py              0.7       8.0       3.8       0.9       1.0       2.4
 6 C  dxz             0.3       0.0       0.2       0.0       0.0       0.0
 6 C  dyz             0.0       0.3       0.1       0.1       0.0       0.1
 6 C  dx2y2           0.0       0.0       0.3       0.1       0.0       0.2
 7 C  s               0.2       0.1       0.4       0.0       0.0       0.2
 7 C  pz              3.6       2.4       3.8       0.6       0.0       1.2
 7 C  px             15.1       0.8       2.4       0.0       0.0       0.1
 7 C  py              2.2      13.6       3.3       0.4       0.5       1.1
 7 C  dxz             0.3       0.0       0.1       0.0       0.0       0.0
 7 C  dyz             0.0       0.5       0.1       0.0       0.0       0.1
 8 H  s               0.0       0.2       0.0       2.2       9.0       0.8
 9 H  s               0.1       4.0       0.2      10.5       0.0       0.1
10 H  s               4.6       1.5       5.6       0.7       2.4       4.6
10 H  py              0.0       0.0       0.0       0.0       0.1       0.0
11 H  s               0.2       0.0       5.6       1.4       3.2       7.5
11 H  pz              0.0       0.0       0.0       0.1       0.0       0.0
11 H  py              0.0       0.0       0.0       0.0       0.2       0.0
12 H  s               0.1       0.0       0.2       1.9      17.0       0.6
12 H  pz              0.0       0.0       0.0       0.0       0.2       0.0
12 H  px              0.0       0.0       0.0       0.1       0.0       0.0
13 H  s               0.0       0.2       1.3       0.2       6.0       0.1
13 H  px              0.0       0.0       0.0       0.1       0.0       0.0
14 H  s               1.3       0.3       1.6       2.7       2.5       4.3
14 H  px              0.1       0.0       0.0       0.2       0.0       0.0
15 H  s               0.4       7.6       0.1       1.8       0.3       0.0
16 H  s               0.7       1.9       6.0       0.0       0.8       4.5
16 H  pz              0.0       0.1       0.0       0.0       0.0       0.0
16 H  px              0.1       0.0       0.0       0.0       0.0       0.0
17 H  s               3.4       0.1       0.1       0.1       0.0       0.2
17 H  pz              0.2       0.0       0.0       0.0       0.0       0.0
17 H  py              0.0       0.1       0.0       0.0       0.0       0.0
18 H  s               0.1       9.5       0.1       0.8       0.2       0.1
18 H  px              0.1       0.0       0.0       0.0       0.0       0.0
19 H  s               1.3       4.3       3.1       0.0       0.4       1.5
19 H  pz              0.0       0.1       0.0       0.0       0.0       0.0
19 H  px              0.2       0.0       0.1       0.0       0.0       0.0

                     30        31        32        33        34        35   
                  -0.27159  -0.23517  -0.01444   0.07463   0.09590   0.10466
                   2.00000   2.00000   0.00000   0.00000   0.00000   0.00000
                  --------  --------  --------  --------  --------  --------
 0 C  s               0.0       0.0       0.2       7.0       2.4       6.6
 0 C  pz              0.0       0.0       0.3       0.4       0.0       0.1
 0 C  px              0.0       0.0       0.2       1.1       0.3       1.3
 0 C  py              0.0       0.2       0.1       0.6       0.2       1.9
 0 C  dyz             0.0       0.0       0.0       0.0       0.0       0.1
 0 C  dx2y2           0.0       0.0       0.0       0.2       0.0       0.3
 1 C  s               0.0       0.1       1.1       2.2       2.5       8.8
 1 C  pz              0.0       0.0       0.6       0.2       0.3       0.5
 1 C  px              0.0       0.2       1.0       0.8       1.3       3.5
 1 C  py              0.0       0.2       0.2       0.1       0.3       0.4
 1 C  dx2y2           0.0       0.0       0.0       0.0       0.2       0.1
 2 C  s               0.0       0.5       0.2       8.7       0.3       1.9
 2 C  pz              0.1       4.3       0.0       0.7       0.9       1.9
 2 C  px              0.0       2.8       0.3       1.6       0.4       1.9
 2 C  py              0.0       0.0       0.1       0.2       0.3       0.3
 2 C  dxz             0.0       0.0       0.1       0.0       0.0       0.1
 2 C  dyz             0.0       0.0       0.7       0.0       0.1       0.1
 2 C  dx2y2           0.0       0.0       0.6       0.0       0.3       0.3
 2 C  dxy             0.0       0.0       0.5       0.0       0.0       0.0
[...]
 3 C  s               1.1       0.2       3.0       5.1       0.0       0.0
 3 C  pz              0.5       0.5       1.0       6.6       0.0       0.0
 3 C  px              0.3       0.6       4.6       0.0       0.0       0.0
 3 C  py              0.2       0.3       1.6       1.4       0.0       0.0
 3 C  dz2             0.3       0.3       1.0       3.9       0.0       0.0
 3 C  dxz             9.3       0.7       5.2       0.0       0.0       0.0
 3 C  dyz             1.7       0.1       1.0       2.6       0.0       0.0
 3 C  dx2y2           3.3       0.1       0.7       0.1       0.0       0.0
 3 C  dxy             0.1       0.6       4.4       0.0       0.0       0.0
 4 O  s               1.5       1.1       0.6      18.7       0.0       0.0
 4 O  pz              0.3       0.6       0.4      18.2       0.0       0.0
 4 O  px              6.1       0.2       0.2       0.0       0.0       0.0
 4 O  py              1.2       0.2       0.0       3.7       0.0       0.0
 4 O  dz2             1.9       0.9       0.2      19.1       0.0       0.0
 4 O  dxz            12.9       0.2       1.6       0.0       0.0       0.0
 4 O  dyz             1.3       0.9       0.0      13.7       0.0       0.0
 4 O  dx2y2           0.1       0.2       0.3       0.8       0.0       0.0
 4 O  dxy             4.3       0.0       0.0       0.0       0.0       0.0
 5 O  s               3.4      25.8       6.0       1.0       0.0       0.0
 5 O  pz              5.2       7.7       0.5       0.2       0.0       0.0
 5 O  px              0.2       5.9      26.6       0.6       0.0       0.0
 5 O  py              1.8       0.2       4.5       0.0       0.0       0.0
 5 O  dz2             4.4       1.0       1.6       0.0       0.0       0.0
 5 O  dxz             0.4       5.7      15.4       1.1       0.0       0.0
 5 O  dyz             4.4       0.3       2.5       0.0       0.0       0.0
 5 O  dx2y2           0.9      14.8       0.5       1.0       0.0       0.0
 5 O  dxy             0.0       3.5       9.2       0.0       0.0       0.0
 6 C  s               0.1       1.4       0.6       0.2      16.0       1.8
 6 C  pz              0.0       2.6       0.7       0.1       0.0       0.0
 6 C  px              0.1       5.3       1.4       0.3       0.0       0.0
 6 C  py              0.0       0.1       0.0       0.0       0.0       0.0
 6 C  dz2             0.5       0.1       0.0       0.0       0.0       0.0
 6 C  dxz             0.2       6.4       1.4       0.4       0.0       0.0
 6 C  dyz             0.0       0.0       0.1       0.0       0.0       0.0
 6 C  dx2y2           0.1       6.3       1.2       0.2       0.0       0.0
 6 C  dxy             0.3       0.2       0.0       0.0       0.0       0.0
 7 C  s               0.0       0.0       0.0       0.0      73.6      10.8
 7 C  pz              0.0       0.1       0.0       0.0       0.0       0.0
 7 C  py              0.1       0.0       0.0       0.0       0.0       0.0
 7 C  dz2             0.2       0.1       0.0       0.0       0.0       0.0
 7 C  dxz             0.2       0.4       0.0       0.0       0.0       0.0
 7 C  dyz             0.2       0.0       0.0       0.0       0.0       0.0
 7 C  dx2y2           0.0       0.1       0.0       0.0       0.0       0.0
 9 H  s               0.3       0.0       0.0       0.0       0.0       0.0
 9 H  pz              0.2       0.0       0.0       0.0       0.0       0.0
 9 H  px              0.5       0.0       0.0       0.0       0.0       0.0
10 H  s               0.5       0.0       0.0       0.0       0.0       0.0
10 H  pz              0.7       0.0       0.0       0.0       0.0       0.0
10 H  px              0.4       0.0       0.0       0.0       0.0       0.0
10 H  py              0.1       0.0       0.0       0.0       0.0       0.0
11 H  s               0.7       0.0       0.0       0.0       0.0       0.0
11 H  pz              0.6       0.0       0.0       0.0       0.0       0.0
11 H  px              1.1       0.0       0.0       0.0       0.0       0.0
12 H  s               0.3       0.0       0.0       0.0       0.0       0.0
12 H  pz              0.4       0.0       0.0       0.0       0.0       0.0
12 H  py              0.2       0.0       0.0       0.0       0.0       0.0
13 H  s               2.1       0.0       0.1       0.0       0.0       0.0
13 H  pz              3.0       0.0       0.0       0.0       0.0       0.0
13 H  px              0.3       0.0       0.0       0.0       0.0       0.0
13 H  py              2.0       0.0       0.1       0.0       0.0       0.0
15 H  s               0.0       0.6       0.0       0.0       0.0       0.0
15 H  pz              0.0       0.2       0.0       0.0       0.0       0.0
15 H  px              0.0       0.5       0.0       0.0       0.0       0.0
15 H  py              0.1       0.7       0.0       0.0       0.0       0.0
16 H  s               0.0       0.3       0.1       0.0       0.0       0.0
16 H  px              0.5       0.1       0.0       0.0       0.0       0.0
16 H  py              0.1       0.6       0.3       0.0       0.0       0.0
17 H  px              0.0       0.2       0.0       0.0       0.0       0.0

                    216       217       218       219       220       221   
                  22.00185  22.03115  22.07986  22.28794  43.69230  43.74318
                   0.00000   0.00000   0.00000   0.00000   0.00000   0.00000
                  --------  --------  --------  --------  --------  --------
 0 C  s              12.2       0.1       2.7       0.1       0.0       0.0
 1 C  s               0.3      95.8       1.4       1.7       0.0       0.0
 2 C  s              13.3       1.1      73.2       0.0       0.0       0.0
 3 C  s               0.7       1.9       0.0      96.5       0.0       0.0
 4 O  s               0.0       0.0       0.0       0.2      98.8       1.1
 4 O  pz              0.0       0.0       0.0       0.1       0.0       0.0
 5 O  s               0.0       0.0       0.1       0.1       1.1      98.8
 6 C  s              58.5       0.4      22.3       0.6       0.0       0.0
 7 C  s              14.7       0.4       0.0       0.2       0.0       0.0



                      *****************************
                      * MAYER POPULATION ANALYSIS *
                      *****************************

  NA   - Mulliken gross atomic population
  ZA   - Total nuclear charge
  QA   - Mulliken gross atomic charge
  VA   - Mayer's total valence
  BVA  - Mayer's bonded valence
  FA   - Mayer's free valence

  ATOM       NA         ZA         QA         VA         BVA        FA
  0 C      6.4968     6.0000    -0.4968     3.8317     3.8317    -0.0000
  1 C      6.2071     6.0000    -0.2071     3.6551     3.6551    -0.0000
  2 C      6.2965     6.0000    -0.2965     3.6940     3.6940     0.0000
  3 C      5.6679     6.0000     0.3321     3.8419     3.8419     0.0000
  4 O      8.4262     8.0000    -0.4262     1.9309     1.9309    -0.0000
  5 O      8.1623     8.0000    -0.1623     1.9218     1.9218     0.0000
  6 C      6.1545     6.0000    -0.1545     3.6529     3.6529     0.0000
  7 C      6.4414     6.0000    -0.4414     3.8459     3.8459     0.0000
  8 H      0.8564     1.0000     0.1436     0.9639     0.9639    -0.0000
  9 H      0.8520     1.0000     0.1480     0.9626     0.9626     0.0000
 10 H      0.8422     1.0000     0.1578     0.9629     0.9629    -0.0000
 11 H      0.8576     1.0000     0.1424     0.9600     0.9600    -0.0000
 12 H      0.8403     1.0000     0.1597     0.9617     0.9617     0.0000
 13 H      0.8356     1.0000     0.1644     0.9631     0.9631     0.0000
 14 H      0.8332     1.0000     0.1668     0.9562     0.9562     0.0000
 15 H      0.8523     1.0000     0.1477     0.9510     0.9510     0.0000
 16 H      0.8292     1.0000     0.1708     0.9530     0.9530    -0.0000
 17 H      0.8531     1.0000     0.1469     0.9639     0.9639     0.0000
 18 H      0.8475     1.0000     0.1525     0.9617     0.9617    -0.0000
 19 H      0.8480     1.0000     0.1520     0.9610     0.9610     0.0000

  Mayer bond orders larger than 0.100000
B(  0-C ,  1-C ) :   0.9083 B(  0-C ,  8-H ) :   0.9824 B(  0-C ,  9-H ) :   0.9689 
B(  0-C , 10-H ) :   0.9746 B(  1-C ,  2-C ) :   0.8969 B(  1-C , 11-H ) :   0.9649 
B(  1-C , 12-H ) :   0.9627 B(  2-C ,  3-C ) :   0.9485 B(  2-C , 13-H ) :   1.0019 
B(  2-C , 14-H ) :   0.9262 B(  3-C ,  4-O ) :   1.8271 B(  3-C ,  5-O ) :   1.0777 
B(  5-O ,  6-C ) :   0.7934 B(  6-C ,  7-C ) :   0.9450 B(  6-C , 15-H ) :   0.9459 
B(  6-C , 16-H ) :   0.9625 B(  7-C , 17-H ) :   0.9679 B(  7-C , 18-H ) :   0.9748 
B(  7-C , 19-H ) :   0.9689 

-------
TIMINGS
-------

Total SCF time: 0 days 0 hours 0 min 30 sec 

Total time                  ....      30.315 sec
Sum of individual times     ....      29.478 sec  ( 97.2%)

SCF preparation             ....       0.225 sec  (  0.7%)
Fock matrix formation       ....      27.700 sec  ( 91.4%)
  Startup                   ....       0.153 sec  (  0.6% of F)
  Split-RI-J                ....       5.698 sec  ( 20.6% of F)
  XC integration            ....      21.116 sec  ( 76.2% of F)
    XC Preparation          ....       0.000 sec  (  0.0% of XC)
    Basis function eval.    ....       3.662 sec  ( 17.3% of XC)
    Density eval.           ....       6.009 sec  ( 28.5% of XC)
    XC-Functional eval.     ....       2.649 sec  ( 12.5% of XC)
    XC-Potential eval.      ....       6.631 sec  ( 31.4% of XC)
Diagonalization             ....       0.000 sec  (  0.0%)
Density matrix formation    ....       0.382 sec  (  1.3%)
Total Energy calculation    ....       0.053 sec  (  0.2%)
Population analysis         ....       0.152 sec  (  0.5%)
Orbital Transformation      ....       0.095 sec  (  0.3%)
Orbital Orthonormalization  ....       0.000 sec  (  0.0%)
DIIS solution               ....       0.800 sec  (  2.6%)
  MO trafo                  ....       0.000 sec  (  0.0 % of DIIS)
  Orb grad                  ....       0.000 sec  (  0.0 % of DIIS)
  Energy W gradient         ....       0.000 sec  (  0.0 % of DIIS)
  DIIS error                ....       0.023 sec  (  2.9 % of DIIS)
  DIIS work                 ....       0.688 sec  ( 86.0 % of DIIS)
  Form Q                    ....       0.000 sec  (  0.0 % of DIIS)
  Form QpQm                 ....       0.000 sec  (  0.0 % of DIIS)
  Exp/Cayley                ....       0.000 sec  (  0.0 % of DIIS)
  Orb update                ....       0.000 sec  (  0.0 % of DIIS)
  Wake-sleep                ....       0.043 sec  (  5.4 % of DIIS)
SOSCF solution              ....       0.070 sec  (  0.2%)
  MO trafo                  ....       0.051 sec  ( 72.9 % of SOSCF)
  Orb grad                  ....       0.001 sec  (  1.2 % of SOSCF)
  Rot update                ....       0.000 sec  (  0.2 % of SOSCF)
  Step                      ....       0.018 sec  ( 25.5 % of SOSCF)
Finished LeanSCF after  30.4 sec

Maximum memory used throughout the entire LEANSCF-calculation: 23.7 MB


-------------------------------------------------------------------------------
                          DFT DISPERSION CORRECTION                            
                                                                               
                                DFTD4 V3.4.0                                   
-------------------------------------------------------------------------------
The R2SCAN3C composite method is recognized
Using three-body term ABC
Active option DFTDOPT                   ...         5   

-------------------------   ----------------
Dispersion correction           -0.004988957
-------------------------   ----------------

------------------   -----------------
gCP correction             0.011706223
------------------   -----------------

-------------------------   --------------------
FINAL SINGLE POINT ENERGY      -386.236370490859
-------------------------   --------------------


------------------------------------------------------------------------------
                              ORCA PROPERTY CALCULATIONS
------------------------------------------------------------------------------

GBWName                                 ... sp_gas.gbw
Number of atoms                         ...     20
Number of basis functions               ...    222
Max core memory                         ...   1024 MB

Electric properties:
Dipole moment                           ... YES
Quadrupole moment                       ...  NO
Static polarizability (Dipole/Dipole)   ...  NO
Static polarizability (Dipole/Quad.)    ...  NO
Static polarizability (Quad./Quad.)     ...  NO
Static polarizability (Velocity)        ...  NO

Atomic electric properties:
Dipole moment                           ...  NO
Quadrupole moment                       ...  NO
Static polarizability                   ...  NO

Choice of electric origin               ... Center of mass
Position of electric origin             ...    -0.000008    -0.000012     0.000009

General magnetic properties:
Magnetizability                         ...  NO

EPR properties:
g-Tensor (aka g-matrix)                 ...  NO
Zero-Field splitting spin-orbit         ...  NO
Zero-field splitting spin-spin          ...  NO
Hyperfine couplings                     ...  NO (   0 nuclei)
Quadrupole couplings                    ...  NO (   0 nuclei)
Contact density                         ...  NO (   0 nuclei)

NMR properties:
Chemical shifts                         ...  NO (   0 nuclei)
Spin-rotation constants                 ...  NO (   0 nuclei)
Spin-spin couplings                     ...  NO (   0 nuclei,    0 pairs)

Choice of magnetic origin               ... GIAO
Position of magnetic origin             ...     0.000000     0.000000     0.000000

Properties with geometric perturbations:
SCF Hessian                             ...  NO
IR spectrum                             ...  NO
VCD spectrum                            ...  NO
X-ray spectroscopy properties:
SCF XES/XAS/RIXS spectra                ...  NO


-------------
DIPOLE MOMENT
-------------

Method             : SCF
Type of density    : Electron Density
Multiplicity       :   1
Irrep              :   0
Energy             :  -386.2430877569178733 Eh
Relativity type    : 
Basis              : AO
                                X                 Y                 Z
Electronic contribution:      1.462044291       3.487580515      -1.496660929
Nuclear contribution   :     -1.159726532      -3.853195216       2.125947350
                        -----------------------------------------
Total Dipole Moment    :      0.302317758      -0.365614702       0.629286421
                        -----------------------------------------
Magnitude (a.u.)       :      0.788080920
Magnitude (Debye)      :      2.003142507



--------------------
Rotational spectrum 
--------------------
 
Rotational constants in cm-1:             0.149276             0.031954             0.030773 
Rotational constants in MHz :          4475.178163           957.945125           922.551427 

Dipole components along the rotational axes: 
x,y,z [a.u.] :     0.339476    -0.668254    -0.243443 
x,y,z [Debye]:     0.862879    -1.698567    -0.618782 

 

Dipole moment calculation done in   0.0 sec 

Maximum memory used throughout the entire PROP-calculation: 13.7 MB

--------------------------------
SUGGESTED CITATIONS FOR THIS RUN
--------------------------------

Below you find a list of papers that are relevant to this ORCA run
We neither can nor want to force you to cite these papers, but we appreciate if you do
You receive ORCA, which is the product of decades of hard work by many enthusiastic individuals, for free
The only thing we kindly ask in return is that you cite our papers,
We deeply appreciate it, if you show your appreciation for ORCA by not just citing the generic ORCA reference.

Please note that relegating all ORCA citations to the supporting information does *not* help us.
SI sections are not indexed - citations you put there will not count into any citation statistics
But we need these citations in order to attract the funding resources that allow us to do what we are doing

Therefore, if you are a happy ORCA user, please consider citing a few of the papers listed below in the main body of your paper

In addition to the list printed below, the program has created the file sp_gas.bibtex that contains the list in bibtex format
You can import this file easily into all common literature databanks and citation aid programs


List of essential papers. We consider these as the minimum necessary citations

  1. Neese,F.
     Software update: the ORCA program system, version 5.0
     WIRES Comput. Molec. Sci., 2022 12(1)e1606
     doi.org/10.1002/wcms.1606
  2. Grimme,S.; Hansen,A.; Ehlert,S.; Mewes,J.
     r2SCAN-3c: A 'Swiss army knife' composite electronic-structure method
     J. Chem. Phys., 2021 154 064103
     doi.org/10.1063/5.0040021

List of papers to cite with high priority. The work reported in these papers was absolutely
necessary for this run to complete.
Our perspective: the developers of density functionals and basis sets usually get cited in chemistry papers
Good! But without the algorithms to do something with them, the functionals or basis sets would not do anything.
Hence, in our opinion, the algorithm design and method developments papers are equally worthy of getting cited

  1. Neese,F.
     An improvement of the resolution of the identity approximation for the formation of the Coulomb matrix
     J. Comp. Chem., 2003 24(14)1740-1747
     doi.org/10.1002/jcc.10318
  2. Neese,F.
     The SHARK Integral Generation and Digestion System
     J. Comp. Chem., 2022  1-16
     doi.org/10.1002/jcc.26942
  3. Lehtola,S.; Steigemann,C.; Oliveira,M.; Marques,M.
     Recent developments in Libxc - A comprehensive library of functionals for density functional theory
     Software X, 2018 7 
     doi.org/10.1016/j.softx.2017.11.002
  4. Caldeweyher,E.; Bannwarth,C.; Grimme,S.
     Extension of the D3 dispersion coefficient model
     J. Chem. Phys., 2017 147 034112-XXXX
     doi.org/10.1063/1.4993215
  5. Caldeweyher,E.; Ehlert,S.; Hansen,A.; Neugebauer,H.; Spicher,S.; Bannwarth,C.; Grimme,S.
     A generally applicable atomic-charge dependent London dispersion correction
     J. Chem. Phys., 2019 150 154122-XXXX
     doi.org/10.1063/1.5090222
  6. Caldeweyher,E.; Mewes,J.; Ehlert,S.; Grimme,S.
     Extension and evaluation of the D4 London-dispersion model for periodic systems
     Phys. Chem. Chem. Phys., 2020 22(16)8499-8512
     doi.org/10.1039/D0CP00502A

List of suggested additional citations. These are papers that are important in the 'surrounding' of 
of this run, or papers that preceded the highly important papers. If you like your results we are grateful for a citation.

  1. Neese,F.
     The ORCA program system
     WIRES Comput. Molec. Sci., 2012 2(1)73-78
     doi.org/10.1002/wcms.81
  2. Neese,F.
     Software update: the ORCA program system, version 4.0
     WIRES Comput. Molec. Sci., 2018 8(1)1-6
     doi.org/10.1002/wcms.1327
  3. Neese,F.; Wennmohs,F.; Becker,U.; Riplinger,C.
     The ORCA quantum chemistry program package
     J. Chem. Phys., 2020 152 Art. No. L224108
     doi.org/10.1063/5.0004608

List of optional additional citations

  1. Neese,F.
     Approximate second-order SCF convergence for spin unrestricted wavefunctions
     Chem. Phys. Lett., 2000 325(1-3)93-98
     doi.org/10.1016/s0009-2614(00)00662-x

Timings for individual modules:

Sum of individual times          ...       32.605 sec (=   0.543 min)
Startup calculation              ...        1.567 sec (=   0.026 min)   4.8 %
SCF iterations                   ...       30.910 sec (=   0.515 min)  94.8 %
Property calculations            ...        0.129 sec (=   0.002 min)   0.4 %
                             ****ORCA TERMINATED NORMALLY****
TOTAL RUN TIME: 0 days 0 hours 0 minutes 33 seconds 563 msec
