
                                 *****************
                                 * O   R   C   A *
                                 *****************

                                            #,                                       
                                            ###                                      
                                            ####                                     
                                            #####                                    
                                            ######                                   
                                           ########,                                 
                                     ,,################,,,,,                         
                               ,,#################################,,                 
                          ,,##########################################,,             
                       ,#########################################, ''#####,          
                    ,#############################################,,   '####,        
                  ,##################################################,,,,####,       
                ,###########''''           ''''###############################       
              ,#####''   ,,,,##########,,,,          '''####'''          '####       
            ,##' ,,,,###########################,,,                        '##       
           ' ,,###''''                  '''############,,,                           
         ,,##''                                '''############,,,,        ,,,,,,###''
      ,#''                                            '''#######################'''  
     '                                                          ''''####''''         
             ,#######,   #######,   ,#######,      ##                                
            ,#'     '#,  ##    ##  ,#'     '#,    #''#        ,####,   ,####,        
            ##       ##  ##   ,#'  ##            #'  '#       #'       #'  '#        
            ##       ##  #######   ##           ,######,      #####,   #    #        
            '#,     ,#'  ##    ##  '#,     ,#' ,#      #,     #,   #   #,  ,#        
             '#######'   ##     ##  '#######'  #'      '#     '####' # '####'        



                #########################################################
                #                        -***-                          #
                #          Department of theory and spectroscopy        #
                #                                                       #
                #                      Frank Neese                      #
                #                                                       #
                #     Directorship, Architecture, Infrastructure        #
                #                    SHARK, DRIVERS                     #
                #        Core code/Algorithms in most modules           #
                #                                                       #
                #        Max Planck Institute fuer Kohlenforschung      #
                #                Kaiser Wilhelm Platz 1                 #
                #                 D-45470 Muelheim/Ruhr                 #
                #                      Germany                          #
                #                                                       #
                #                  All rights reserved                  #
                #                        -***-                          #
                #########################################################


                         Program Version 6.0.0  -   RELEASE  -


 With contributions from (in alphabetic order):
   Daniel Aravena         : Magnetic Suceptibility
   Michael Atanasov       : Ab Initio Ligand Field Theory (pilot matlab implementation)
   Alexander A. Auer      : GIAO ZORA, VPT2 properties, NMR spectrum
   Ute Becker             : All parallelization in ORCA, NUMFREQ, NUMCALC
   Giovanni Bistoni       : ED, misc. LED, open-shell LED, HFLD
   Martin Brehm           : Molecular dynamics
   Dmytro Bykov           : pre 5.0 version of the SCF Hessian
   Marcos Casanova-Páez   : Triplet and SCS-CIS(D). UHF-(DLPNO)-IP/EA/STEOM-CCSD. UHF-CVS-IP/STEOM-CCSD
   Vijay G. Chilkuri      : MRCI spin determinant printing, contributions to CSF-ICE
   Pauline Colinet        : FMM embedding
   Dipayan Datta          : RHF DLPNO-CCSD density
   Achintya Kumar Dutta   : EOM-CC, STEOM-CC
   Nicolas Foglia         : Exact transition moments, OPA infrastructure, MCD improvements
   Dmitry Ganyushin       : Spin-Orbit,Spin-Spin,Magnetic field MRCI
   Miquel Garcia          : C-PCM and meta-GGA Hessian, CCSD/C-PCM, Gaussian charge scheme
   Tiago L. C. Gouveia    : GS-ROHF, GS-ROCIS
   Yang Guo               : DLPNO-NEVPT2, F12-NEVPT2, CIM, IAO-localization
   Andreas Hansen         : Spin unrestricted coupled pair/coupled cluster methods
   Ingolf Harden          : AUTO-CI MPn and infrastructure 
   Benjamin Helmich-Paris : MC-RPA, TRAH-(SCF,CASSCF), AVAS, COSX integrals, SCF dyn. polar.
   Lee Huntington         : MR-EOM, pCC
   Robert Izsak           : Overlap fitted RIJCOSX, COSX-SCS-MP3, EOM
   Riya Kayal             : Wick's Theorem for AUTO-CI, AUTO-CI UHF-CCSDT
   Emily Kempfer          : AUTO-CI, RHF CISDT and CCSDT
   Christian Kollmar      : KDIIS, OOCD, Brueckner-CCSD(T), CCSD density, CASPT2, CASPT2-K, improved NEVPT2
   Axel Koslowski         : Symmetry handling
   Simone Kossmann        : Meta GGA functionals, TD-DFT gradient, OOMP2, (MP2 Hessian; deprecated post 5.0)
   Lucas Lang             : DCDCAS
   Marvin Lechner         : AUTO-CI (C++ implementation), FIC-MRCC
   Spencer Leger          : CASSCF response
   Dagmar Lenk            : GEPOL surface, SMD, ORCA-2-JSON
   Dimitrios Liakos       : Extrapolation schemes; Compound Job, initial MDCI parallelization
   Dimitrios Manganas     : Further ROCIS development; embedding schemes. LFT, Crystal Embedding
   Dimitrios Pantazis     : SARC Basis sets
   Anastasios Papadopoulos: AUTO-CI, single reference methods and gradients
   Taras Petrenko         : pre 6.0 DFT Hessian and TD-DFT gradient, (ASA, deprecated), ECA, 1-Electron XAS/XES, NRVS
   Peter Pinski           : DLPNO-MP2, DLPNO-MP2 Gradient
   Christoph Reimann      : Effective Core Potentials
   Marius Retegan         : Local ZFS, SOC
   Christoph Riplinger    : Optimizer, TS searches, QM/MM, DLPNO-CCSD(T), (RO)-DLPNO pert. Triples
   Michael Roemelt        : Original ROCIS implementation
   Masaaki Saitow         : Open-shell DLPNO-CCSD energy and density
   Barbara Sandhoefer     : DKH picture change effects
   Kantharuban Sivalingam : CASSCF convergence/infrastructure, NEVPT2 and variants, FIC-MRCI
   Bernardo de Souza      : ESD, SOC TD-DFT
   Georgi Stoychev        : AutoAux, RI-MP2 NMR, DLPNO-MP2 response, X2C
   Van Anh Tran           : RI-MP2 g-tensors
   Willem Van den Heuvel  : Paramagnetic NMR
   Zikuan Wang            : NOTCH, Electric field optimization 
   Frank Wennmohs         : Technical directorship and infrastructure
   Hang Xu                : AUTO-CI-Response properties 


 We gratefully acknowledge several colleagues who have allowed us to
 interface, adapt or use parts of their codes:
   Stefan Grimme, W. Hujo, H. Kruse, P. Pracht,  : VdW corrections, initial TS optimization,
                  C. Bannwarth, S. Ehlert,         DFT functionals, gCP, sTDA/sTD-DF
                  L. Wittmann, M. Mueller
   Ed Valeev, F. Pavosevic, A. Kumar             : LibInt (2-el integral package), F12 methods
   Garnet Chan, S. Sharma, J. Yang, R. Olivares  : DMRG
   Ulf Ekstrom                                   : XCFun DFT Library
   Mihaly Kallay                                 : mrcc  (arbitrary order and MRCC methods)
   Frank Weinhold                                : gennbo (NPA and NBO analysis)
   Simon Mueller                                 : openCOSMO-RS
   Christopher J. Cramer and Donald G. Truhlar   : smd solvation model
   Lars Goerigk                                  : TD-DFT with DH, B97 family of functionals
   V. Asgeirsson, H. Jonsson                     : NEB implementation
   FAccTs GmbH                                   : IRC, NEB, NEB-TS, DLPNO-Multilevel, CI-OPT
                                                   MM, QMMM, 2- and 3-layer-ONIOM, Crystal-QMMM,
                                                   LR-CPCM, SF, NACMEs, symmetry and pop. for TD-DFT,
                                                   nearIR, NL-DFT gradient (VV10), updates on ESD,
                                                   ML-optimized integration grids, MBIS, APM,
                                                   GOAT, DOCKER, SOLVATOR, interface openCOSMO-RS
   S Lehtola, MJT Oliveira, MAL Marques          : LibXC Library
   Liviu Ungur et al                             : ANISO software


 Your calculation uses the libint2 library for the computation of 2-el integrals
 For citations please refer to: http://libint.valeyev.net

 Your ORCA version has been built with support for libXC version: 6.2.2
 For citations please refer to: https://libxc.gitlab.io

 This ORCA versions uses:
   CBLAS   interface :  Fast vector & matrix operations
   LAPACKE interface :  Fast linear algebra routines
   SCALAPACK package :  Parallel linear algebra routines
   Shared memory     :  Shared parallel matrices
   BLAS/LAPACK       :  OpenBLAS 0.3.27  USE64BITINT DYNAMIC_ARCH NO_AFFINITY SkylakeX SINGLE_THREADED
        Core in use  :  SkylakeX
   Copyright (c) 2011-2014, The OpenBLAS Project


Your calculation utilizes the geometrical counterpoise correction gCP
Please cite in your paper:
H.Kruse, S. Grimme J.Chem.Phys., 136, (2012), 154101 
   

Your calculation utilizes the atom-pairwise dispersion correction
based on EEQ partial charges (D4)


Your calculation utilizes the SMD solvation module
Please cite in your paper:
A.V. Marenich, C.J. Cramer, D.G. Truhlar J. Phys. Chem. B, 113, (2009), 6378 

================================================================================

----- Orbital basis set information -----
Your calculation utilizes the basis: def2-mTZVPP
   Stefan Grimme, Andreas Hansen, Sebastian Ehlert, and Jan-Michael Mewes 
   J. Chem. Phys. 154, 064103 (2021). DOI: 10.1063/5.0040021

----- AuxJ basis set information -----
Your calculation utilizes the auxiliary basis: def2/J
   F. Weigend, Phys. Chem. Chem. Phys. 8, 1057 (2006).

================================================================================
                                        WARNINGS
                       Please study these warnings very carefully!
================================================================================

Using LibXC functional ID 497 : Re-regularized SCAN exchange by Furness et al
[ 1]  J. W. Furness, A. D. Kaplan, J. Ning, J. P. Perdew, and J. Sun.,  J. Phys. Chem. Lett. 11, 8208-8215 (2020)
[ 2]  J. W. Furness, A. D. Kaplan, J. Ning, J. P. Perdew, and J. Sun.,  J. Phys. Chem. Lett. 11, 9248-9248 (2020)
Using LibXC functional ID 498 : Re-regularized SCAN correlation by Furness et al
[ 1]  J. W. Furness, A. D. Kaplan, J. Ning, J. P. Perdew, and J. Sun.,  J. Phys. Chem. Lett. 11, 8208-8215 (2020)
[ 2]  J. W. Furness, A. D. Kaplan, J. Ning, J. P. Perdew, and J. Sun.,  J. Phys. Chem. Lett. 11, 9248-9248 (2020)
Using LibXC functional ID 497 : Re-regularized SCAN exchange by Furness et al
[ 1]  J. W. Furness, A. D. Kaplan, J. Ning, J. P. Perdew, and J. Sun.,  J. Phys. Chem. Lett. 11, 8208-8215 (2020)
[ 2]  J. W. Furness, A. D. Kaplan, J. Ning, J. P. Perdew, and J. Sun.,  J. Phys. Chem. Lett. 11, 9248-9248 (2020)
Using LibXC functional ID 498 : Re-regularized SCAN correlation by Furness et al
[ 1]  J. W. Furness, A. D. Kaplan, J. Ning, J. P. Perdew, and J. Sun.,  J. Phys. Chem. Lett. 11, 8208-8215 (2020)
[ 2]  J. W. Furness, A. D. Kaplan, J. Ning, J. P. Perdew, and J. Sun.,  J. Phys. Chem. Lett. 11, 9248-9248 (2020)

================================================================================
                                       INPUT FILE
================================================================================
NAME = sp_solv.inp
|  1> ! r2scan-3c def2/J RI DEFGRID2 scfconv6 printgap
|  2> %output
|  3>     printlevel normal
|  4> end
|  5> %cpcm
|  6>     smd true
|  7>     smdsolvent "water"
|  8> end
|  9> * xyz 0 1
| 10> C -2.643277058 -1.2274327603 -0.3410678049
| 11> C -2.5738223826 0.2203165669 0.1295991104
| 12> C -1.2563473584 0.5150212131 0.8498268712
| 13> C -0.0860584061 0.4752828456 -0.0994864604
| 14> O -0.0710801072 0.9632236706 -1.2110758592
| 15> O 0.9537946677 -0.1500079044 0.435399848
| 16> C 2.1702705326 -0.2314834722 -0.3271049883
| 17> C 3.3183069251 -0.4892290704 0.630296914
| 18> H -2.5470199324 -1.9089549531 0.5007971469
| 19> H -3.5912544942 -1.4198228682 -0.8360965397
| 20> H -1.8409274398 -1.4341884741 -1.0469559906
| 21> H -3.4018518819 0.4254039505 0.8084416806
| 22> H -2.6578909755 0.8883594558 -0.7295614897
| 23> H -1.0742779785 -0.1967891706 1.6542899855
| 24> H -1.2878322103 1.5220292153 1.271278364
| 25> H 2.0622119529 -1.0456090139 -1.0508718057
| 26> H 2.2976766058 0.7059451482 -0.8783925164
| 27> H 4.2433008399 -0.5670560281 0.068724058
| 28> H 3.4000478186 0.3251011402 1.3442870668
| 29> H 3.1477034322 -1.4144257738 1.1723856361
| 30> *
| 31> 
| 32>                          ****END OF INPUT****
================================================================================

                       ****************************
                       * Single Point Calculation *
                       ****************************

---------------------------------
CARTESIAN COORDINATES (ANGSTROEM)
---------------------------------
  C     -2.643277   -1.227433   -0.341068
  C     -2.573822    0.220317    0.129599
  C     -1.256347    0.515021    0.849827
  C     -0.086058    0.475283   -0.099486
  O     -0.071080    0.963224   -1.211076
  O      0.953795   -0.150008    0.435400
  C      2.170271   -0.231483   -0.327105
  C      3.318307   -0.489229    0.630297
  H     -2.547020   -1.908955    0.500797
  H     -3.591254   -1.419823   -0.836097
  H     -1.840927   -1.434188   -1.046956
  H     -3.401852    0.425404    0.808442
  H     -2.657891    0.888359   -0.729561
  H     -1.074278   -0.196789    1.654290
  H     -1.287832    1.522029    1.271278
  H      2.062212   -1.045609   -1.050872
  H      2.297677    0.705945   -0.878393
  H      4.243301   -0.567056    0.068724
  H      3.400048    0.325101    1.344287
  H      3.147703   -1.414426    1.172386

----------------------------
CARTESIAN COORDINATES (A.U.)
----------------------------
  NO LB      ZA    FRAG     MASS         X           Y           Z
   0 C     6.0000    0    12.011   -4.995070   -2.319512   -0.644525
   1 C     6.0000    0    12.011   -4.863819    0.416338    0.244907
   2 C     6.0000    0    12.011   -2.374152    0.973249    1.605940
   3 C     6.0000    0    12.011   -0.162627    0.898154   -0.188002
   4 O     8.0000    0    15.999   -0.134322    1.820229   -2.288602
   5 O     8.0000    0    15.999    1.802411   -0.283474    0.822786
   6 C     6.0000    0    12.011    4.101217   -0.437440   -0.618139
   7 C     6.0000    0    12.011    6.270691   -0.924509    1.191089
   8 H     1.0000    0     1.008   -4.813170   -3.607402    0.946369
   9 H     1.0000    0     1.008   -6.786487   -2.683076   -1.579993
  10 H     1.0000    0     1.008   -3.478849   -2.710223   -1.978460
  11 H     1.0000    0     1.008   -6.428568    0.803897    1.527733
  12 H     1.0000    0     1.008   -5.022686    1.678756   -1.378671
  13 H     1.0000    0     1.008   -2.030091   -0.371878    3.126155
  14 H     1.0000    0     1.008   -2.433650    2.876218    2.402368
  15 H     1.0000    0     1.008    3.897016   -1.975915   -1.985860
  16 H     1.0000    0     1.008    4.341980    1.334043   -1.659921
  17 H     1.0000    0     1.008    8.018676   -1.071581    0.129870
  18 H     1.0000    0     1.008    6.425159    0.614352    2.540334
  19 H     1.0000    0     1.008    5.948297   -2.672877    2.215488

--------------------------------
INTERNAL COORDINATES (ANGSTROEM)
--------------------------------
 C      0   0   0     0.000000000000     0.00000000     0.00000000
 C      1   0   0     1.523919096114     0.00000000     0.00000000
 C      2   1   0     1.530137018476   111.56712695     0.00000000
 C      3   2   1     1.507431978990   111.52750396    68.35866874
 O      4   3   2     1.214059961313   125.14061498    43.24162328
 O      4   3   2     1.326041590615   111.54301849   222.34701424
 C      6   4   3     1.438007449012   118.43761525   182.19515856
 C      7   6   4     1.516917517343   108.37225137   158.81155171
 H      1   2   3     1.087416447630   110.62588792    58.91346387
 H      1   2   3     1.086613372566   110.40603665   179.15482902
 H      1   2   3     1.088481035997   110.31325067   298.82212976
 H      2   1   3     1.090193066268   109.65878530   239.21014107
 H      2   1   3     1.091561160213   109.56102923   120.29016364
 H      3   2   1     1.089488037433   111.44508029   306.87415925
 H      3   2   1     1.092097877105   109.53708367   186.42191169
 H      7   6   4     1.094675961307   108.01211731   279.68343110
 H      7   6   4     1.094953270451   108.47528817    36.95613332
 H      8   7   6     1.084912369898   109.31476745   179.23297675
 H      8   7   6     1.086092631345   110.14975128   299.29708702
 H      8   7   6     1.085796792406   109.93611821    59.19868773

---------------------------
INTERNAL COORDINATES (A.U.)
---------------------------
 C      0   0   0     0.000000000000     0.00000000     0.00000000
 C      1   0   0     2.879789741908     0.00000000     0.00000000
 C      2   1   0     2.891539912294   111.56712695     0.00000000
 C      3   2   1     2.848633605805   111.52750396    68.35866874
 O      4   3   2     2.294240837041   125.14061498    43.24162328
 O      4   3   2     2.505855448452   111.54301849   222.34701424
 C      6   4   3     2.717440257171   118.43761525   182.19515856
 C      7   6   4     2.866558675527   108.37225137   158.81155171
 H      1   2   3     2.054919279543   110.62588792    58.91346387
 H      1   2   3     2.053401687607   110.40603665   179.15482902
 H      1   2   3     2.056931060002   110.31325067   298.82212976
 H      2   1   3     2.060166328346   109.65878530   239.21014107
 H      2   1   3     2.062751651229   109.56102923   120.29016364
 H      3   2   1     2.058834016932   111.44508029   306.87415925
 H      3   2   1     2.063765899165   109.53708367   186.42191169
 H      7   6   4     2.068637772258   108.01211731   279.68343110
 H      7   6   4     2.069161810594   108.47528817    36.95613332
 H      8   7   6     2.050187258411   109.31476745   179.23297675
 H      8   7   6     2.052417629311   110.14975128   299.29708702
 H      8   7   6     2.051858574738   109.93611821    59.19868773

---------------------
BASIS SET INFORMATION
---------------------
There are 3 groups of distinct atoms

 Group   1 Type C   : 11s6p1d contracted to 5s3p1d pattern {62111/411/1}
 Group   2 Type O   : 11s6p2d contracted to 5s3p2d pattern {62111/411/11}
 Group   3 Type H   : 4s1p contracted to 2s1p pattern {31/1}

Atom   0C    basis set group =>   1
Atom   1C    basis set group =>   1
Atom   2C    basis set group =>   1
Atom   3C    basis set group =>   1
Atom   4O    basis set group =>   2
Atom   5O    basis set group =>   2
Atom   6C    basis set group =>   1
Atom   7C    basis set group =>   1
Atom   8H    basis set group =>   3
Atom   9H    basis set group =>   3
Atom  10H    basis set group =>   3
Atom  11H    basis set group =>   3
Atom  12H    basis set group =>   3
Atom  13H    basis set group =>   3
Atom  14H    basis set group =>   3
Atom  15H    basis set group =>   3
Atom  16H    basis set group =>   3
Atom  17H    basis set group =>   3
Atom  18H    basis set group =>   3
Atom  19H    basis set group =>   3
---------------------------------
AUXILIARY/J BASIS SET INFORMATION
---------------------------------
There are 3 groups of distinct atoms

 Group   1 Type C   : 12s5p4d2f1g contracted to 6s4p3d1f1g pattern {711111/2111/211/2/1}
 Group   2 Type O   : 12s5p4d2f1g contracted to 6s4p3d1f1g pattern {711111/2111/211/2/1}
 Group   3 Type H   : 5s2p1d contracted to 3s1p1d pattern {311/2/1}

Atom   0C    basis set group =>   1
Atom   1C    basis set group =>   1
Atom   2C    basis set group =>   1
Atom   3C    basis set group =>   1
Atom   4O    basis set group =>   2
Atom   5O    basis set group =>   2
Atom   6C    basis set group =>   1
Atom   7C    basis set group =>   1
Atom   8H    basis set group =>   3
Atom   9H    basis set group =>   3
Atom  10H    basis set group =>   3
Atom  11H    basis set group =>   3
Atom  12H    basis set group =>   3
Atom  13H    basis set group =>   3
Atom  14H    basis set group =>   3
Atom  15H    basis set group =>   3
Atom  16H    basis set group =>   3
Atom  17H    basis set group =>   3
Atom  18H    basis set group =>   3
Atom  19H    basis set group =>   3

Checking for AutoStart:
The File: sp_solv.gbw exists
Trying to determine its content:
     ... Fine, the file contains calculation information
     ... Fine, the calculation information was read
     ... Fine, the file contains a basis set
     ... Fine, the basis set was read
     ... Fine, the file contains a geometry
     ... Fine, the geometry was read
     ... Fine, the file contains a set of orbitals
     ... Fine, the orbitals can be read
     => possible old guess file was deleted
     => GBW file was renamed to GES file
     => GES file is set as startup file
     => Guess is set to MORead
     ... now leaving AutoStart

------------------------------------------------------------------------------
                             ORCA STARTUP CALCULATIONS
                           -- RI-GTO INTEGRALS CHOSEN --
------------------------------------------------------------------------------
------------------------------------------------------------------------------
                   ___                                                        
                  /   \      - P O W E R E D   B Y -                         
                 /     \                                                     
                 |  |  |   _    _      __       _____    __    __             
                 |  |  |  | |  | |    /  \     |  _  \  |  |  /  |          
                  \  \/   | |  | |   /    \    | | | |  |  | /  /          
                 / \  \   | |__| |  /  /\  \   | |_| |  |  |/  /          
                |  |  |   |  __  | /  /__\  \  |    /   |      \           
                |  |  |   | |  | | |   __   |  |    \   |  |\   \          
                \     /   | |  | | |  |  |  |  | |\  \  |  | \   \       
                 \___/    |_|  |_| |__|  |__|  |_| \__\ |__|  \__/        
                                                                              
                      - O R C A' S   B I G   F R I E N D -                    
                                      &                                       
                       - I N T E G R A L  F E E D E R -                       
                                                                              
 v1 FN, 2020, v2 2021, v3 2022-2024                                           
------------------------------------------------------------------------------


----------------------
SHARK INTEGRAL PACKAGE
----------------------

Number of atoms                             ...     20
Number of basis functions                   ...    222
Number of shells                            ...    110
Maximum angular momentum                    ...      2
Integral batch strategy                     ... SHARK/LIBINT Hybrid
RI-J (if used) integral strategy            ... SPLIT-RIJ (Revised 2003 algorithm where possible)
Printlevel                                  ...      1
Contraction scheme used                     ... SEGMENTED contraction
Prescreening option                         ... SCHWARTZ
   Thresh                                   ... 1.000e-10
   Tcut                                     ... 1.000e-11
   Tpresel                                  ... 1.000e-11 
Coulomb Range Separation                    ... NOT USED
Exchange Range Separation                   ... NOT USED
Multipole approximations                    ... NOT USED
Finite Nucleus Model                        ... NOT USED
CABS basis                                  ... NOT available
Auxiliary Coulomb fitting basis             ... AVAILABLE
   # of basis functions in Aux-J            ...    524
   # of shells in Aux-J                     ...    180
   Maximum angular momentum in Aux-J        ...      4
Auxiliary J/K fitting basis                 ... NOT available
Auxiliary Correlation fitting basis         ... NOT available
Auxiliary 'external' fitting basis          ... NOT available

Checking pre-screening integrals            ... done (  0.0 sec) Dimension = 110
Check shell pair data                       ... done (  0.0 sec)
Shell pair information
Shell pair cut-off parameter TPreSel        ...   1.0e-11
Total number of shell pairs                 ...      6105
Shell pairs after pre-screening             ...      5251
Total number of primitive shell pairs       ...     21533
Primitive shell pairs kept                  ...     13061
          la=0 lb=0:   1764 shell pairs
          la=1 lb=0:   1979 shell pairs
          la=1 lb=1:    580 shell pairs
          la=2 lb=0:    560 shell pairs
          la=2 lb=1:    317 shell pairs
          la=2 lb=2:     51 shell pairs

Calculating one electron integrals          ... done (  0.0 sec)
Calculating RI/J V-Matrix + Cholesky decomp.... done (  0.2 sec)
Calculating Nuclear repulsion               ... done (  0.0 sec) ENN=    391.451622253805 Eh

Diagonalization of the overlap matrix:
Smallest eigenvalue                        ... 1.796e-04
Time for diagonalization                   ...    0.011 sec
Threshold for overlap eigenvalues          ... 1.000e-07
Number of eigenvalues below threshold      ... 0
Time for construction of square roots      ...    0.018 sec
Total time needed                          ...    0.039 sec

-------------------
DFT GRID GENERATION
-------------------

General Integration Accuracy     IntAcc      ... 4.388
Radial Grid Type                 RadialGrid  ... OptM3 with GC (2021)
Angular Grid (max. ang.)         AngularGrid ... 4 (Lebedev-302)
Angular grid pruning method      GridPruning ... 4 (adaptive)
Weight generation scheme         WeightScheme... mBecke (2022)
Basis function cutoff            BFCut       ... 1.0000e-10
Integration weight cutoff        WCut        ... 1.0000e-14
Partially contracted basis set               ... off
Rotationally invariant grid construction     ... off
Angular grids for H and He will be reduced by one unit
Diffuse basis detected: some atoms will have their outermost
                        angular grid increased by 1.

Total number of grid points                  ...    87454
Total number of batches                      ...     1376
Average number of points per batch           ...       63
Average number of grid points per atom       ...     4373
Initializing property integral containers    ... done (  0.0 sec)

SHARK setup successfully completed in   1.5 seconds

Maximum memory used throughout the entire STARTUP-calculation: 39.3 MB
-------------------------------------------------------------------------------
                                 ORCA GUESS
                   Start orbitals & Density for SCF / CASSCF
-------------------------------------------------------------------------------

------------
SCF SETTINGS
------------
Hamiltonian:
 Density Functional     Method          .... DFT(GTOs)
  Functional kind                       .... Exchange
  Functional name                       .... Re-regularized SCAN exchange by Furness et al
  Functional family                     .... MGGA
  Functional refs                              
    [ 0] J. W. Furness, A. D. Kaplan, J. Ning, J. P. Perdew, and J. Sun.,  J. Phys. Chem. Lett. 11, 8208-8215 (2020), doi: 10.1021/acs.jpclett.0c02405
    [ 1] J. W. Furness, A. D. Kaplan, J. Ning, J. P. Perdew, and J. Sun.,  J. Phys. Chem. Lett. 11, 9248-9248 (2020), doi: 10.1021/acs.jpclett.0c03077
  Functional external parameters        .... 6
    Parameter  0 _c1        =  6.670000e-01 : c1 parameter        
    Parameter  1 _c2        =  8.000000e-01 : c2 parameter        
    Parameter  2 _d         =  1.240000e+00 : d parameter         
    Parameter  3 _k1        =  6.500000e-02 : k1 parameter        
    Parameter  4 _eta       =  1.000000e-03 : eta parameter       
    Parameter  5 _dp2       =  3.610000e-01 : dp2 parameter       
  Functional kind                       .... Correlation
  Functional name                       .... Re-regularized SCAN correlation by Furness et al
  Functional family                     .... MGGA
  Functional refs                              
    [ 0] J. W. Furness, A. D. Kaplan, J. Ning, J. P. Perdew, and J. Sun.,  J. Phys. Chem. Lett. 11, 8208-8215 (2020), doi: 10.1021/acs.jpclett.0c02405
    [ 1] J. W. Furness, A. D. Kaplan, J. Ning, J. P. Perdew, and J. Sun.,  J. Phys. Chem. Lett. 11, 9248-9248 (2020), doi: 10.1021/acs.jpclett.0c03077
  Functional external parameters        .... 1
    Parameter  0 _eta       =  1.000000e-03 : Regularization parameter
 Gradients option       PostSCFGGA      .... off
 RI-approximation to the Coulomb term is turned on
   Number of AuxJ basis functions       .... 524


General Settings:
 Integral files         IntName         .... sp_solv
 Hartree-Fock type      HFTyp           .... RHF
 Total Charge           Charge          ....    0
 Multiplicity           Mult            ....    1
 Number of Electrons    NEL             ....   64
 Basis Dimension        Dim             ....  222
 Nuclear Repulsion      ENuc            ....    391.4516222538 Eh

Convergence Acceleration:
 AO-DIIS                CNVDIIS         .... on
   Start iteration      DIISMaxIt       ....    12
   Startup error        DIISStart       ....  0.200000
   # of expansion vecs  DIISMaxEq       ....     5
   Bias factor          DIISBfac        ....   1.050
   Max. coefficient     DIISMaxC        ....  10.000
 MO-DIIS                CNVKDIIS        .... off
 Trust-Rad. Augm. Hess. CNVTRAH         .... auto
   Auto Start mean grad. ratio tolernc. ....  1.125000
   Auto Start start iteration           ....     1
   Auto Start num. interpolation iter.  ....    10
   Max. Number of Micro iterations      ....    24
   Max. Number of Macro iterations      .... Maxiter - #DIIS iter
   Number of Davidson start vectors     ....     2
   Converg. threshold    (grad. norm)   ....   3.330e-04
   Grad. Scal. Fac. for Micro threshold ....   0.100
   Minimum threshold for Micro iter.    ....   1.000e-02
   NR start threshold (gradient norm)   ....   1.000e-04
   Initial trust radius                 ....   0.400
   Minimum AH scaling param. (alpha)    ....   1.000
   Maximum AH scaling param. (alpha)    .... 1000.000
   Quad. conv. algorithm                .... NR
   White noise on init. David. guess    .... on
   Maximum white noise                  ....   0.010
   Pseudo random numbers                .... off
   Inactive MOs                         .... canonical
   Orbital update algorithm             .... Taylor
   Preconditioner                       .... Diag
   Full preconditioner red. dimension   ....   250
   COSX micro iterations for RIJONX calc.... off
 SOSCF                  CNVSOSCF        .... on
   Start iteration      SOSCFMaxIt      ....   150
   Startup grad/error   SOSCFStart      ....  0.003300
   Hessian update       SOSCFHessUp     .... L-BFGS
 Level Shifting         CNVShift        .... on
   Level shift para.    LevelShift      ....    0.2500
   Turn off err/grad.   ShiftErr        ....    0.0010
 Zerner damping         CNVZerner       .... off
 Static damping         CNVDamp         .... on
   Fraction old density DampFac         ....    0.7000
   Max. Damping (<1)    DampMax         ....    0.9800
   Min. Damping (>=0)   DampMin         ....    0.0000
   Turn off err/grad.   DampErr         ....    0.1000

SCF Procedure:
 Maximum # iterations   MaxIter         ....   125
 SCF integral mode      SCFMode         .... Direct
   Integral package                     .... SHARK and LIBINT hybrid scheme
 Reset frequency        DirectResetFreq ....    20
 Integral Threshold     Thresh          ....  1.000e-10 Eh
 Primitive CutOff       TCut            ....  1.000e-11 Eh

Convergence Tolerance:
 Convergence Check Mode ConvCheckMode   .... Total+1el-Energy
 Convergence forced     ConvForced      .... 0
 Energy Change          TolE            ....  1.000e-06 Eh
 1-El. energy change                    ....  1.000e-03 Eh
 Orbital Gradient       TolG            ....  3.330e-04
 Orbital Rotation angle TolX            ....  3.330e-04
 DIIS Error             TolErr          ....  1.000e-06

---------------------
INITIAL GUESS: MOREAD
---------------------
Guess MOs are being read from file: sp_solv.ges
Input Geometry matches current geometry (good)
Atom 0: N(Shells)= 9 and 6 - projection required
Input basis set needs projection
NBasis(read)= 136
NBasis(calc)= 222
Basis set overlap was calculated
Using GuessMode=FMatrix for the initial guess
C*T matrix was formed
Effective Fockian was calculated
Effective Fockian was diagonalized
Initial density was built
                      ------------------
                      INITIAL GUESS DONE (   0.1 sec)
                      ------------------
             **** ENERGY FILE WAS UPDATED (sp_solv.en.tmp) ****
Finished Guess after   0.4 sec
Maximum memory used throughout the entire GUESS-calculation: 15.0 MB

-------------------------------------------------------------------------------------------
                                      ORCA LEAN-SCF
                              memory conserving SCF solver
-------------------------------------------------------------------------------------------

--------------------
CPCM SOLVATION MODEL
--------------------
CPCM parameters:
  Epsilon                                         ...      78.3550
  Refrac                                          ...       1.3328
  Rsolv                                           ...       1.3000
  Surface type                                    ... GAUSSIAN VDW
  Discretization scheme                           ... Constant charge density
    Threshold for H atoms                         ...       5.0000 (charges/Ang^2)
    Threshold for non-H atoms                     ...       5.0000 (charges/Ang^2)
  Epsilon function type                           ...         CPCM
Solvent:                                          ... WATER
SMD-CDS solvent descriptors:
  Soln                                            ...       1.3328
  Soln25                                          ...       1.3323
  Sola                                            ...       0.0000
  Solb                                            ...       0.0000
  Solg                                            ...       0.0000
  Solc                                            ...       0.0000
  Solh                                            ...       0.0000
Radii:
  Scheme                                          ... Element-dependent radii
  Radius for C  used is    3.4960 Bohr (=   1.8500 Ang.)
  Radius for O  used is    2.8724 Bohr (=   1.5200 Ang.)
  Radius for H  used is    2.2677 Bohr (=   1.2000 Ang.)
Calculating surface                               ...        done! (  0.0s)
Cavity surface points                             ...         1514
Cavity Volume                                     ...     880.9233
Cavity Surface-area                               ...     589.3969
Calculating surface distance matrix               ...        done! (  0.0s)
Performing Cholesky decomposition & store         ...        done! (  0.2s)
Overall time for CPCM initialization              ...                 0.2s

----------------------------------------D-I-I-S--------------------------------------------
Iteration    Energy (Eh)           Delta-E    RMSDP     MaxDP     DIISErr   Damp  Time(sec)
-------------------------------------------------------------------------------------------
               ***  Starting incremental Fock matrix formation  ***
    1    -386.0568988837164284     0.00e+00  3.73e-03  1.36e-01  6.26e-01  0.700   3.7
    2    -386.1160085977674612    -5.91e-02  3.04e-03  9.99e-02  4.41e-01  0.700   3.5
    3    -386.1578264012054547    -4.18e-02  2.24e-03  7.05e-02  3.10e-01  0.700   3.6
    4    -386.1872170687828998    -2.94e-02  1.61e-03  4.96e-02  2.17e-01  0.700   3.3
                               ***Turning on AO-DIIS***
    5    -386.2078536071199437    -2.06e-02  1.17e-03  3.55e-02  1.52e-01  0.700   3.3
    6    -386.2223216588710670    -1.45e-02  8.30e-04  2.51e-02  1.06e-01  0.700   3.3
    7    -386.2324780037508276    -1.02e-02  5.86e-04  1.77e-02  7.41e-02  0.700   3.3
    8    -386.2395961222015899    -7.12e-03  1.38e-03  4.13e-02  5.21e-02  0.000   3.1
                              *** Initializing SOSCF ***
---------------------------------------S-O-S-C-F--------------------------------------
Iteration    Energy (Eh)           Delta-E    RMSDP     MaxDP     MaxGrad    Time(sec)
--------------------------------------------------------------------------------------
    9    -386.2562381671219214    -1.66e-02  1.23e-05  4.56e-04  1.92e-04     3.3
               *** Restarting incremental Fock matrix formation ***
   10    -386.2562383817112845    -2.15e-07  6.58e-06  1.86e-04  5.07e-05     3.7
                  *** Gradient check signals convergence ***

               *****************************************************
               *                     SUCCESS                       *
               *           SCF CONVERGED AFTER  10 CYCLES          *
               *****************************************************


SMD CDS free energy correction energy :                 4.94124     Kcal/mol
Total Energy after SMD CDS correction =              -386.248364021 Eh
             **** ENERGY FILE WAS UPDATED (sp_solv.en.tmp) ****

----------------
TOTAL SCF ENERGY
----------------

Total Energy       :       -386.24836402112157 Eh          -10510.35232 eV

Components:
Nuclear Repulsion  :        391.45162225380506 Eh           10651.94018 eV
Electronic Energy  :       -777.69192361297826 Eh          -21162.07310 eV
One Electron Energy:      -1300.27212009455684 Eh          -35382.20318 eV
Two Electron Energy:        522.58019648157858 Eh           14220.13008 eV
CPCM Dielectric    :         -0.01593702253813 Eh              -0.43367 eV
SMD CDS (Gcds)     :          0.00787436058971 Eh               0.21427 eV

Virial components:
Potential Energy   :       -770.88895015454705 Eh          -20976.95478 eV
Kinetic Energy     :        384.64058613342542 Eh           10466.60246 eV
Virial Ratio       :          2.00417994862128

DFT components:
N(Alpha)           :       32.000024357837 electrons
N(Beta)            :       32.000024357837 electrons
N(Total)           :       64.000048715674 electrons
E(X)               :      -52.084002453542 Eh       
E(C)               :       -2.037616687498 Eh       
E(XC)              :      -54.121619141040 Eh       

CPCM Solvation Model Properties:
Surface-charge          :         -0.04768191326372
Corrected charge        :         -0.00000000000000
Outlying charge corr.   :          0.00017040710360 Eh               0.00464 eV
Free-energy (cav+disp)  :          0.00787436058971 Eh               0.21427 eV

---------------
SCF CONVERGENCE
---------------

  Last Energy change         ...    2.1459e-07  Tolerance :   1.0000e-06
  Last MAX-Density change    ...    1.8571e-04  Tolerance :   1.0000e-05
  Last RMS-Density change    ...    6.5778e-06  Tolerance :   1.0000e-06
  Last DIIS Error            ...    1.9165e-04  Tolerance :   1.0000e-06
  Last Orbital Gradient      ...    5.0705e-05  Tolerance :   3.3300e-04
  Last Orbital Rotation      ...    1.1689e-04  Tolerance :   3.3300e-04


----------------
ORBITAL ENERGIES
----------------

  NO   OCC          E(Eh)            E(eV) 
   0   2.0000     -19.002799      -517.0925 
   1   2.0000     -18.943309      -515.4736 
   2   2.0000     -10.162113      -276.5251 
   3   2.0000     -10.083324      -274.3812 
   4   2.0000     -10.035251      -273.0731 
   5   2.0000     -10.026555      -272.8364 
   6   2.0000     -10.018704      -272.6228 
   7   2.0000     -10.010980      -272.4126 
   8   2.0000      -1.079019       -29.3616 
   9   2.0000      -0.988513       -26.8988 
  10   2.0000      -0.768643       -20.9158 
  11   2.0000      -0.735658       -20.0183 
  12   2.0000      -0.672252       -18.2929 
  13   2.0000      -0.611716       -16.6456 
  14   2.0000      -0.558493       -15.1974 
  15   2.0000      -0.527371       -14.3505 
  16   2.0000      -0.473441       -12.8830 
  17   2.0000      -0.464334       -12.6352 
  18   2.0000      -0.442436       -12.0393 
  19   2.0000      -0.422515       -11.4972 
  20   2.0000      -0.405674       -11.0389 
  21   2.0000      -0.376836       -10.2542 
  22   2.0000      -0.368635       -10.0311 
  23   2.0000      -0.361630        -9.8404 
  24   2.0000      -0.355427        -9.6717 
  25   2.0000      -0.331219        -9.0129 
  26   2.0000      -0.316800        -8.6206 
  27   2.0000      -0.305211        -8.3052 
  28   2.0000      -0.303247        -8.2518 
  29   2.0000      -0.302466        -8.2305 
  30   2.0000      -0.277969        -7.5639 
  31   2.0000      -0.251952        -6.8560 
  32   0.0000      -0.022702        -0.6178 
  33   0.0000       0.077063         2.0970 
  34   0.0000       0.102957         2.8016 
  35   0.0000       0.115524         3.1436 
  36   0.0000       0.131180         3.5696 
  37   0.0000       0.137924         3.7531 
  38   0.0000       0.142201         3.8695 
  39   0.0000       0.146410         3.9840 
  40   0.0000       0.155250         4.2246 
  41   0.0000       0.167693         4.5632 
  42   0.0000       0.172358         4.6901 
*Only the first 10 virtual orbitals were printed.

                    ********************************
                    * MULLIKEN POPULATION ANALYSIS *
                    ********************************

-----------------------
MULLIKEN ATOMIC CHARGES
-----------------------
   0 C :   -0.527979
   1 C :   -0.220817
   2 C :   -0.308927
   3 C :    0.375466
   4 O :   -0.512220
   5 O :   -0.180795
   6 C :   -0.154214
   7 C :   -0.488338
   8 H :    0.160168
   9 H :    0.160581
  10 H :    0.160718
  11 H :    0.161860
  12 H :    0.151480
  13 H :    0.180424
  14 H :    0.198047
  15 H :    0.172736
  16 H :    0.173354
  17 H :    0.168643
  18 H :    0.165568
  19 H :    0.164246
Sum of atomic charges:    0.0000000

--------------------------------
MULLIKEN REDUCED ORBITAL CHARGES
--------------------------------
  0 C s       :     3.348004  s :     3.348004
      pz      :     1.086580  p :     3.152962
      px      :     1.111545
      py      :     0.954838
      dz2     :     0.002165  d :     0.027013
      dxz     :     0.006315
      dyz     :     0.007762
      dx2y2   :     0.007466
      dxy     :     0.003305

  1 C s       :     3.189578  s :     3.189578
      pz      :     1.057232  p :     2.994484
      px      :     0.981455
      py      :     0.955797
      dz2     :     0.003780  d :     0.036755
      dxz     :     0.008502
      dyz     :     0.009156
      dx2y2   :     0.009899
      dxy     :     0.005419

  2 C s       :     3.235460  s :     3.235460
      pz      :     0.968572  p :     3.038746
      px      :     0.931740
      py      :     1.138434
      dz2     :     0.003753  d :     0.034720
      dxz     :     0.011239
      dyz     :     0.006678
      dx2y2   :     0.009314
      dxy     :     0.003736

  3 C s       :     3.172038  s :     3.172038
      pz      :     0.749524  p :     2.327401
      px      :     0.846249
      py      :     0.731627
      dz2     :     0.027701  d :     0.125096
      dxz     :     0.042570
      dyz     :     0.021400
      dx2y2   :     0.015767
      dxy     :     0.017657

  4 O s       :     3.834023  s :     3.834023
      pz      :     1.352331  p :     4.655614
      px      :     1.796969
      py      :     1.506314
      dz2     :     0.006843  d :     0.022584
      dxz     :     0.002026
      dyz     :     0.008257
      dx2y2   :     0.003878
      dxy     :     0.001580

  5 O s       :     3.703426  s :     3.703426
      pz      :     1.645537  p :     4.438288
      px      :     1.144679
      py      :     1.648071
      dz2     :     0.005455  d :     0.039082
      dxz     :     0.016903
      dyz     :     0.011552
      dx2y2   :     0.003748
      dxy     :     0.001424

  6 C s       :     3.290089  s :     3.290089
      pz      :     0.945111  p :     2.810947
      px      :     0.750084
      py      :     1.115753
      dz2     :     0.005689  d :     0.053177
      dxz     :     0.015275
      dyz     :     0.011938
      dx2y2   :     0.013257
      dxy     :     0.007019

  7 C s       :     3.336051  s :     3.336051
      pz      :     1.027206  p :     3.126654
      px      :     1.002404
      py      :     1.097044
      dz2     :     0.001357  d :     0.025634
      dxz     :     0.007696
      dyz     :     0.007987
      dx2y2   :     0.006639
      dxy     :     0.001955

  8 H s       :     0.821582  s :     0.821582
      pz      :     0.007968  p :     0.018251
      px      :     0.003729
      py      :     0.006554

  9 H s       :     0.821070  s :     0.821070
      pz      :     0.005247  p :     0.018349
      px      :     0.009250
      py      :     0.003852

 10 H s       :     0.821038  s :     0.821038
      pz      :     0.006752  p :     0.018244
      px      :     0.007610
      py      :     0.003882

 11 H s       :     0.820160  s :     0.820160
      pz      :     0.006323  p :     0.017980
      px      :     0.007921
      py      :     0.003736

 12 H s       :     0.830519  s :     0.830519
      pz      :     0.008290  p :     0.018001
      px      :     0.003430
      py      :     0.006281

 13 H s       :     0.801690  s :     0.801690
      pz      :     0.007773  p :     0.017886
      px      :     0.003350
      py      :     0.006763

 14 H s       :     0.783694  s :     0.783694
      pz      :     0.004730  p :     0.018259
      px      :     0.003503
      py      :     0.010027

 15 H s       :     0.809808  s :     0.809808
      pz      :     0.007024  p :     0.017456
      px      :     0.002430
      py      :     0.008002

 16 H s       :     0.808804  s :     0.808804
      pz      :     0.005486  p :     0.017842
      px      :     0.002738
      py      :     0.009618

 17 H s       :     0.812862  s :     0.812862
      pz      :     0.005429  p :     0.018495
      px      :     0.009316
      py      :     0.003751

 18 H s       :     0.816139  s :     0.816139
      pz      :     0.006963  p :     0.018293
      px      :     0.003548
      py      :     0.007782

 19 H s       :     0.817420  s :     0.817420
      pz      :     0.005560  p :     0.018334
      px      :     0.003670
      py      :     0.009105


------------------------
MULLIKEN OVERLAP CHARGES
------------------------
B(  0-C ,  1-C ) :   0.4401 B(  0-C ,  2-C ) :  -0.2310 B(  0-C ,  3-C ) :   0.0566 
B(  0-C ,  8-H ) :   0.8502 B(  0-C ,  9-H ) :   0.7916 B(  0-C , 10-H ) :   0.8454 
B(  0-C , 12-H ) :  -0.0573 B(  1-C ,  2-C ) :   0.4038 B(  1-C ,  3-C ) :  -0.1046 
B(  1-C ,  8-H ) :  -0.0937 B(  1-C ,  9-H ) :  -0.0706 B(  1-C , 10-H ) :  -0.0851 
B(  1-C , 11-H ) :   0.8269 B(  1-C , 12-H ) :   0.8374 B(  1-C , 13-H ) :  -0.0820 
B(  1-C , 14-H ) :  -0.0625 B(  2-C ,  3-C ) :   0.2723 B(  2-C ,  4-O ) :  -0.1372 
B(  2-C ,  5-O ) :  -0.0634 B(  2-C , 10-H ) :  -0.0534 B(  2-C , 11-H ) :  -0.1056 
B(  2-C , 12-H ) :  -0.0578 B(  2-C , 13-H ) :   0.9031 B(  2-C , 14-H ) :   0.7405 
B(  3-C ,  4-O ) :   0.9225 B(  3-C ,  5-O ) :   0.4367 B(  3-C ,  6-C ) :  -0.2026 
B(  3-C , 10-H ) :   0.0557 B(  3-C , 13-H ) :  -0.1564 B(  4-O ,  5-O ) :  -0.2147 
B(  5-O ,  6-C ) :   0.2625 B(  5-O ,  7-C ) :  -0.0832 B(  5-O , 15-H ) :  -0.0733 
B(  5-O , 16-H ) :  -0.0691 B(  6-C ,  7-C ) :   0.4537 B(  6-C , 15-H ) :   0.7682 
B(  6-C , 16-H ) :   0.8508 B(  6-C , 17-H ) :  -0.0689 B(  6-C , 18-H ) :  -0.0857 
B(  7-C , 16-H ) :  -0.0592 B(  7-C , 17-H ) :   0.8140 B(  7-C , 18-H ) :   0.8456 
B(  7-C , 19-H ) :   0.8126 B( 15-H , 16-H ) :  -0.0618 


                     *******************************
                     * LOEWDIN POPULATION ANALYSIS *
                     *******************************

----------------------
LOEWDIN ATOMIC CHARGES
----------------------
   0 C :   -0.423826
   1 C :   -0.295965
   2 C :   -0.229586
   3 C :    0.365527
   4 O :   -0.497887
   5 O :   -0.599783
   6 C :    0.035663
   7 C :   -0.389920
   8 H :    0.155310
   9 H :    0.155820
  10 H :    0.156001
  11 H :    0.160067
  12 H :    0.164028
  13 H :    0.185680
  14 H :    0.194061
  15 H :    0.184076
  16 H :    0.188221
  17 H :    0.168080
  18 H :    0.162175
  19 H :    0.162258

-------------------------------
LOEWDIN REDUCED ORBITAL CHARGES
-------------------------------
  0 C s       :     2.971529  s :     2.971529
      pz      :     1.151605  p :     3.389499
      px      :     1.154885
      py      :     1.083009
      dz2     :     0.004900  d :     0.062798
      dxz     :     0.015622
      dyz     :     0.017810
      dx2y2   :     0.018076
      dxy     :     0.006391

  1 C s       :     2.934575  s :     2.934575
      pz      :     1.124129  p :     3.281900
      px      :     1.070260
      py      :     1.087511
      dz2     :     0.007729  d :     0.079490
      dxz     :     0.019605
      dyz     :     0.020038
      dx2y2   :     0.022143
      dxy     :     0.009976

  2 C s       :     2.922545  s :     2.922545
      pz      :     1.073228  p :     3.233797
      px      :     1.022885
      py      :     1.137685
      dz2     :     0.007262  d :     0.073244
      dxz     :     0.023181
      dyz     :     0.016119
      dx2y2   :     0.020376
      dxy     :     0.006306

  3 C s       :     2.738723  s :     2.738723
      pz      :     0.961746  p :     2.623986
      px      :     0.908907
      py      :     0.753332
      dz2     :     0.060837  d :     0.271764
      dxz     :     0.092887
      dyz     :     0.047896
      dx2y2   :     0.031594
      dxy     :     0.038550

  4 O s       :     3.543632  s :     3.543632
      pz      :     1.496690  p :     4.731353
      px      :     1.729486
      py      :     1.505177
      dz2     :     0.069860  d :     0.222902
      dxz     :     0.058985
      dyz     :     0.052289
      dx2y2   :     0.023250
      dxy     :     0.018517

  5 O s       :     3.464418  s :     3.464418
      pz      :     1.648015  p :     4.656638
      px      :     1.354396
      py      :     1.654228
      dz2     :     0.076800  d :     0.478726
      dxz     :     0.125173
      dyz     :     0.065172
      dx2y2   :     0.113310
      dxy     :     0.098270

  6 C s       :     2.869188  s :     2.869188
      pz      :     1.003099  p :     2.976005
      px      :     0.866635
      py      :     1.106271
      dz2     :     0.010134  d :     0.119144
      dxz     :     0.036194
      dyz     :     0.028877
      dx2y2   :     0.030714
      dxy     :     0.013225

  7 C s       :     2.972056  s :     2.972056
      pz      :     1.119442  p :     3.357788
      px      :     1.081655
      py      :     1.156691
      dz2     :     0.002666  d :     0.060076
      dxz     :     0.018357
      dyz     :     0.019717
      dx2y2   :     0.015822
      dxy     :     0.003515

  8 H s       :     0.800909  s :     0.800909
      pz      :     0.019747  p :     0.043781
      px      :     0.008283
      py      :     0.015752

  9 H s       :     0.800267  s :     0.800267
      pz      :     0.012255  p :     0.043913
      px      :     0.022955
      py      :     0.008703

 10 H s       :     0.799936  s :     0.799936
      pz      :     0.016425  p :     0.044063
      px      :     0.018773
      py      :     0.008865

 11 H s       :     0.796255  s :     0.796255
      pz      :     0.015685  p :     0.043677
      px      :     0.019207
      py      :     0.008785

 12 H s       :     0.792050  s :     0.792050
      pz      :     0.020724  p :     0.043923
      px      :     0.007757
      py      :     0.015442

 13 H s       :     0.769899  s :     0.769899
      pz      :     0.019402  p :     0.044421
      px      :     0.007929
      py      :     0.017090

 14 H s       :     0.760795  s :     0.760795
      pz      :     0.011086  p :     0.045145
      px      :     0.008499
      py      :     0.025560

 15 H s       :     0.774877  s :     0.774877
      pz      :     0.015929  p :     0.041048
      px      :     0.005831
      py      :     0.019288

 16 H s       :     0.769279  s :     0.769279
      pz      :     0.012480  p :     0.042500
      px      :     0.006218
      py      :     0.023802

 17 H s       :     0.787508  s :     0.787508
      pz      :     0.013249  p :     0.044413
      px      :     0.022807
      py      :     0.008357

 18 H s       :     0.794015  s :     0.794015
      pz      :     0.016761  p :     0.043810
      px      :     0.007726
      py      :     0.019322

 19 H s       :     0.793899  s :     0.793899
      pz      :     0.013035  p :     0.043843
      px      :     0.008179
      py      :     0.022629


---------------------------------
LOEWDIN BOND ORDERS (THRESH 0.050000)
---------------------------------
B(  0-C ,  1-C ) :   1.1417 B(  0-C ,  2-C ) :   0.0671 B(  0-C ,  8-H ) :   0.9281 
B(  0-C ,  9-H ) :   0.9287 B(  0-C , 10-H ) :   0.9213 B(  1-C ,  2-C ) :   1.0875 
B(  1-C ,  3-C ) :   0.0705 B(  1-C , 11-H ) :   0.8916 B(  1-C , 12-H ) :   0.8858 
B(  2-C ,  3-C ) :   0.9281 B(  2-C ,  4-O ) :   0.1804 B(  2-C ,  5-O ) :   0.1873 
B(  2-C , 13-H ) :   0.8598 B(  2-C , 14-H ) :   0.8543 B(  3-C ,  4-O ) :   2.1316 
B(  3-C ,  5-O ) :   1.4714 B(  3-C ,  6-C ) :   0.0890 B(  4-O ,  5-O ) :   0.4565 
B(  4-O ,  6-C ) :   0.0718 B(  5-O ,  6-C ) :   1.2899 B(  5-O ,  7-C ) :   0.1700 
B(  5-O , 15-H ) :   0.0950 B(  5-O , 16-H ) :   0.0918 B(  6-C ,  7-C ) :   1.0907 
B(  6-C , 15-H ) :   0.8262 B(  6-C , 16-H ) :   0.8158 B(  7-C , 17-H ) :   0.9155 
B(  7-C , 18-H ) :   0.9224 B(  7-C , 19-H ) :   0.9206 

------------------------------------------
LOEWDIN REDUCED ORBITAL POPULATIONS PER MO
-------------------------------------------
THRESHOLD FOR PRINTING IS 0.1%%
                      0         1         2         3         4         5   
                 -19.00280 -18.94331 -10.16211 -10.08332 -10.03525 -10.02656
                   2.00000   2.00000   2.00000   2.00000   2.00000   2.00000
                  --------  --------  --------  --------  --------  --------
 1 C  s               0.0       0.0       0.0       0.0       0.0      99.7
 2 C  s               0.0       0.0       0.0       0.0      99.7       0.0
 3 C  s               0.0       0.0      98.9       0.0       0.0       0.0
 4 O  s               0.0      99.9       0.0       0.0       0.0       0.0
 4 O  pz              0.0       0.0       0.2       0.0       0.0       0.0
 4 O  dz2             0.0       0.0       0.2       0.0       0.0       0.0
 4 O  dyz             0.0       0.0       0.1       0.0       0.0       0.0
 5 O  s              99.9       0.0       0.0       0.0       0.0       0.0
 5 O  dxz             0.0       0.0       0.1       0.2       0.0       0.0
 5 O  dx2y2           0.0       0.0       0.0       0.1       0.0       0.0
 5 O  dxy             0.0       0.0       0.1       0.0       0.0       0.0
 6 C  s               0.0       0.0       0.0      99.4       0.0       0.0

                      6         7         8         9        10        11   
                 -10.01870 -10.01098  -1.07902  -0.98851  -0.76864  -0.73566
                   2.00000   2.00000   2.00000   2.00000   2.00000   2.00000
                  --------  --------  --------  --------  --------  --------
 0 C  s               0.0      99.7       0.0       0.0       7.3       6.0
 0 C  pz              0.0       0.0       0.0       0.0       0.3       0.1
 0 C  py              0.0       0.0       0.0       0.0       1.8       0.8
 1 C  s               0.0       0.0       0.1       0.0      17.2       8.6
 1 C  pz              0.0       0.0       0.0       0.0       0.2       0.0
 1 C  px              0.0       0.0       0.2       0.1       1.6       0.0
 1 C  py              0.0       0.1       0.0       0.0       0.2       0.4
 2 C  s               0.0       0.0       1.0       0.2      20.3       1.7
 2 C  pz              0.0       0.0       0.6       0.4       0.7       0.2
 2 C  px              0.0       0.0       1.4       0.0       0.4       2.6
 2 C  py              0.0       0.0       0.0       0.0       0.2       0.0
 3 C  s               0.0       0.0      16.9       3.1       3.2       1.0
 3 C  pz              0.0       0.0       0.4      15.3       5.6       0.7
 3 C  px              0.0       0.0       4.2       2.8       4.1       1.3
 3 C  py              0.0       0.0       0.3       5.5       0.3       0.5
 3 C  dz2             0.0       0.0       0.1       1.2       0.0       0.0
 3 C  dxz             0.0       0.0       0.2       0.1       0.0       0.1
 3 C  dyz             0.0       0.0       0.5       0.3       0.0       0.0
 3 C  dx2y2           0.0       0.0       0.1       0.1       0.1       0.0
 3 C  dxy             0.0       0.0       0.3       0.2       0.0       0.1
 4 O  s               0.0       0.0      14.4      40.7       1.7       0.1
 4 O  pz              0.0       0.0       2.6       2.7       0.4       0.1
 4 O  px              0.0       0.0       0.0       0.1       0.1       0.0
 4 O  py              0.0       0.0       0.6       0.4       0.0       0.0
 4 O  dz2             0.0       0.0       0.4       0.1       0.3       0.1
 4 O  dxz             0.0       0.0       0.2       0.2       0.2       0.1
 4 O  dyz             0.0       0.0       0.7       0.1       0.1       0.1
 5 O  s               0.0       0.0      39.4      18.7       0.0       0.8
 5 O  pz              0.0       0.0       1.8       0.3       0.4       0.3
 5 O  px              0.0       0.0       0.4       0.6       6.0       9.9
 5 O  py              0.0       0.0       0.7       0.2       0.4       0.8
 5 O  dz2             0.0       0.0       0.0       0.1       0.1       0.0
 5 O  dxz             0.0       0.0       0.1       0.7       0.1       0.8
 5 O  dyz             0.0       0.0       0.2       0.4       0.0       0.0
 5 O  dx2y2           0.0       0.0       0.2       0.1       0.0       0.8
 5 O  dxy             0.0       0.0       0.4       0.2       0.1       0.0
 6 C  s               0.0       0.0       4.0       2.0       4.9      17.0
 6 C  pz              0.0       0.0       0.9       0.9       0.3       0.7
 6 C  px              0.1       0.0       4.2       1.1       0.2       2.3
 6 C  py              0.0       0.0       0.1       0.0       0.0       0.2
 6 C  dxz             0.0       0.0       0.2       0.1       0.0       0.1
 6 C  dx2y2           0.0       0.0       0.2       0.1       0.0       0.0
 7 C  s              99.7       0.0       0.3       0.2       2.9      18.3
 7 C  pz              0.0       0.0       0.1       0.0       0.2       0.7
 7 C  px              0.0       0.0       0.5       0.3       0.4       1.1
 8 H  s               0.0       0.0       0.0       0.0       1.0       0.9
 9 H  s               0.0       0.0       0.0       0.0       0.9       0.9
10 H  s               0.0       0.0       0.0       0.0       1.0       0.9
11 H  s               0.0       0.0       0.0       0.0       2.2       1.3
11 H  px              0.0       0.0       0.0       0.0       0.1       0.1
12 H  s               0.0       0.0       0.0       0.0       2.2       1.3
12 H  pz              0.0       0.0       0.0       0.0       0.1       0.1
13 H  s               0.0       0.0       0.1       0.0       3.0       0.1
13 H  pz              0.0       0.0       0.0       0.0       0.2       0.0
13 H  py              0.0       0.0       0.0       0.0       0.1       0.0
14 H  s               0.0       0.0       0.0       0.0       2.8       0.3
14 H  py              0.0       0.0       0.0       0.0       0.2       0.0
15 H  s               0.0       0.0       0.2       0.1       0.7       2.7
15 H  pz              0.0       0.0       0.0       0.0       0.0       0.1
15 H  py              0.0       0.0       0.0       0.0       0.0       0.1
16 H  s               0.0       0.0       0.3       0.1       0.7       2.6
16 H  py              0.0       0.0       0.0       0.0       0.1       0.2
17 H  s               0.0       0.0       0.0       0.0       0.4       2.9
17 H  px              0.0       0.0       0.0       0.0       0.0       0.2
18 H  s               0.0       0.0       0.0       0.0       0.4       2.8
18 H  pz              0.0       0.0       0.0       0.0       0.0       0.1
18 H  py              0.0       0.0       0.0       0.0       0.0       0.1
19 H  s               0.0       0.0       0.0       0.0       0.4       2.9
19 H  py              0.0       0.0       0.0       0.0       0.0       0.2

                     12        13        14        15        16        17   
                  -0.67225  -0.61172  -0.55849  -0.52737  -0.47344  -0.46433
                   2.00000   2.00000   2.00000   2.00000   2.00000   2.00000
                  --------  --------  --------  --------  --------  --------
 0 C  s              19.6       6.9       6.5       0.9       0.1       0.1
 0 C  pz              0.0       0.2       0.4       0.0       1.2       0.5
 0 C  px              0.1       0.0       0.2       0.1       0.5       0.7
 0 C  py              0.1       1.1       6.0       1.8       0.7       0.0
 0 C  dx2y2           0.0       0.0       0.1       0.0       0.0       0.0
 1 C  s               3.2       1.9      12.0       2.7       0.1       0.0
 1 C  pz              1.8       1.0       0.0       0.2       7.1       0.9
 1 C  px              2.8       0.4       2.0       1.3       0.7       0.4
 1 C  py              4.4       3.3       4.0       0.4       0.2       0.6
 1 C  dx2y2           0.2       0.1       0.0       0.0       0.0       0.0
 2 C  s              11.4       3.1       1.8       1.8       1.7       0.1
 2 C  pz              0.2       0.1       0.4       1.2      17.1       1.0
 2 C  px              2.6       2.6       6.4       0.2       1.6       0.4
 2 C  py              0.4       0.4       0.0       0.1       0.0       7.2
 2 C  dxz             0.1       0.1       0.2       0.0       0.1       0.0
 3 C  s               2.6       1.8       1.0       2.0       2.5       0.9
 3 C  pz              3.6       0.8       0.8       0.2       0.4       0.9
 3 C  px              3.0       1.2       2.0       3.6      10.1       0.1
 3 C  py              0.1       0.7       0.1       1.1       0.9      11.9
 3 C  dxz             0.1       0.1       0.2       0.0       0.0       0.0
 4 O  s               0.6       0.2       0.5       2.2       4.5       3.9
 4 O  pz              0.5       0.2       0.6       1.6       8.3      14.0
 4 O  px              0.2       0.1       0.0       1.7       7.1       0.0
 4 O  py              0.0       0.1       0.0       1.4       3.0       0.7
 4 O  dz2             0.3       0.1       0.1       0.0       0.1       0.5
 4 O  dxz             0.2       0.0       0.0       0.2       0.7       0.0
 4 O  dyz             0.0       0.1       0.0       0.2       0.2       0.1
 4 O  dx2y2           0.0       0.1       0.0       0.0       0.0       0.3
 4 O  dxy             0.0       0.0       0.0       0.1       0.1       0.0
 5 O  s               1.0       0.1       1.8       4.4       0.1       0.1
 5 O  pz              0.3       0.7       0.9       7.7       0.0       0.2
 5 O  px              1.3      14.2       0.1      12.2       0.4       6.3
 5 O  py              0.1       1.5       0.0       4.6       6.5      15.5
 5 O  dz2             0.5       0.1       0.0       0.1       0.2       0.3
 5 O  dxz             0.0       0.9       0.9       0.3       0.4       0.1
 5 O  dyz             0.0       0.0       0.0       0.1       0.2       0.3
 5 O  dx2y2           0.8       0.0       0.4       0.0       0.2       0.1
 5 O  dxy             0.3       0.1       0.1       0.0       0.3       0.0
 6 C  s               0.6       3.6       5.5       4.1       0.1       0.1
 6 C  pz              0.1       1.0       4.0      14.3       0.4       2.8
 6 C  px              3.0       5.6       0.1       2.4       0.2       0.1
 6 C  py              0.0       0.0       0.0       0.7       5.2      12.5
 6 C  dxz             0.2       0.3       0.0       0.2       0.0       0.0
 6 C  dx2y2           0.0       0.0       0.1       0.2       0.0       0.0
 7 C  s               7.7      14.9       2.9       0.2       0.1       0.0
 7 C  pz              0.0       0.7       2.1       3.5       0.0       0.5
 7 C  px              0.0       2.3       1.1       0.1       0.6       0.1
 7 C  py              0.0       0.1       0.1       0.1       0.9       3.6
 8 H  s               3.8       1.9       3.1       0.7       0.8       0.0
 8 H  pz              0.2       0.1       0.2       0.0       0.0       0.0
 8 H  py              0.1       0.0       0.0       0.0       0.0       0.0
 9 H  s               4.3       2.1       2.5       0.4       0.1       0.5
 9 H  px              0.3       0.1       0.2       0.0       0.0       0.0
10 H  s               3.8       2.1       3.3       0.6       0.2       0.0
10 H  pz              0.1       0.1       0.1       0.0       0.0       0.0
10 H  px              0.2       0.1       0.1       0.0       0.0       0.0
11 H  s               0.7       0.7       5.8       1.5       0.8       0.0
11 H  pz              0.0       0.0       0.2       0.1       0.0       0.0
11 H  px              0.0       0.1       0.2       0.0       0.0       0.0
12 H  s               0.6       0.6       5.2       1.4       1.7       0.4
12 H  pz              0.0       0.0       0.3       0.1       0.0       0.0
12 H  py              0.0       0.0       0.1       0.0       0.0       0.0
13 H  s               2.4       0.4       1.1       1.2       4.9       2.4
13 H  pz              0.1       0.0       0.0       0.0       0.0       0.1
13 H  py              0.1       0.0       0.0       0.0       0.2       0.0
14 H  s               2.9       1.2       0.7       1.2       2.9       0.8
14 H  py              0.2       0.1       0.0       0.1       0.2       0.0
15 H  s               0.1       1.2       3.2       4.0       0.6       4.5
15 H  pz              0.0       0.1       0.1       0.0       0.1       0.1
15 H  py              0.0       0.1       0.2       0.2       0.0       0.1
16 H  s               0.1       1.0       3.1       6.2       1.6       1.1
16 H  pz              0.0       0.0       0.0       0.0       0.0       0.1
16 H  py              0.0       0.1       0.2       0.3       0.0       0.0
17 H  s               1.8       5.0       1.0       0.1       0.2       0.2
17 H  pz              0.0       0.1       0.0       0.0       0.0       0.0
17 H  px              0.1       0.3       0.0       0.0       0.0       0.0
18 H  s               1.6       4.3       1.5       0.4       0.3       0.8
18 H  pz              0.1       0.1       0.0       0.0       0.0       0.0
18 H  py              0.1       0.2       0.1       0.0       0.0       0.0
19 H  s               1.5       4.2       1.5       0.6       0.1       0.5
19 H  py              0.1       0.2       0.1       0.0       0.0       0.0

                     18        19        20        21        22        23   
                  -0.44244  -0.42252  -0.40567  -0.37684  -0.36863  -0.36163
                   2.00000   2.00000   2.00000   2.00000   2.00000   2.00000
                  --------  --------  --------  --------  --------  --------
 0 C  s               0.0       0.2       0.1       0.0       0.0       0.0
 0 C  pz              1.5       0.7      14.3       1.9       5.5      10.1
 0 C  px              0.2       8.8       2.7      15.6       0.9       1.8
 0 C  py              0.8       0.9       0.2       0.2       7.8       0.9
 1 C  s               0.1       0.1       0.2       0.3       0.0       0.0
 1 C  pz              5.8       0.0       7.7       0.0       4.5       0.9
 1 C  px              0.5       7.9       5.5       6.8       0.7       0.1
 1 C  py              0.4       2.5       4.9       0.9       1.7       0.1
 2 C  s               0.6       0.0       0.7       0.1       0.1       0.1
 2 C  pz              2.0       2.0       0.2       1.7       3.7       8.0
 2 C  px              3.8       0.5       1.0       1.6       3.0       1.3
 2 C  py              0.2      15.2       6.8       0.2       5.5       0.5
 2 C  dxz             0.0       0.0       0.1       0.1       0.0       0.1
 3 C  s               0.6       0.0       0.7       0.0       0.0       0.4
 3 C  pz              8.5       0.5       0.8       1.1       0.1       4.3
 3 C  px              1.3       0.7       0.8       2.2       0.6       2.1
 3 C  py              0.7       3.1       1.1       5.4       0.0       0.4
 3 C  dz2             0.0       0.0       0.1       0.1       0.0       0.2
 3 C  dxz             0.1       0.0       0.0       0.0       0.1       0.1
 3 C  dyz             0.0       0.0       0.1       0.0       0.0       0.1
 3 C  dxy             0.0       0.1       0.1       0.0       0.1       0.0
 4 O  s               6.8       0.0       0.4       0.0       0.0       0.8
 4 O  pz             15.1       1.3       6.2       0.5       0.0       5.3
 4 O  px              1.8       0.2       0.4       2.2       2.5       0.7
 4 O  py             10.2       1.7       0.1       9.6       0.0       3.4
 4 O  dz2             0.1       0.2       0.2       0.1       0.0       0.1
 4 O  dxz             0.1       0.0       0.0       0.1       0.1       0.1
 4 O  dyz             0.2       0.1       0.0       0.1       0.0       0.1
 5 O  s               1.0       0.0       0.2       0.0       1.8       0.7
 5 O  pz             16.2       0.0       9.1       0.3       0.7       7.0
 5 O  px              1.2       0.5       0.0       0.4       0.1       0.0
 5 O  py              0.2       0.6       0.0       7.8       1.9       0.0
 5 O  dz2             0.3       0.0       0.3       0.0       0.0       0.0
 5 O  dxz             0.5       0.0       0.0       0.0       0.0       0.1
 5 O  dyz             0.1       0.2       0.0       0.0       0.0       0.0
 5 O  dx2y2           0.1       0.5       0.2       0.6       0.3       0.0
 5 O  dxy             0.0       1.3       0.1       0.5       0.2       0.0
 6 C  s               0.7       0.0       0.3       0.0       0.1       0.0
 6 C  pz              0.2       0.7       1.1       0.0       0.4       2.2
 6 C  px              4.4       0.1       3.1       0.0       0.5       6.6
 6 C  py              0.5      13.3       0.4       2.0       0.1       0.3
 6 C  dxy             0.0       0.0       0.0       0.2       0.0       0.0
 7 C  s               0.3       0.0       0.2       0.0       0.0       0.1
 7 C  pz              2.5       0.4       1.5       0.4      10.2      17.7
 7 C  px              1.0       0.0       4.3       0.2      11.7       0.0
 7 C  py              0.8       9.2       0.0      14.0       2.6       0.1
 7 C  dx2y2           0.0       0.0       0.0       0.0       0.2       0.2
 8 H  s               0.8       0.0       1.8       0.6       6.3       3.8
 8 H  pz              0.0       0.0       0.0       0.0       0.1       0.0
 9 H  s               0.1       4.2       0.1       7.6       0.8       0.0
10 H  s               0.0       0.4       5.9       1.3       0.0       3.7
10 H  pz              0.0       0.0       0.0       0.1       0.0       0.0
10 H  px              0.0       0.0       0.1       0.0       0.0       0.1
11 H  s               0.0       1.8       4.5       1.4       0.3       0.3
11 H  py              0.0       0.0       0.1       0.0       0.0       0.0
12 H  s               2.5       0.3       3.0       0.1       0.4       0.4
13 H  s               0.8       0.7       0.7       0.6       5.5       3.4
14 H  s               0.4       6.3       4.2       0.5       0.8       0.2
14 H  py              0.0       0.1       0.1       0.0       0.0       0.0
15 H  s               0.1       4.0       0.0       0.5       0.0       0.5
15 H  pz              0.0       0.1       0.0       0.0       0.0       0.0
16 H  s               1.3       2.6       0.1       0.5       0.0       0.5
16 H  pz              0.0       0.1       0.0       0.0       0.0       0.0
17 H  s               0.1       0.1       0.9       0.0       9.7       2.0
17 H  px              0.0       0.0       0.0       0.0       0.2       0.1
18 H  s               0.3       2.4       0.7       4.5       0.2       3.7
18 H  pz              0.0       0.1       0.0       0.1       0.0       0.0
18 H  py              0.0       0.0       0.0       0.0       0.0       0.1
19 H  s               1.2       1.8       0.2       3.7       5.8       2.9
19 H  pz              0.0       0.1       0.0       0.1       0.0       0.0
19 H  py              0.0       0.0       0.0       0.0       0.2       0.1

                     24        25        26        27        28        29   
                  -0.35543  -0.33122  -0.31680  -0.30521  -0.30325  -0.30247
                   2.00000   2.00000   2.00000   2.00000   2.00000   2.00000
                  --------  --------  --------  --------  --------  --------
 0 C  s               0.1       0.0       0.2       0.0       0.5       0.1
 0 C  pz              0.0       0.0       1.9       1.5       5.5      11.7
 0 C  px              3.3       5.8       1.0      14.8       0.9       0.1
 0 C  py              7.1       0.9       4.9       1.8      10.5       5.3
 0 C  dxz             0.0       0.1       0.0       0.4       0.0       0.0
 0 C  dyz             0.0       0.0       0.0       0.0       0.0       0.6
 0 C  dx2y2           0.0       0.0       0.1       0.1       0.2       0.1
 0 C  dxy             0.0       0.0       0.0       0.2       0.0       0.0
 1 C  s               0.0       0.1       0.1       0.1       0.2       0.1
 1 C  pz              1.8       0.1       1.0       0.7       3.2      19.1
 1 C  px              0.2       0.3       1.3      17.0       2.7       0.0
 1 C  py              5.3       0.4       5.3       1.8      10.3       6.8
 1 C  dxz             0.0       0.0       0.0       0.5       0.1       0.1
 1 C  dyz             0.0       0.0       0.0       0.0       0.1       0.8
 1 C  dx2y2           0.0       0.0       0.1       0.1       0.3       0.2
 1 C  dxy             0.0       0.0       0.0       0.1       0.1       0.0
 2 C  s               0.1       0.3       0.1       0.7       0.0       0.1
 2 C  pz              0.1       1.4       0.3       3.9       0.2       3.0
 2 C  px              3.2       0.1       0.0      12.5       0.8       1.5
 2 C  py              4.1       0.1       1.5       4.0       9.0       1.3
 2 C  dxz             0.0       0.0       0.0       0.2       0.0       0.1
 2 C  dyz             0.1       0.0       0.1       0.0       0.3       0.1
 2 C  dx2y2           0.0       0.0       0.0       0.1       0.2       0.1
 3 C  s               0.0       0.0       0.1       0.2       0.4       0.1
 3 C  pz              0.3       0.4       0.6       0.2       1.5       0.3
 3 C  px              0.8       0.6       1.1       0.7       0.1       0.5
 3 C  py              1.7       2.9       0.4       0.3       0.2       0.0
 3 C  dz2             0.0       0.0       0.2       0.1       0.2       0.0
 3 C  dxz             0.1       0.0       0.1       0.0       0.1       0.0
 3 C  dyz             0.0       0.3       0.1       0.3       0.0       0.0
 3 C  dx2y2           0.0       0.3       0.0       0.0       0.0       0.0
 4 O  s               0.0       0.1       0.2       0.0       0.1       0.0
 4 O  pz              0.5       6.1       1.5       1.9       0.1       0.4
 4 O  px              0.1       1.1       1.5       2.0       0.1       0.7
 4 O  py              3.4       6.9       1.1       3.7       7.4       0.1
 4 O  dz2             0.0       0.0       0.2       0.0       0.1       0.1
 4 O  dyz             0.0       0.2       0.0       0.0       0.1       0.0
 4 O  dx2y2           0.0       0.0       0.1       0.1       0.0       0.1
 5 O  s               0.1       0.3       1.1       0.3       1.0       0.0
 5 O  pz              0.9       2.1      13.6       1.8       8.8       0.0
 5 O  px              4.6       1.2       0.1       0.8       0.7       0.0
 5 O  py              0.1       6.0       0.2       0.1       1.0       0.0
 5 O  dz2             0.1       0.1       0.5       0.0       0.5       0.0
 5 O  dxz             0.5       0.1       0.2       0.0       0.1       0.1
 5 O  dyz             0.0       0.1       0.2       0.1       0.1       0.0
 5 O  dx2y2           0.3       0.5       0.2       0.2       0.3       0.0
 5 O  dxy             0.0       0.1       0.4       0.0       0.1       0.0
 6 C  s               0.3       0.2       0.4       0.0       0.2       0.0
 6 C  pz              1.7       4.6       9.2       0.7       2.5       0.1
 6 C  px              6.0       0.5       0.7       0.3       0.4       0.0
 6 C  py              0.2       4.0       6.1       0.3       1.4       0.1
 6 C  dxz             0.3       0.0       0.2       0.0       0.0       0.0
 6 C  dyz             0.0       0.2       0.1       0.0       0.1       0.0
 6 C  dx2y2           0.0       0.1       0.4       0.0       0.1       0.0
 6 C  dxy             0.0       0.2       0.0       0.0       0.0       0.0
 7 C  s               0.1       0.1       0.5       0.0       0.1       0.0
 7 C  pz              1.5       6.2       5.8       0.3       1.0       0.0
 7 C  px             25.3       0.7       2.6       0.1       0.1       0.0
 7 C  py              0.7      15.3       7.7       0.3       0.9       0.0
 7 C  dxz             0.4       0.0       0.1       0.0       0.0       0.0
 7 C  dyz             0.0       0.4       0.1       0.0       0.0       0.0
 7 C  dx2y2           0.1       0.0       0.1       0.0       0.0       0.0
 8 H  s               1.9       0.1       0.0       0.2       0.0      12.2
 8 H  px              0.0       0.1       0.0       0.1       0.0       0.0
 8 H  py              0.0       0.0       0.0       0.0       0.1       0.0
 9 H  s               0.6       2.6       0.0      11.4       0.1       0.7
10 H  s               1.8       1.6       2.3       3.2       4.2       3.6
10 H  pz              0.0       0.0       0.0       0.1       0.0       0.0
11 H  s               0.4       0.0       2.4       4.4       6.1       4.4
11 H  pz              0.0       0.0       0.0       0.1       0.0       0.0
11 H  px              0.0       0.0       0.0       0.0       0.1       0.1
12 H  s               0.0       0.0       0.3       0.0       0.3      18.7
12 H  pz              0.0       0.0       0.0       0.0       0.1       0.1
[...]
 3 C  dx2y2           1.8       0.1       0.7       0.1       0.0       0.0
 3 C  dxy             0.0       0.7       4.3       0.0       0.0       0.0
 4 O  s               1.2       1.1       0.7      18.7       0.0       0.0
 4 O  pz              0.2       0.7       0.4      18.0       0.0       0.0
 4 O  px              1.9       0.2       0.2       0.0       0.0       0.0
 4 O  py              0.7       0.3       0.1       3.7       0.0       0.0
 4 O  dz2             1.0       1.0       0.2      18.9       0.0       0.0
 4 O  dxz             4.2       0.2       1.6       0.0       0.0       0.0
 4 O  dyz             0.7       0.9       0.0      13.6       0.0       0.0
 4 O  dx2y2           0.1       0.2       0.3       0.8       0.0       0.0
 4 O  dxy             1.2       0.0       0.0       0.0       0.0       0.0
 5 O  s               1.9      26.0       5.8       1.1       0.0       0.0
 5 O  pz              2.5       7.7       0.5       0.3       0.0       0.0
 5 O  px              0.1       5.7      26.8       0.7       0.0       0.0
 5 O  py              1.1       0.2       4.5       0.0       0.0       0.0
 5 O  dz2             1.9       1.0       1.6       0.0       0.0       0.0
 5 O  dxz             0.1       5.5      15.5       1.2       0.0       0.0
 5 O  dyz             2.3       0.3       2.5       0.0       0.0       0.0
 5 O  dx2y2           0.4      14.7       0.5       1.0       0.0       0.0
 5 O  dxy             0.1       3.6       9.1       0.0       0.0       0.0
 6 C  s               0.1       1.4       0.6       0.2      17.5       1.1
 6 C  pz              0.0       2.6       0.7       0.1       0.0       0.0
 6 C  px              0.0       5.2       1.5       0.3       0.0       0.0
 6 C  py              0.1       0.1       0.0       0.0       0.0       0.0
 6 C  dz2             0.3       0.1       0.0       0.0       0.0       0.0
 6 C  dxz             0.0       6.3       1.4       0.5       0.0       0.0
 6 C  dyz             0.0       0.0       0.1       0.0       0.0       0.0
 6 C  dx2y2           0.0       6.3       1.3       0.2       0.0       0.0
 6 C  dxy             0.1       0.2       0.0       0.0       0.0       0.0
 7 C  s               0.0       0.0       0.0       0.0      69.6      13.1
 7 C  pz              0.0       0.1       0.0       0.0       0.0       0.0
 7 C  dxz             0.1       0.4       0.0       0.0       0.0       0.0
 7 C  dyz             0.1       0.0       0.0       0.0       0.0       0.0
 7 C  dx2y2           0.0       0.1       0.0       0.0       0.0       0.0
 8 H  py              0.2       0.0       0.0       0.0       0.0       0.0
 9 H  s               0.3       0.0       0.0       0.0       0.0       0.0
 9 H  px              0.6       0.0       0.0       0.0       0.0       0.0
10 H  s               0.8       0.0       0.0       0.0       0.0       0.0
10 H  pz              1.4       0.0       0.0       0.0       0.0       0.0
10 H  px              0.6       0.0       0.0       0.0       0.0       0.0
10 H  py              0.2       0.0       0.0       0.0       0.0       0.0
11 H  s               2.3       0.0       0.0       0.0       0.0       0.0
11 H  pz              1.7       0.0       0.0       0.0       0.0       0.0
11 H  px              3.5       0.0       0.0       0.0       0.0       0.0
12 H  s               2.0       0.0       0.0       0.0       0.0       0.0
12 H  pz              2.4       0.0       0.0       0.0       0.0       0.0
12 H  px              0.2       0.0       0.1       0.0       0.0       0.0
12 H  py              2.4       0.0       0.0       0.0       0.0       0.0
13 H  s               4.5       0.0       0.1       0.0       0.0       0.0
13 H  pz              7.0       0.0       0.0       0.0       0.0       0.0
13 H  px              0.5       0.0       0.0       0.0       0.0       0.0
13 H  py              3.8       0.0       0.1       0.0       0.0       0.0
14 H  s               0.9       0.0       0.0       0.0       0.0       0.0
14 H  pz              0.4       0.0       0.0       0.0       0.0       0.0
14 H  py              1.2       0.0       0.0       0.1       0.0       0.0
15 H  s               0.1       0.6       0.0       0.0       0.0       0.0
15 H  pz              0.0       0.2       0.0       0.0       0.0       0.0
15 H  px              0.0       0.5       0.0       0.0       0.0       0.0
15 H  py              0.1       0.7       0.0       0.0       0.0       0.0
16 H  s               0.0       0.3       0.1       0.0       0.0       0.0
16 H  pz              0.1       0.0       0.0       0.0       0.0       0.0
16 H  px              0.2       0.1       0.0       0.0       0.0       0.0
16 H  py              0.0       0.6       0.3       0.0       0.0       0.0
17 H  px              0.0       0.2       0.0       0.0       0.0       0.0

                    216       217       218       219       220       221   
                  22.00983  22.03578  22.08572  22.27771  43.67544  43.73715
                   0.00000   0.00000   0.00000   0.00000   0.00000   0.00000
                  --------  --------  --------  --------  --------  --------
 0 C  s              11.7       0.1       2.7       0.2       0.0       0.0
 1 C  s               0.4      95.5       1.4       1.9       0.0       0.0
 2 C  s              13.9       1.0      72.3       0.0       0.0       0.0
 3 C  s               0.7       2.2       0.0      96.1       0.0       0.0
 4 O  s               0.0       0.0       0.0       0.2      99.2       0.8
 4 O  pz              0.0       0.0       0.0       0.1       0.0       0.0
 5 O  s               0.0       0.0       0.1       0.1       0.8      99.2
 6 C  s              56.7       0.4      23.2       0.7       0.0       0.0
 7 C  s              16.3       0.5       0.0       0.2       0.0       0.0



                      *****************************
                      * MAYER POPULATION ANALYSIS *
                      *****************************

  NA   - Mulliken gross atomic population
  ZA   - Total nuclear charge
  QA   - Mulliken gross atomic charge
  VA   - Mayer's total valence
  BVA  - Mayer's bonded valence
  FA   - Mayer's free valence

  ATOM       NA         ZA         QA         VA         BVA        FA
  0 C      6.5280     6.0000    -0.5280     3.8146     3.8146    -0.0000
  1 C      6.2208     6.0000    -0.2208     3.6454     3.6454     0.0000
  2 C      6.3089     6.0000    -0.3089     3.6525     3.6525     0.0000
  3 C      5.6245     6.0000     0.3755     3.8157     3.8157    -0.0000
  4 O      8.5122     8.0000    -0.5122     1.8726     1.8726    -0.0000
  5 O      8.1808     8.0000    -0.1808     1.9477     1.9477     0.0000
  6 C      6.1542     6.0000    -0.1542     3.6194     3.6194    -0.0000
  7 C      6.4883     6.0000    -0.4883     3.8452     3.8452     0.0000
  8 H      0.8398     1.0000     0.1602     0.9597     0.9597    -0.0000
  9 H      0.8394     1.0000     0.1606     0.9583     0.9583    -0.0000
 10 H      0.8393     1.0000     0.1607     0.9608     0.9608     0.0000
 11 H      0.8381     1.0000     0.1619     0.9564     0.9564    -0.0000
 12 H      0.8485     1.0000     0.1515     0.9628     0.9628     0.0000
 13 H      0.8196     1.0000     0.1804     0.9580     0.9580     0.0000
 14 H      0.8020     1.0000     0.1980     0.9458     0.9458    -0.0000
 15 H      0.8273     1.0000     0.1727     0.9438     0.9438     0.0000
 16 H      0.8266     1.0000     0.1734     0.9500     0.9500    -0.0000
 17 H      0.8314     1.0000     0.1686     0.9583     0.9583     0.0000
 18 H      0.8344     1.0000     0.1656     0.9570     0.9570    -0.0000
 19 H      0.8358     1.0000     0.1642     0.9567     0.9567     0.0000

  Mayer bond orders larger than 0.100000
B(  0-C ,  1-C ) :   0.9059 B(  0-C ,  8-H ) :   0.9781 B(  0-C ,  9-H ) :   0.9665 
B(  0-C , 10-H ) :   0.9724 B(  1-C ,  2-C ) :   0.8812 B(  1-C , 11-H ) :   0.9606 
B(  1-C , 12-H ) :   0.9688 B(  2-C ,  3-C ) :   0.9522 B(  2-C , 13-H ) :   0.9909 
B(  2-C , 14-H ) :   0.9184 B(  3-C ,  4-O ) :   1.7582 B(  3-C ,  5-O ) :   1.1029 
B(  5-O ,  6-C ) :   0.7808 B(  6-C ,  7-C ) :   0.9432 B(  6-C , 15-H ) :   0.9369 
B(  6-C , 16-H ) :   0.9573 B(  7-C , 17-H ) :   0.9614 B(  7-C , 18-H ) :   0.9734 
B(  7-C , 19-H ) :   0.9661 

-------
TIMINGS
-------

Total SCF time: 0 days 0 hours 0 min 35 sec 

Total time                  ....      35.131 sec
Sum of individual times     ....      34.259 sec  ( 97.5%)

SCF preparation             ....       0.498 sec  (  1.4%)
Fock matrix formation       ....      32.141 sec  ( 91.5%)
  Startup                   ....       0.087 sec  (  0.3% of F)
  Split-RI-J                ....       5.397 sec  ( 16.8% of F)
  XC integration            ....      20.098 sec  ( 62.5% of F)
    XC Preparation          ....       0.000 sec  (  0.0% of XC)
    Basis function eval.    ....       3.521 sec  ( 17.5% of XC)
    Density eval.           ....       5.857 sec  ( 29.1% of XC)
    XC-Functional eval.     ....       2.592 sec  ( 12.9% of XC)
    XC-Potential eval.      ....       6.561 sec  ( 32.6% of XC)
  CPCM terms                ....       5.860 sec  ( 18.2% of F)
Diagonalization             ....       0.000 sec  (  0.0%)
Density matrix formation    ....       0.315 sec  (  0.9%)
Total Energy calculation    ....       0.074 sec  (  0.2%)
Population analysis         ....       0.362 sec  (  1.0%)
Orbital Transformation      ....       0.090 sec  (  0.3%)
Orbital Orthonormalization  ....       0.000 sec  (  0.0%)
DIIS solution               ....       0.723 sec  (  2.1%)
  MO trafo                  ....       0.000 sec  (  0.0 % of DIIS)
  Orb grad                  ....       0.000 sec  (  0.0 % of DIIS)
  Energy W gradient         ....       0.000 sec  (  0.0 % of DIIS)
  DIIS error                ....       0.028 sec  (  3.9 % of DIIS)
  DIIS work                 ....       0.618 sec  ( 85.5 % of DIIS)
  Form Q                    ....       0.000 sec  (  0.0 % of DIIS)
  Form QpQm                 ....       0.000 sec  (  0.0 % of DIIS)
  Exp/Cayley                ....       0.000 sec  (  0.0 % of DIIS)
  Orb update                ....       0.000 sec  (  0.0 % of DIIS)
  Wake-sleep                ....       0.031 sec  (  4.3 % of DIIS)
SOSCF solution              ....       0.056 sec  (  0.2%)
  MO trafo                  ....       0.042 sec  ( 74.9 % of SOSCF)
  Orb grad                  ....       0.001 sec  (  1.3 % of SOSCF)
  Rot update                ....       0.000 sec  (  0.3 % of SOSCF)
  Step                      ....       0.013 sec  ( 23.1 % of SOSCF)
Finished LeanSCF after  35.3 sec

Maximum memory used throughout the entire LEANSCF-calculation: 30.6 MB


-------------------------------------------------------------------------------
                          DFT DISPERSION CORRECTION                            
                                                                               
                                DFTD4 V3.4.0                                   
-------------------------------------------------------------------------------
The R2SCAN3C composite method is recognized
Using three-body term ABC
Active option DFTDOPT                   ...         5   

-------------------------   ----------------
Dispersion correction           -0.004988957
-------------------------   ----------------

------------------   -----------------
gCP correction             0.011706223
------------------   -----------------

-------------------------   --------------------
FINAL SINGLE POINT ENERGY      -386.241646755063
-------------------------   --------------------


------------------------------------------------------------------------------
                              ORCA PROPERTY CALCULATIONS
------------------------------------------------------------------------------

GBWName                                 ... sp_solv.gbw
Number of atoms                         ...     20
Number of basis functions               ...    222
Max core memory                         ...   1024 MB

Electric properties:
Dipole moment                           ... YES
Quadrupole moment                       ...  NO
Static polarizability (Dipole/Dipole)   ...  NO
Static polarizability (Dipole/Quad.)    ...  NO
Static polarizability (Quad./Quad.)     ...  NO
Static polarizability (Velocity)        ...  NO

Atomic electric properties:
Dipole moment                           ...  NO
Quadrupole moment                       ...  NO
Static polarizability                   ...  NO

Choice of electric origin               ... Center of mass
Position of electric origin             ...    -0.000008    -0.000012     0.000009

General magnetic properties:
Magnetizability                         ...  NO

EPR properties:
g-Tensor (aka g-matrix)                 ...  NO
Zero-Field splitting spin-orbit         ...  NO
Zero-field splitting spin-spin          ...  NO
Hyperfine couplings                     ...  NO (   0 nuclei)
Quadrupole couplings                    ...  NO (   0 nuclei)
Contact density                         ...  NO (   0 nuclei)

NMR properties:
Chemical shifts                         ...  NO (   0 nuclei)
Spin-rotation constants                 ...  NO (   0 nuclei)
Spin-spin couplings                     ...  NO (   0 nuclei,    0 pairs)

Choice of magnetic origin               ... GIAO
Position of magnetic origin             ...     0.000000     0.000000     0.000000

Properties with geometric perturbations:
SCF Hessian                             ...  NO
IR spectrum                             ...  NO
VCD spectrum                            ...  NO
X-ray spectroscopy properties:
SCF XES/XAS/RIXS spectra                ...  NO


-------------
DIPOLE MOMENT
-------------

Method             : SCF
Type of density    : Electron Density
Multiplicity       :   1
Irrep              :   0
Energy             :  -386.2483640211215743 Eh
Relativity type    : 
Basis              : AO
                                X                 Y                 Z
Electronic contribution:      1.542748759       3.335111737      -1.181965290
Nuclear contribution   :     -1.159726532      -3.853195216       2.125947350
                        -----------------------------------------
Total Dipole Moment    :      0.383022227      -0.518083479       0.943982059
                        -----------------------------------------
Magnitude (a.u.)       :      1.142899228
Magnitude (Debye)      :      2.905018973



--------------------
Rotational spectrum 
--------------------
 
Rotational constants in cm-1:             0.149276             0.031954             0.030773 
Rotational constants in MHz :          4475.178163           957.945125           922.551427 

Dipole components along the rotational axes: 
x,y,z [a.u.] :     0.438522    -0.981969    -0.386851 
x,y,z [Debye]:     1.114634    -2.495967    -0.983297 

 

Dipole moment calculation done in   0.0 sec 

Maximum memory used throughout the entire PROP-calculation: 13.7 MB

--------------------------------
SUGGESTED CITATIONS FOR THIS RUN
--------------------------------

Below you find a list of papers that are relevant to this ORCA run
We neither can nor want to force you to cite these papers, but we appreciate if you do
You receive ORCA, which is the product of decades of hard work by many enthusiastic individuals, for free
The only thing we kindly ask in return is that you cite our papers,
We deeply appreciate it, if you show your appreciation for ORCA by not just citing the generic ORCA reference.

Please note that relegating all ORCA citations to the supporting information does *not* help us.
SI sections are not indexed - citations you put there will not count into any citation statistics
But we need these citations in order to attract the funding resources that allow us to do what we are doing

Therefore, if you are a happy ORCA user, please consider citing a few of the papers listed below in the main body of your paper

In addition to the list printed below, the program has created the file sp_solv.bibtex that contains the list in bibtex format
You can import this file easily into all common literature databanks and citation aid programs


List of essential papers. We consider these as the minimum necessary citations

  1. Neese,F.
     Software update: the ORCA program system, version 5.0
     WIRES Comput. Molec. Sci., 2022 12(1)e1606
     doi.org/10.1002/wcms.1606
  2. Grimme,S.; Hansen,A.; Ehlert,S.; Mewes,J.
     r2SCAN-3c: A 'Swiss army knife' composite electronic-structure method
     J. Chem. Phys., 2021 154 064103
     doi.org/10.1063/5.0040021

List of papers to cite with high priority. The work reported in these papers was absolutely
necessary for this run to complete.
Our perspective: the developers of density functionals and basis sets usually get cited in chemistry papers
Good! But without the algorithms to do something with them, the functionals or basis sets would not do anything.
Hence, in our opinion, the algorithm design and method developments papers are equally worthy of getting cited

  1. Neese,F.
     An improvement of the resolution of the identity approximation for the formation of the Coulomb matrix
     J. Comp. Chem., 2003 24(14)1740-1747
     doi.org/10.1002/jcc.10318
  2. Garcia-Rates,M.; Neese,F.
     Effect of the Solute Cavity on the Solvation Energy and its Derivatives within the Framework of the Gaussian Charge Scheme
     J. Comput. Chem., 2020 41 922-939
     doi.org/10.1002/jcc.26139
  3. Neese,F.
     The SHARK Integral Generation and Digestion System
     J. Comp. Chem., 2022  1-16
     doi.org/10.1002/jcc.26942
  4. Lehtola,S.; Steigemann,C.; Oliveira,M.; Marques,M.
     Recent developments in Libxc - A comprehensive library of functionals for density functional theory
     Software X, 2018 7 
     doi.org/10.1016/j.softx.2017.11.002
  5. Caldeweyher,E.; Bannwarth,C.; Grimme,S.
     Extension of the D3 dispersion coefficient model
     J. Chem. Phys., 2017 147 034112-XXXX
     doi.org/10.1063/1.4993215
  6. Caldeweyher,E.; Ehlert,S.; Hansen,A.; Neugebauer,H.; Spicher,S.; Bannwarth,C.; Grimme,S.
     A generally applicable atomic-charge dependent London dispersion correction
     J. Chem. Phys., 2019 150 154122-XXXX
     doi.org/10.1063/1.5090222
  7. Caldeweyher,E.; Mewes,J.; Ehlert,S.; Grimme,S.
     Extension and evaluation of the D4 London-dispersion model for periodic systems
     Phys. Chem. Chem. Phys., 2020 22(16)8499-8512
     doi.org/10.1039/D0CP00502A

List of suggested additional citations. These are papers that are important in the 'surrounding' of 
of this run, or papers that preceded the highly important papers. If you like your results we are grateful for a citation.

  1. Neese,F.
     The ORCA program system
     WIRES Comput. Molec. Sci., 2012 2(1)73-78
     doi.org/10.1002/wcms.81
  2. Neese,F.
     Software update: the ORCA program system, version 4.0
     WIRES Comput. Molec. Sci., 2018 8(1)1-6
     doi.org/10.1002/wcms.1327
  3. Neese,F.; Wennmohs,F.; Becker,U.; Riplinger,C.
     The ORCA quantum chemistry program package
     J. Chem. Phys., 2020 152 Art. No. L224108
     doi.org/10.1063/5.0004608

List of optional additional citations

  1. Neese,F.
     Approximate second-order SCF convergence for spin unrestricted wavefunctions
     Chem. Phys. Lett., 2000 325(1-3)93-98
     doi.org/10.1016/s0009-2614(00)00662-x

Timings for individual modules:

Sum of individual times          ...       37.479 sec (=   0.625 min)
Startup calculation              ...        1.565 sec (=   0.026 min)   4.2 %
SCF iterations                   ...       35.788 sec (=   0.596 min)  95.5 %
Property calculations            ...        0.126 sec (=   0.002 min)   0.3 %
                             ****ORCA TERMINATED NORMALLY****
TOTAL RUN TIME: 0 days 0 hours 0 minutes 38 seconds 465 msec
