      -----------------------------------------------------------      
     |                   =====================                   |     
     |                           x T B                           |     
     |                   =====================                   |     
     |                         S. Grimme                         |     
     |          Mulliken Center for Theoretical Chemistry        |     
     |                    University of Bonn                     |     
      -----------------------------------------------------------      

   * xtb version 6.7.1 (edcfbbe) compiled by 'albert@albert-system' on 2024-07-22

   xtb is free software: you can redistribute it and/or modify it under
   the terms of the GNU Lesser General Public License as published by
   the Free Software Foundation, either version 3 of the License, or
   (at your option) any later version.
   
   xtb is distributed in the hope that it will be useful,
   but WITHOUT ANY WARRANTY; without even the implied warranty of
   MERCHANTABILITY or FITNESS FOR A PARTICULAR PURPOSE.  See the
   GNU Lesser General Public License for more details.
   
   Cite this work as:
   * C. Bannwarth, E. Caldeweyher, S. Ehlert, A. Hansen, P. Pracht,
     J. Seibert, S. Spicher, S. Grimme, WIREs Comput. Mol. Sci., 2020, 11,
     e01493. DOI: 10.1002/wcms.1493
   
   for GFN2-xTB:
   * C. Bannwarth, S. Ehlert and S. Grimme., J. Chem. Theory Comput., 2019,
     15, 1652-1671. DOI: 10.1021/acs.jctc.8b01176
   for GFN1-xTB:
   * S. Grimme, C. Bannwarth, P. Shushkov, J. Chem. Theory Comput., 2017,
     13, 1989-2009. DOI: 10.1021/acs.jctc.7b00118
   for GFN0-xTB:
   * P. Pracht, E. Caldeweyher, S. Ehlert, S. Grimme, ChemRxiv, 2019, preprint.
     DOI: 10.26434/chemrxiv.8326202.v1
   for GFN-FF:
   * S. Spicher and S. Grimme, Angew. Chem. Int. Ed., 2020, 59, 15665-15673.
     DOI: 10.1002/anie.202004239
   
   for ALPB and GBSA implicit solvation:
   * S. Ehlert, M. Stahn, S. Spicher, S. Grimme, J. Chem. Theory Comput.,
     2021, 17, 4250-4261. DOI: 10.1021/acs.jctc.1c00471
   
   for ddCOSMO and CPCM-X implicit solvation:
   * M. Stahn, S. Ehlert, S. Grimme, J. Phys. Chem. A,
     2023, XX, XXXX-XXXX. DOI: 10.1021/acs.jpca.3c04382
   
   for DFT-D4:
   * E. Caldeweyher, C. Bannwarth and S. Grimme, J. Chem. Phys., 2017,
     147, 034112. DOI: 10.1063/1.4993215
   * E. Caldeweyher, S. Ehlert, A. Hansen, H. Neugebauer, S. Spicher,
     C. Bannwarth and S. Grimme, J. Chem. Phys., 2019, 150, 154122.
     DOI: 10.1063/1.5090222
   * E. Caldeweyher, J.-M. Mewes, S. Ehlert and S. Grimme, Phys. Chem. Chem. Phys.
     2020, 22, 8499-8512. DOI: 10.1039/D0CP00502A
   
   for sTDA-xTB:
   * S. Grimme and C. Bannwarth, J. Chem. Phys., 2016, 145, 054103.
     DOI: 10.1063/1.4959605
   
   in the mass-spec context:
   * V. Asgeirsson, C. Bauer and S. Grimme, Chem. Sci., 2017, 8, 4879.
     DOI: 10.1039/c7sc00601b
   * J. Koopman and S. Grimme, ACS Omega 2019, 4, 12, 15120-15133.
     DOI: 10.1021/acsomega.9b02011
   
   for metadynamics refer to:
   * S. Grimme, J. Chem. Theory Comput., 2019, 155, 2847-2862
     DOI: 10.1021/acs.jctc.9b00143
   
   for SPH calculations refer to:
   * S. Spicher and S. Grimme, J. Chem. Theory Comput., 2021, 17, 1701-1714
     DOI: 10.1021/acs.jctc.0c01306
   
   for ONIOM refer to:
   * C. Plett, A. Katbashev, S. Ehlert, S. Grimme, M. Bursch,
     Phys. Chem. Chem. Phys., 2023, 25, 17860-17868. DOI: 10.1039/D3CP02178E
   
   for DIPRO refer to:
   * J. Kohn, N. Gildemeister, S. Grimme, D. Fazzi, A. Hansen,
     J. Chem. Phys., 2023, just accepted.
   
   for PTB refer to:
   * S. Grimme, M. Mueller, A. Hansen, J. Chem. Phys., 2023, 158, 124111.
     DOI: 10.1063/5.0137838
   
   with help from (in alphabetical order)
   P. Atkinson, C. Bannwarth, F. Bohle, G. Brandenburg, E. Caldeweyher
   M. Checinski, S. Dohm, S. Ehlert, S. Ehrlich, I. Gerasimov, C. Hölzer
   A. Katbashev, J. Kohn, J. Koopman, C. Lavigne, S. Lehtola, F. März, M. Müller,
   F. Musil, H. Neugebauer, J. Pisarek, C. Plett, P. Pracht, F. Pultar,
   J. Seibert, P. Shushkov, S. Spicher, M. Stahn, M. Steiner, T. Strunk,
   J. Stückrath, T. Rose, and J. Unsleber
   
 * started run on 2025/04/11 at 15:54:53.492     
   ID    Z sym.   atoms
    1    6 C      1, 2, 4-13, 15, 16
    2    1 H      3, 19-31
    3    8 O      14, 17, 18

           -------------------------------------------------
          |                Calculation Setup                |
           -------------------------------------------------

          program call               : /srv/scratch/z5358697/.xtb/bin/xtb solv.coord --gfn2 --sp --chrg 0 --norestart --parallel 1 --alpb water reference -I xtb_sp-xcontrol-inp
          hostname                   : k061
          coordinate file            : solv.coord
          omp threads                :                     1


           -------------------------------------------------
          |                 G F N 2 - x T B                 |
           -------------------------------------------------

        Reference                      10.1021/acs.jctc.8b01176
      * Hamiltonian:
        H0-scaling (s, p, d)           1.850000    2.230000    2.230000
        zeta-weighting                 0.500000
      * Dispersion:
        s8                             2.700000
        a1                             0.520000
        a2                             5.000000
        s9                             5.000000
      * Repulsion:
        kExp                           1.500000    1.000000
        rExp                           1.000000
      * Coulomb:
        alpha                          2.000000
        third order                    shell-resolved
        anisotropic                    true
        a3                             3.000000
        a5                             4.000000
        cn-shift                       1.200000
        cn-exp                         4.000000
        max-rad                        5.000000

      * Solvation model:               ALPB
        Solvent                        water
        Parameter file                 internal GFN2-xTB/ALPB
        Dielectric constant                8.0200E+01
        Reference state                gsolv=reference [X=1]
        Free energy shift                  2.8945E-03 Eh       1.8164E+00 kcal/mol
        Temperature                        2.9815E+02 K
        Density                            1.0000E+00 kg/L
        Solvent mass                       1.8000E+01 g/mol
        Interaction kernel             P16
        Born radius scaling (c1)           1.4744E+00
        Born radii integrator          GBOBC
        Born offset                        0.0000E+00 a0       0.0000E+00 AA
        H-bond correction              true
        Ion screening                  false
        Surface tension                    1.0000E-05 Eh       1.5569E+01 dyn/cm
        Grid points                               974 per atom

          ...................................................
          :                      SETUP                      :
          :.................................................:
          :  # basis functions                  82          :
          :  # atomic orbitals                  82          :
          :  # shells                           48          :
          :  # electrons                        88          :
          :  max. iterations                   250          :
          :  Hamiltonian                  GFN2-xTB          :
          :  restarted?                      false          :
          :  GBSA solvation                   true          :
          :  PC potential                    false          :
          :  electronic temp.          300.0000000     K    :
          :  accuracy                    1.0000000          :
          :  -> integral cutoff          0.2500000E+02      :
          :  -> integral neglect         0.1000000E-07      :
          :  -> SCF convergence          0.1000000E-05 Eh   :
          :  -> wf. convergence          0.1000000E-03 e    :
          :  Broyden damping             0.4000000          :
          :  net charge                          0          :
          :  unpaired electrons                  0          :
          ...................................................

 iter      E             dE          RMSdq      gap      omega  full diag
   1    -49.9882728 -0.499883E+02  0.474E+00    3.09       0.0  T
   2    -50.0447367 -0.564640E-01  0.262E+00    3.03       1.0  T
   3    -50.0421164  0.262035E-02  0.105E+00    3.06       1.0  T
   4    -50.0493792 -0.726283E-02  0.258E-01    3.05       1.0  T
   5    -50.0503395 -0.960318E-03  0.929E-02    3.07       1.0  T
   6    -50.0504021 -0.625242E-04  0.469E-02    3.07       1.0  T
   7    -50.0504083 -0.620220E-05  0.208E-02    3.07       1.0  T
   8    -50.0504127 -0.438574E-05  0.740E-03    3.07       2.4  T
   9    -50.0504131 -0.465856E-06  0.334E-03    3.07       5.4  T
  10    -50.0504132 -0.443705E-07  0.149E-03    3.07      12.1  T
  11    -50.0504132 -0.175426E-07  0.764E-04    3.07      23.5  T
  12    -50.0504132 -0.436687E-08  0.290E-04    3.07      62.0  T

   *** convergence criteria satisfied after 12 iterations ***

         #    Occupation            Energy/Eh            Energy/eV
      -------------------------------------------------------------
         1        2.0000           -0.7471798             -20.3318
       ...           ...                  ...                  ...
        38        2.0000           -0.4376835             -11.9100
        39        2.0000           -0.4317363             -11.7481
        40        2.0000           -0.4241787             -11.5425
        41        2.0000           -0.4179372             -11.3726
        42        2.0000           -0.4132961             -11.2464
        43        2.0000           -0.3927341             -10.6868
        44        2.0000           -0.3739379             -10.1754 (HOMO)
        45                         -0.2611777              -7.1070 (LUMO)
        46                         -0.2413692              -6.5680
        47                         -0.2276619              -6.1950
        48                         -0.1905633              -5.1855
        49                         -0.1465365              -3.9875
       ...                                ...                  ...
        82                          0.6999564              19.0468
      -------------------------------------------------------------
                  HL-Gap            0.1127602 Eh            3.0684 eV
             Fermi-level           -0.3175578 Eh           -8.6412 eV

 SCC (total)                   0 d,  0 h,  0 min,  0.043 sec
 SCC setup                      ...        0 min,  0.002 sec (  5.764%)
 Dispersion                     ...        0 min,  0.000 sec (  0.779%)
 classical contributions        ...        0 min,  0.000 sec (  0.118%)
 integral evaluation            ...        0 min,  0.005 sec ( 12.434%)
 iterations                     ...        0 min,  0.019 sec ( 44.187%)
 molecular gradient             ...        0 min,  0.016 sec ( 36.167%)
 printout                       ...        0 min,  0.000 sec (  0.503%)

         :::::::::::::::::::::::::::::::::::::::::::::::::::::
         ::                     SUMMARY                     ::
         :::::::::::::::::::::::::::::::::::::::::::::::::::::
         :: total energy             -49.337951938265 Eh    ::
         :: total w/o Gsasa/hb       -49.335263400350 Eh    ::
         :: gradient norm              0.000049339549 Eh/a0 ::
         :: HOMO-LUMO gap              3.068362039472 eV    ::
         ::.................................................::
         :: SCC energy               -50.050394804465 Eh    ::
         :: -> isotropic ES            0.086862748951 Eh    ::
         :: -> anisotropic ES          0.003436255326 Eh    ::
         :: -> anisotropic XC          0.015392535884 Eh    ::
         :: -> dispersion             -0.030703578780 Eh    ::
         :: -> Gsolv                  -0.019215477965 Eh    ::
         ::    -> Gelec               -0.016526940050 Eh    ::
         ::    -> Gsasa                0.002061269511 Eh    ::
         ::    -> Ghb                 -0.007644356586 Eh    ::
         ::    -> Gshift               0.002894549160 Eh    ::
         :: repulsion energy           0.712442866199 Eh    ::
         :: add. restraining           0.000000000000 Eh    ::
         :: total charge              -0.000000000000 e     ::
         :::::::::::::::::::::::::::::::::::::::::::::::::::::

           -------------------------------------------------
          |                Property Printout                |
           -------------------------------------------------

    * Orbital Energies and Occupations

         #    Occupation            Energy/Eh            Energy/eV
      -------------------------------------------------------------
         1        2.0000           -0.7471798             -20.3318
       ...           ...                  ...                  ...
        32        2.0000           -0.4692392             -12.7686
        33        2.0000           -0.4671894             -12.7129
        34        2.0000           -0.4646456             -12.6436
        35        2.0000           -0.4603350             -12.5264
        36        2.0000           -0.4532270             -12.3329
        37        2.0000           -0.4447805             -12.1031
        38        2.0000           -0.4376835             -11.9100
        39        2.0000           -0.4317363             -11.7481
        40        2.0000           -0.4241787             -11.5425
        41        2.0000           -0.4179372             -11.3726
        42        2.0000           -0.4132961             -11.2464
        43        2.0000           -0.3927341             -10.6868
        44        2.0000           -0.3739379             -10.1754 (HOMO)
        45                         -0.2611777              -7.1070 (LUMO)
        46                         -0.2413692              -6.5680
        47                         -0.2276619              -6.1950
        48                         -0.1905633              -5.1855
        49                         -0.1465365              -3.9875
        50                         -0.0591445              -1.6094
        51                          0.0256691               0.6985
        52                          0.0605595               1.6479
        53                          0.0828235               2.2537
        54                          0.0857116               2.3323
        55                          0.1037945               2.8244
       ...                                ...                  ...
        82                          0.6999564              19.0468
      -------------------------------------------------------------
                  HL-Gap            0.1127602 Eh            3.0684 eV
             Fermi-level           -0.3175578 Eh           -8.6412 eV

     #   Z          covCN         q      C6AA      α(0)
     1   6 C        3.756    -0.112    22.690     6.792
     2   6 C        3.857    -0.055    21.518     6.597
     3   1 H        0.924     0.071     2.080     2.255
     4   6 C        2.975     0.006    27.883     8.662
     5   6 C        2.919    -0.038    28.951     8.823
     6   6 C        2.918    -0.041    29.018     8.834
     7   6 C        2.987     0.010    27.795     8.648
     8   6 C        2.916    -0.081    30.025     8.985
     9   6 C        2.861     0.141    24.916     8.182
    10   6 C        2.916    -0.056    29.398     8.891
    11   6 C        2.917    -0.041    29.011     8.833
    12   6 C        2.986     0.004    27.930     8.669
    13   6 C        2.922    -0.049    29.226     8.865
    14   8 O        1.705    -0.300    18.996     5.885
    15   6 C        3.642     0.021    20.563     6.520
    16   6 C        2.697     0.371    20.706     7.447
    17   8 O        0.856    -0.459    22.889     6.414
    18   8 O        1.659    -0.421    21.250     6.223
    19   1 H        0.925     0.060     2.196     2.318
    20   1 H        0.925     0.051     2.309     2.376
    21   1 H        0.925     0.052     2.293     2.368
    22   1 H        0.926     0.030     2.583     2.513
    23   1 H        0.926     0.039     2.463     2.454
    24   1 H        0.926     0.043     2.404     2.425
    25   1 H        0.926     0.055     2.261     2.352
    26   1 H        0.926     0.054     2.270     2.356
    27   1 H        0.926     0.050     2.323     2.383
    28   1 H        0.924     0.054     2.273     2.358
    29   1 H        0.925     0.080     1.980     2.201
    30   1 H        0.924     0.054     2.274     2.358
    31   1 H        0.804     0.407     0.473     1.080

 Mol. C6AA /au·bohr⁶  :      11156.598086
 Mol. C8AA /au·bohr⁸  :     267698.775815
 Mol. α(0) /au        :        165.067108


Wiberg/Mayer (AO) data.
largest (>0.10) Wiberg bond orders for each atom

 ---------------------------------------------------------------------------
     #   Z sym  total        # sym  WBO       # sym  WBO       # sym  WBO
 ---------------------------------------------------------------------------
     1   6 C    3.988 --     2 C    0.994    19 H    0.985    21 H    0.984
                            20 H    0.984
     2   6 C    3.992 --     1 C    0.994     4 C    0.970    16 C    0.956
                             3 H    0.950
     3   1 H    0.995 --     2 C    0.950
     4   6 C    3.978 --    13 C    1.518     5 C    1.297     2 C    0.970
     5   6 C    3.992 --     6 C    1.560     4 C    1.297    22 H    0.968
     6   6 C    3.991 --     5 C    1.560     7 C    1.278    23 H    0.968
                            13 C    0.112
     7   6 C    3.989 --     8 C    1.281     6 C    1.278    12 C    1.251
     8   6 C    3.984 --     9 C    1.476     7 C    1.281    24 H    0.963
                            11 C    0.105
     9   6 C    3.930 --     8 C    1.476    10 C    1.245    14 O    1.060
    10   6 C    3.988 --    11 C    1.587     9 C    1.245    25 H    0.967
    11   6 C    3.987 --    10 C    1.587    12 C    1.262    26 H    0.966
                             8 C    0.105
    12   6 C    3.989 --    13 C    1.289    11 C    1.262     7 C    1.251
    13   6 C    3.989 --     4 C    1.518    12 C    1.289    27 H    0.964
                             6 C    0.112
    14   8 O    2.207 --     9 C    1.060    15 C    0.972
    15   6 C    3.932 --    29 H    0.978    30 H    0.976    28 H    0.976
                            14 O    0.972
    16   6 C    3.897 --    17 O    1.729    18 O    1.156     2 C    0.956
    17   8 O    2.001 --    16 C    1.729    18 O    0.158
    18   8 O    2.178 --    16 C    1.156    31 H    0.812    17 O    0.158
    19   1 H    0.996 --     1 C    0.985
    20   1 H    0.996 --     1 C    0.984
    21   1 H    0.997 --     1 C    0.984
    22   1 H    0.999 --     5 C    0.968
    23   1 H    0.998 --     6 C    0.968
    24   1 H    0.998 --     8 C    0.963
    25   1 H    0.996 --    10 C    0.967
    26   1 H    0.996 --    11 C    0.966
    27   1 H    0.997 --    13 C    0.964
    28   1 H    0.997 --    15 C    0.976
    29   1 H    0.993 --    15 C    0.978
    30   1 H    0.997 --    15 C    0.976
    31   1 H    0.835 --    18 O    0.812
 ---------------------------------------------------------------------------

Topologies differ in total number of bonds
Writing topology from bond orders to xtbtopo.mol

molecular dipole:
                 x           y           z       tot (Debye)
 q only:        1.523       1.287       0.213
   full:        1.633       1.295       0.223       5.328
molecular quadrupole (traceless):
                xx          xy          yy          xz          yz          zz
 q only:      -14.770     -25.857      10.072      -6.248      -3.113       4.698
  q+dip:      -14.950     -28.501      14.734      -7.014      -2.764       0.216
   full:      -16.405     -29.499      12.640      -6.957      -3.193       3.765


           -------------------------------------------------
          | TOTAL ENERGY              -49.337951938265 Eh   |
          | GRADIENT NORM               0.000049339549 Eh/α |
          | HOMO-LUMO GAP               3.068362039472 eV   |
           -------------------------------------------------

------------------------------------------------------------------------
 * finished run on 2025/04/11 at 15:54:53.591     
------------------------------------------------------------------------
 total:
 * wall-time:     0 d,  0 h,  0 min,  0.099 sec
 *  cpu-time:     0 d,  0 h,  0 min,  0.058 sec
 * ratio c/w:     0.589 speedup
 SCF:
 * wall-time:     0 d,  0 h,  0 min,  0.044 sec
 *  cpu-time:     0 d,  0 h,  0 min,  0.043 sec
 * ratio c/w:     0.992 speedup

