
                                 *****************
                                 * O   R   C   A *
                                 *****************

                                            #,                                       
                                            ###                                      
                                            ####                                     
                                            #####                                    
                                            ######                                   
                                           ########,                                 
                                     ,,################,,,,,                         
                               ,,#################################,,                 
                          ,,##########################################,,             
                       ,#########################################, ''#####,          
                    ,#############################################,,   '####,        
                  ,##################################################,,,,####,       
                ,###########''''           ''''###############################       
              ,#####''   ,,,,##########,,,,          '''####'''          '####       
            ,##' ,,,,###########################,,,                        '##       
           ' ,,###''''                  '''############,,,                           
         ,,##''                                '''############,,,,        ,,,,,,###''
      ,#''                                            '''#######################'''  
     '                                                          ''''####''''         
             ,#######,   #######,   ,#######,      ##                                
            ,#'     '#,  ##    ##  ,#'     '#,    #''#        ,####,   ,####,        
            ##       ##  ##   ,#'  ##            #'  '#       #'       #'  '#        
            ##       ##  #######   ##           ,######,      #####,   #    #        
            '#,     ,#'  ##    ##  '#,     ,#' ,#      #,     #,   #   #,  ,#        
             '#######'   ##     ##  '#######'  #'      '#     '####' # '####'        



                #########################################################
                #                        -***-                          #
                #          Department of theory and spectroscopy        #
                #                                                       #
                #                      Frank Neese                      #
                #                                                       #
                #     Directorship, Architecture, Infrastructure        #
                #                    SHARK, DRIVERS                     #
                #        Core code/Algorithms in most modules           #
                #                                                       #
                #        Max Planck Institute fuer Kohlenforschung      #
                #                Kaiser Wilhelm Platz 1                 #
                #                 D-45470 Muelheim/Ruhr                 #
                #                      Germany                          #
                #                                                       #
                #                  All rights reserved                  #
                #                        -***-                          #
                #########################################################


                         Program Version 6.0.0  -   RELEASE  -


 With contributions from (in alphabetic order):
   Daniel Aravena         : Magnetic Suceptibility
   Michael Atanasov       : Ab Initio Ligand Field Theory (pilot matlab implementation)
   Alexander A. Auer      : GIAO ZORA, VPT2 properties, NMR spectrum
   Ute Becker             : All parallelization in ORCA, NUMFREQ, NUMCALC
   Giovanni Bistoni       : ED, misc. LED, open-shell LED, HFLD
   Martin Brehm           : Molecular dynamics
   Dmytro Bykov           : pre 5.0 version of the SCF Hessian
   Marcos Casanova-Páez   : Triplet and SCS-CIS(D). UHF-(DLPNO)-IP/EA/STEOM-CCSD. UHF-CVS-IP/STEOM-CCSD
   Vijay G. Chilkuri      : MRCI spin determinant printing, contributions to CSF-ICE
   Pauline Colinet        : FMM embedding
   Dipayan Datta          : RHF DLPNO-CCSD density
   Achintya Kumar Dutta   : EOM-CC, STEOM-CC
   Nicolas Foglia         : Exact transition moments, OPA infrastructure, MCD improvements
   Dmitry Ganyushin       : Spin-Orbit,Spin-Spin,Magnetic field MRCI
   Miquel Garcia          : C-PCM and meta-GGA Hessian, CCSD/C-PCM, Gaussian charge scheme
   Tiago L. C. Gouveia    : GS-ROHF, GS-ROCIS
   Yang Guo               : DLPNO-NEVPT2, F12-NEVPT2, CIM, IAO-localization
   Andreas Hansen         : Spin unrestricted coupled pair/coupled cluster methods
   Ingolf Harden          : AUTO-CI MPn and infrastructure 
   Benjamin Helmich-Paris : MC-RPA, TRAH-(SCF,CASSCF), AVAS, COSX integrals, SCF dyn. polar.
   Lee Huntington         : MR-EOM, pCC
   Robert Izsak           : Overlap fitted RIJCOSX, COSX-SCS-MP3, EOM
   Riya Kayal             : Wick's Theorem for AUTO-CI, AUTO-CI UHF-CCSDT
   Emily Kempfer          : AUTO-CI, RHF CISDT and CCSDT
   Christian Kollmar      : KDIIS, OOCD, Brueckner-CCSD(T), CCSD density, CASPT2, CASPT2-K, improved NEVPT2
   Axel Koslowski         : Symmetry handling
   Simone Kossmann        : Meta GGA functionals, TD-DFT gradient, OOMP2, (MP2 Hessian; deprecated post 5.0)
   Lucas Lang             : DCDCAS
   Marvin Lechner         : AUTO-CI (C++ implementation), FIC-MRCC
   Spencer Leger          : CASSCF response
   Dagmar Lenk            : GEPOL surface, SMD, ORCA-2-JSON
   Dimitrios Liakos       : Extrapolation schemes; Compound Job, initial MDCI parallelization
   Dimitrios Manganas     : Further ROCIS development; embedding schemes. LFT, Crystal Embedding
   Dimitrios Pantazis     : SARC Basis sets
   Anastasios Papadopoulos: AUTO-CI, single reference methods and gradients
   Taras Petrenko         : pre 6.0 DFT Hessian and TD-DFT gradient, (ASA, deprecated), ECA, 1-Electron XAS/XES, NRVS
   Peter Pinski           : DLPNO-MP2, DLPNO-MP2 Gradient
   Christoph Reimann      : Effective Core Potentials
   Marius Retegan         : Local ZFS, SOC
   Christoph Riplinger    : Optimizer, TS searches, QM/MM, DLPNO-CCSD(T), (RO)-DLPNO pert. Triples
   Michael Roemelt        : Original ROCIS implementation
   Masaaki Saitow         : Open-shell DLPNO-CCSD energy and density
   Barbara Sandhoefer     : DKH picture change effects
   Kantharuban Sivalingam : CASSCF convergence/infrastructure, NEVPT2 and variants, FIC-MRCI
   Bernardo de Souza      : ESD, SOC TD-DFT
   Georgi Stoychev        : AutoAux, RI-MP2 NMR, DLPNO-MP2 response, X2C
   Van Anh Tran           : RI-MP2 g-tensors
   Willem Van den Heuvel  : Paramagnetic NMR
   Zikuan Wang            : NOTCH, Electric field optimization 
   Frank Wennmohs         : Technical directorship and infrastructure
   Hang Xu                : AUTO-CI-Response properties 


 We gratefully acknowledge several colleagues who have allowed us to
 interface, adapt or use parts of their codes:
   Stefan Grimme, W. Hujo, H. Kruse, P. Pracht,  : VdW corrections, initial TS optimization,
                  C. Bannwarth, S. Ehlert,         DFT functionals, gCP, sTDA/sTD-DF
                  L. Wittmann, M. Mueller
   Ed Valeev, F. Pavosevic, A. Kumar             : LibInt (2-el integral package), F12 methods
   Garnet Chan, S. Sharma, J. Yang, R. Olivares  : DMRG
   Ulf Ekstrom                                   : XCFun DFT Library
   Mihaly Kallay                                 : mrcc  (arbitrary order and MRCC methods)
   Frank Weinhold                                : gennbo (NPA and NBO analysis)
   Simon Mueller                                 : openCOSMO-RS
   Christopher J. Cramer and Donald G. Truhlar   : smd solvation model
   Lars Goerigk                                  : TD-DFT with DH, B97 family of functionals
   V. Asgeirsson, H. Jonsson                     : NEB implementation
   FAccTs GmbH                                   : IRC, NEB, NEB-TS, DLPNO-Multilevel, CI-OPT
                                                   MM, QMMM, 2- and 3-layer-ONIOM, Crystal-QMMM,
                                                   LR-CPCM, SF, NACMEs, symmetry and pop. for TD-DFT,
                                                   nearIR, NL-DFT gradient (VV10), updates on ESD,
                                                   ML-optimized integration grids, MBIS, APM,
                                                   GOAT, DOCKER, SOLVATOR, interface openCOSMO-RS
   S Lehtola, MJT Oliveira, MAL Marques          : LibXC Library
   Liviu Ungur et al                             : ANISO software


 Your calculation uses the libint2 library for the computation of 2-el integrals
 For citations please refer to: http://libint.valeyev.net

 Your ORCA version has been built with support for libXC version: 6.2.2
 For citations please refer to: https://libxc.gitlab.io

 This ORCA versions uses:
   CBLAS   interface :  Fast vector & matrix operations
   LAPACKE interface :  Fast linear algebra routines
   SCALAPACK package :  Parallel linear algebra routines
   Shared memory     :  Shared parallel matrices
   BLAS/LAPACK       :  OpenBLAS 0.3.27  USE64BITINT DYNAMIC_ARCH NO_AFFINITY SkylakeX SINGLE_THREADED
        Core in use  :  SkylakeX
   Copyright (c) 2011-2014, The OpenBLAS Project


Your calculation utilizes the geometrical counterpoise correction gCP
Please cite in your paper:
H.Kruse, S. Grimme J.Chem.Phys., 136, (2012), 154101 
   

Your calculation utilizes the atom-pairwise dispersion correction
based on EEQ partial charges (D4)


================================================================================

----- Orbital basis set information -----
Your calculation utilizes the basis: def2-SV(P)
   F. Weigend and R. Ahlrichs, Phys. Chem. Chem. Phys. 7, 3297 (2005).

----- AuxJ basis set information -----
Your calculation utilizes the auxiliary basis: def2/J
   F. Weigend, Phys. Chem. Chem. Phys. 8, 1057 (2006).

================================================================================
                                        WARNINGS
                       Please study these warnings very carefully!
================================================================================


================================================================================
                                       INPUT FILE
================================================================================
NAME = sp.inp
|  1> ! pbe def2-sv(p) def2/J RI DEFGRID1 loosescf d4 GCP(DFT/SV(P)) printgap
|  2> %output
|  3>     printlevel normal
|  4> end
|  5> * xyz 0 1
|  6> C -3.6385185758 -0.6185266138 0.2375514181
|  7> C -2.3054495897 -0.3086111021 -0.4308431212
|  8> C -1.1983463514 -0.1031416377 0.6002116888
|  9> C 0.1062073482 0.3009524247 -0.0346700549
| 10> O 0.2344301347 0.7280116929 -1.1622966867
| 11> O 1.1187787885 0.1524090381 0.8146020449
| 12> C 2.4401788961 0.5065705881 0.3719752128
| 13> C 3.1035419681 -0.649926278 -0.3601489421
| 14> H -4.4092352757 -0.7708467987 -0.5128169572
| 15> H -3.5616114076 -1.5197309725 0.8406224613
| 16> H -3.9425697334 0.2029154892 0.8814321737
| 17> H -2.3910130203 0.592655138 -1.0405379977
| 18> H -2.0257001823 -1.1257538789 -1.0983956425
| 19> H -1.0289497765 -1.0050041227 1.1893884402
| 20> H -1.4767985932 0.6938366278 1.2943571698
| 21> H 2.3667893417 1.3826226118 -0.2795780391
| 22> H 2.9769673163 0.7578328906 1.2871343708
| 23> H 4.1202854818 -0.3747270748 -0.620636896
| 24> H 3.1208232404 -1.5329967246 0.2728074781
| 25> H 2.5547342642 -0.8769640235 -1.2714545087
| 26> *
| 27> 
| 28>                          ****END OF INPUT****
================================================================================

                       ****************************
                       * Single Point Calculation *
                       ****************************

---------------------------------
CARTESIAN COORDINATES (ANGSTROEM)
---------------------------------
  C     -3.638519   -0.618527    0.237551
  C     -2.305450   -0.308611   -0.430843
  C     -1.198346   -0.103142    0.600212
  C      0.106207    0.300952   -0.034670
  O      0.234430    0.728012   -1.162297
  O      1.118779    0.152409    0.814602
  C      2.440179    0.506571    0.371975
  C      3.103542   -0.649926   -0.360149
  H     -4.409235   -0.770847   -0.512817
  H     -3.561611   -1.519731    0.840622
  H     -3.942570    0.202915    0.881432
  H     -2.391013    0.592655   -1.040538
  H     -2.025700   -1.125754   -1.098396
  H     -1.028950   -1.005004    1.189388
  H     -1.476799    0.693837    1.294357
  H      2.366789    1.382623   -0.279578
  H      2.976967    0.757833    1.287134
  H      4.120285   -0.374727   -0.620637
  H      3.120823   -1.532997    0.272807
  H      2.554734   -0.876964   -1.271455

----------------------------
CARTESIAN COORDINATES (A.U.)
----------------------------
  NO LB      ZA    FRAG     MASS         X           Y           Z
   0 C     6.0000    0    12.011   -6.875804   -1.168846    0.448907
   1 C     6.0000    0    12.011   -4.356668   -0.583190   -0.814176
   2 C     6.0000    0    12.011   -2.264546   -0.194909    1.134236
   3 C     6.0000    0    12.011    0.200703    0.568718   -0.065517
   4 O     8.0000    0    15.999    0.443009    1.375743   -2.196422
   5 O     8.0000    0    15.999    2.114186    0.288011    1.539375
   6 C     6.0000    0    12.011    4.611270    0.957280    0.702931
   7 C     6.0000    0    12.011    5.864844   -1.228183   -0.680583
   8 H     1.0000    0     1.008   -8.332247   -1.456689   -0.969084
   9 H     1.0000    0     1.008   -6.730470   -2.871875    1.588546
  10 H     1.0000    0     1.008   -7.450377    0.383455    1.665665
  11 H     1.0000    0     1.008   -4.518360    1.119956   -1.966332
  12 H     1.0000    0     1.008   -3.828019   -2.127367   -2.075667
  13 H     1.0000    0     1.008   -1.944433   -1.899183    2.247618
  14 H     1.0000    0     1.008   -2.790745    1.311161    2.445981
  15 H     1.0000    0     1.008    4.472584    2.612778   -0.528326
  16 H     1.0000    0     1.008    5.625653    1.432097    2.432331
  17 H     1.0000    0     1.008    7.786211   -0.708132   -1.172834
  18 H     1.0000    0     1.008    5.897501   -2.896944    0.515531
  19 H     1.0000    0     1.008    4.827748   -1.657222   -2.402701

--------------------------------
INTERNAL COORDINATES (ANGSTROEM)
--------------------------------
 C      0   0   0     0.000000000000     0.00000000     0.00000000
 C      1   0   0     1.523112538935     0.00000000     0.00000000
 C      2   1   0     1.526751224751   111.44981808     0.00000000
 C      3   2   1     1.506063476382   112.30515008   184.07837112
 O      4   3   2     1.212585057750   125.31746288    16.62566715
 O      4   3   2     1.329898176145   111.12144578   195.51394195
 C      6   4   3     1.437862010194   118.39998758   180.58937036
 C      7   6   4     1.521032986092   111.20430824   274.36528494
 H      1   2   3     1.086396966529   110.26333229   180.56835155
 H      1   2   3     1.087096450094   110.50004003   300.49766959
 H      1   2   3     1.087104715495   110.54590973    60.64768825
 H      2   1   3     1.091480544321   110.15340345   239.08197103
 H      2   1   3     1.091608179390   109.89776900   121.12248742
 H      3   2   1     1.090495477216   111.48203699    62.24448894
 H      3   2   1     1.092953775526   110.01692291   303.17170386
 H      7   6   4     1.094246231424   108.59382553    36.24656042
 H      7   6   4     1.090316851741   104.52637664   154.07256768
 H      8   7   6     1.085060343124   109.35251641   183.82897940
 H      8   7   6     1.086621316698   110.14921650   304.00273145
 H      8   7   6     1.087756346549   109.99342654    64.23384734

---------------------------
INTERNAL COORDINATES (A.U.)
---------------------------
 C      0   0   0     0.000000000000     0.00000000     0.00000000
 C      1   0   0     2.878265569728     0.00000000     0.00000000
 C      2   1   0     2.885141689409   111.44981808     0.00000000
 C      3   2   1     2.846047510663   112.30515008   184.07837112
 O      4   3   2     2.291453673232   125.31746288    16.62566715
 O      4   3   2     2.513143338915   111.12144578   195.51394195
 C      6   4   3     2.717165417636   118.39998758   180.58937036
 C      7   6   4     2.874335784375   111.20430824   274.36528494
 H      1   2   3     2.052992739462   110.26333229   180.56835155
 H      1   2   3     2.054314571835   110.50004003   300.49766959
 H      1   2   3     2.054330191180   110.54590973    60.64768825
 H      2   1   3     2.062599309269   110.15340345   239.08197103
 H      2   1   3     2.062840504595   109.89776900   121.12248742
 H      3   2   1     2.060737802218   111.48203699    62.24448894
 H      3   2   1     2.065383312779   110.01692291   303.17170386
 H      7   6   4     2.067825700467   108.59382553    36.24656042
 H      7   6   4     2.060400248989   104.52637664   154.07256768
 H      8   7   6     2.050466887283   109.35251641   183.82897940
 H      8   7   6     2.053416699841   110.14921650   304.00273145
 H      8   7   6     2.055561595413   109.99342654    64.23384734

---------------------
BASIS SET INFORMATION
---------------------
There are 3 groups of distinct atoms

 Group   1 Type C   : 7s4p1d contracted to 3s2p1d pattern {511/31/1}
 Group   2 Type O   : 7s4p1d contracted to 3s2p1d pattern {511/31/1}
 Group   3 Type H   : 4s contracted to 2s pattern {31}

Atom   0C    basis set group =>   1
Atom   1C    basis set group =>   1
Atom   2C    basis set group =>   1
Atom   3C    basis set group =>   1
Atom   4O    basis set group =>   2
Atom   5O    basis set group =>   2
Atom   6C    basis set group =>   1
Atom   7C    basis set group =>   1
Atom   8H    basis set group =>   3
Atom   9H    basis set group =>   3
Atom  10H    basis set group =>   3
Atom  11H    basis set group =>   3
Atom  12H    basis set group =>   3
Atom  13H    basis set group =>   3
Atom  14H    basis set group =>   3
Atom  15H    basis set group =>   3
Atom  16H    basis set group =>   3
Atom  17H    basis set group =>   3
Atom  18H    basis set group =>   3
Atom  19H    basis set group =>   3
---------------------------------
AUXILIARY/J BASIS SET INFORMATION
---------------------------------
There are 3 groups of distinct atoms

 Group   1 Type C   : 12s5p4d2f1g contracted to 6s4p3d1f1g pattern {711111/2111/211/2/1}
 Group   2 Type O   : 12s5p4d2f1g contracted to 6s4p3d1f1g pattern {711111/2111/211/2/1}
 Group   3 Type H   : 5s2p1d contracted to 3s1p1d pattern {311/2/1}

Atom   0C    basis set group =>   1
Atom   1C    basis set group =>   1
Atom   2C    basis set group =>   1
Atom   3C    basis set group =>   1
Atom   4O    basis set group =>   2
Atom   5O    basis set group =>   2
Atom   6C    basis set group =>   1
Atom   7C    basis set group =>   1
Atom   8H    basis set group =>   3
Atom   9H    basis set group =>   3
Atom  10H    basis set group =>   3
Atom  11H    basis set group =>   3
Atom  12H    basis set group =>   3
Atom  13H    basis set group =>   3
Atom  14H    basis set group =>   3
Atom  15H    basis set group =>   3
Atom  16H    basis set group =>   3
Atom  17H    basis set group =>   3
Atom  18H    basis set group =>   3
Atom  19H    basis set group =>   3
------------------------------------------------------------------------------
                             ORCA STARTUP CALCULATIONS
                           -- RI-GTO INTEGRALS CHOSEN --
------------------------------------------------------------------------------
------------------------------------------------------------------------------
                   ___                                                        
                  /   \      - P O W E R E D   B Y -                         
                 /     \                                                     
                 |  |  |   _    _      __       _____    __    __             
                 |  |  |  | |  | |    /  \     |  _  \  |  |  /  |          
                  \  \/   | |  | |   /    \    | | | |  |  | /  /          
                 / \  \   | |__| |  /  /\  \   | |_| |  |  |/  /          
                |  |  |   |  __  | /  /__\  \  |    /   |      \           
                |  |  |   | |  | | |   __   |  |    \   |  |\   \          
                \     /   | |  | | |  |  |  |  | |\  \  |  | \   \       
                 \___/    |_|  |_| |__|  |__|  |_| \__\ |__|  \__/        
                                                                              
                      - O R C A' S   B I G   F R I E N D -                    
                                      &                                       
                       - I N T E G R A L  F E E D E R -                       
                                                                              
 v1 FN, 2020, v2 2021, v3 2022-2024                                           
------------------------------------------------------------------------------


----------------------
SHARK INTEGRAL PACKAGE
----------------------

Number of atoms                             ...     20
Number of basis functions                   ...    136
Number of shells                            ...     72
Maximum angular momentum                    ...      2
Integral batch strategy                     ... SHARK/LIBINT Hybrid
RI-J (if used) integral strategy            ... SPLIT-RIJ (Revised 2003 algorithm where possible)
Printlevel                                  ...      1
Contraction scheme used                     ... SEGMENTED contraction
Prescreening option                         ... SCHWARTZ
   Thresh                                   ... 1.000e-09
   Tcut                                     ... 1.000e-10
   Tpresel                                  ... 1.000e-10 
Coulomb Range Separation                    ... NOT USED
Exchange Range Separation                   ... NOT USED
Multipole approximations                    ... NOT USED
Finite Nucleus Model                        ... NOT USED
CABS basis                                  ... NOT available
Auxiliary Coulomb fitting basis             ... AVAILABLE
   # of basis functions in Aux-J            ...    524
   # of shells in Aux-J                     ...    180
   Maximum angular momentum in Aux-J        ...      4
Auxiliary J/K fitting basis                 ... NOT available
Auxiliary Correlation fitting basis         ... NOT available
Auxiliary 'external' fitting basis          ... NOT available

Checking pre-screening integrals            ... done (  0.0 sec) Dimension = 72
Check shell pair data                       ... done (  0.0 sec)
Shell pair information
Shell pair cut-off parameter TPreSel        ...   1.0e-10
Total number of shell pairs                 ...      2628
Shell pairs after pre-screening             ...      2370
Total number of primitive shell pairs       ...     10580
Primitive shell pairs kept                  ...      6575
          la=0 lb=0:   1045 shell pairs
          la=1 lb=0:    718 shell pairs
          la=1 lb=1:    132 shell pairs
          la=2 lb=0:    326 shell pairs
          la=2 lb=1:    119 shell pairs
          la=2 lb=2:     30 shell pairs

Calculating one electron integrals          ... done (  0.0 sec)
Calculating RI/J V-Matrix + Cholesky decomp.... done (  0.1 sec)
Calculating Nuclear repulsion               ... done (  0.0 sec) ENN=    387.695712411947 Eh

Diagonalization of the overlap matrix:
Smallest eigenvalue                        ... 1.329e-03
Time for diagonalization                   ...    0.004 sec
Threshold for overlap eigenvalues          ... 1.000e-07
Number of eigenvalues below threshold      ... 0
Time for construction of square roots      ...    0.014 sec
Total time needed                          ...    0.026 sec

-------------------
DFT GRID GENERATION
-------------------

General Integration Accuracy     IntAcc      ... 4.159
Radial Grid Type                 RadialGrid  ... OptM3 with GC (2021)
Angular Grid (max. ang.)         AngularGrid ... 3 (Lebedev-194)
Angular grid pruning method      GridPruning ... 4 (adaptive)
Weight generation scheme         WeightScheme... mBecke (2022)
Basis function cutoff            BFCut       ... 1.0000e-10
Integration weight cutoff        WCut        ... 1.0000e-14
Partially contracted basis set               ... off
Rotationally invariant grid construction     ... off
Angular grids for H and He will be reduced by one unit

Total number of grid points                  ...    43093
Total number of batches                      ...      682
Average number of points per batch           ...       63
Average number of grid points per atom       ...     2155
Initializing property integral containers    ... done (  0.0 sec)

SHARK setup successfully completed in   0.7 seconds

Maximum memory used throughout the entire STARTUP-calculation: 21.1 MB
-------------------------------------------------------------------------------
                                 ORCA GUESS
                   Start orbitals & Density for SCF / CASSCF
-------------------------------------------------------------------------------

------------
SCF SETTINGS
------------
Hamiltonian:
 Density Functional     Method          .... DFT(GTOs)
 Exchange Functional    Exchange        .... PBE
   PBE kappa parameter   XKappa         ....  0.804000
   PBE mue parameter    XMuePBE         ....  0.219520
 Correlation Functional Correlation     .... PBE
   PBE beta parameter  CBetaPBE         ....  0.066725
 LDA part of GGA corr.  LDAOpt          .... PW91-LDA
 Gradients option       PostSCFGGA      .... off
   NL short-range parameter             ....  6.400000
 RI-approximation to the Coulomb term is turned on
   Number of AuxJ basis functions       .... 524


General Settings:
 Integral files         IntName         .... sp
 Hartree-Fock type      HFTyp           .... RHF
 Total Charge           Charge          ....    0
 Multiplicity           Mult            ....    1
 Number of Electrons    NEL             ....   64
 Basis Dimension        Dim             ....  136
 Nuclear Repulsion      ENuc            ....    387.6957124119 Eh

Convergence Acceleration:
 AO-DIIS                CNVDIIS         .... on
   Start iteration      DIISMaxIt       ....    12
   Startup error        DIISStart       ....  0.200000
   # of expansion vecs  DIISMaxEq       ....     5
   Bias factor          DIISBfac        ....   1.050
   Max. coefficient     DIISMaxC        ....  10.000
 MO-DIIS                CNVKDIIS        .... off
 Trust-Rad. Augm. Hess. CNVTRAH         .... auto
   Auto Start mean grad. ratio tolernc. ....  1.125000
   Auto Start start iteration           ....    50
   Auto Start num. interpolation iter.  ....    10
   Max. Number of Micro iterations      ....    24
   Max. Number of Macro iterations      .... Maxiter - #DIIS iter
   Number of Davidson start vectors     ....     2
   Converg. threshold    (grad. norm)   ....   1.000e-04
   Grad. Scal. Fac. for Micro threshold ....   0.100
   Minimum threshold for Micro iter.    ....   1.000e-02
   NR start threshold (gradient norm)   ....   1.000e-04
   Initial trust radius                 ....   0.400
   Minimum AH scaling param. (alpha)    ....   1.000
   Maximum AH scaling param. (alpha)    .... 1000.000
   Quad. conv. algorithm                .... NR
   White noise on init. David. guess    .... on
   Maximum white noise                  ....   0.010
   Pseudo random numbers                .... off
   Inactive MOs                         .... canonical
   Orbital update algorithm             .... Taylor
   Preconditioner                       .... Diag
   Full preconditioner red. dimension   ....   250
 SOSCF                  CNVSOSCF        .... on
   Start iteration      SOSCFMaxIt      ....   150
   Startup grad/error   SOSCFStart      ....  0.003300
   Hessian update       SOSCFHessUp     .... L-BFGS
 Level Shifting         CNVShift        .... on
   Level shift para.    LevelShift      ....    0.2500
   Turn off err/grad.   ShiftErr        ....    0.0010
 Zerner damping         CNVZerner       .... off
 Static damping         CNVDamp         .... on
   Fraction old density DampFac         ....    0.7000
   Max. Damping (<1)    DampMax         ....    0.9800
   Min. Damping (>=0)   DampMin         ....    0.0000
   Turn off err/grad.   DampErr         ....    0.1000

SCF Procedure:
 Maximum # iterations   MaxIter         ....   125
 SCF integral mode      SCFMode         .... Direct
   Integral package                     .... SHARK and LIBINT hybrid scheme
 Reset frequency        DirectResetFreq ....    20
 Integral Threshold     Thresh          ....  1.000e-09 Eh
 Primitive CutOff       TCut            ....  1.000e-10 Eh

Convergence Tolerance:
 Convergence Check Mode ConvCheckMode   .... Total+1el-Energy
 Convergence forced     ConvForced      .... 0
 Energy Change          TolE            ....  1.000e-05 Eh
 1-El. energy change                    ....  1.000e-02 Eh
 Orbital Gradient       TolG            ....  1.000e-04
 Orbital Rotation angle TolX            ....  1.000e-04
 DIIS Error             TolErr          ....  5.000e-04

------------------------------
INITIAL GUESS: MODEL POTENTIAL
------------------------------
Loading Hartree-Fock densities                     ... done
Calculating cut-offs                               ... done
Initializing the effective Hamiltonian             ... done
Setting up the integral package (SHARK)            ... done
Starting the Coulomb interaction                   ... done (   0.1 sec)
Making the grid                                    ... done (   0.2 sec)
Mapping shells                                     ... done
Starting the XC term evaluation                    ... done (   0.2 sec)
  promolecular density results
     # of electrons  =     63.996158744
     EX              =    -50.543338908
     EC              =     -2.105990248
     EX+EC           =    -52.649329156
Transforming the Hamiltonian                       ... done (   0.0 sec)
Diagonalizing the Hamiltonian                      ... done (   0.0 sec)
Back transforming the eigenvectors                 ... done (   0.0 sec)
Now organizing SCF variables                       ... done
                      ------------------
                      INITIAL GUESS DONE (   0.5 sec)
                      ------------------
             **** ENERGY FILE WAS UPDATED (sp.en.tmp) ****
Finished Guess after   0.7 sec
Maximum memory used throughout the entire GUESS-calculation: 16.0 MB

-------------------------------------------------------------------------------------------
                                      ORCA LEAN-SCF
                              memory conserving SCF solver
-------------------------------------------------------------------------------------------

----------------------------------------D-I-I-S--------------------------------------------
Iteration    Energy (Eh)           Delta-E    RMSDP     MaxDP     DIISErr   Damp  Time(sec)
-------------------------------------------------------------------------------------------
               ***  Starting incremental Fock matrix formation  ***
    1    -385.2849829215599016     0.00e+00  5.08e-03  1.12e-01  2.43e-01  0.700   0.8
    2    -385.4109491203728908    -1.26e-01  3.15e-03  6.47e-02  7.66e-02  0.700   0.8
                               ***Turning on AO-DIIS***
    3    -385.4495602615361918    -3.86e-02  1.27e-03  1.42e-02  2.51e-02  0.700   0.8
    4    -385.4747757080451152    -2.52e-02  1.79e-03  2.23e-02  1.46e-02  0.000   0.8
    5    -385.5332993273709121    -5.85e-02  5.77e-04  8.37e-03  8.73e-03  0.000   0.8
                              *** Initializing SOSCF ***
---------------------------------------S-O-S-C-F--------------------------------------
Iteration    Energy (Eh)           Delta-E    RMSDP     MaxDP     MaxGrad    Time(sec)
--------------------------------------------------------------------------------------
    6    -385.5340642204853907    -7.65e-04  2.16e-04  2.70e-03  3.21e-03     0.8
               *** Restarting incremental Fock matrix formation ***
    7    -385.5341208369931678    -5.66e-05  1.63e-04  2.87e-03  6.19e-04     0.8
    8    -385.5340987245122619     2.21e-05  9.34e-05  2.35e-03  1.99e-03     0.7
    9    -385.5341279346309307    -2.92e-05  6.93e-05  1.22e-03  3.18e-04     0.8
   10    -385.5341240675604126     3.87e-06  4.09e-05  8.17e-04  4.59e-04     0.7
                 **** Energy Check signals convergence ****

               *****************************************************
               *                     SUCCESS                       *
               *           SCF CONVERGED AFTER  10 CYCLES          *
               *****************************************************

             **** ENERGY FILE WAS UPDATED (sp.en.tmp) ****

----------------
TOTAL SCF ENERGY
----------------

Total Energy       :       -385.53412406756041 Eh          -10490.91686 eV

Components:
Nuclear Repulsion  :        387.69571241194666 Eh           10549.73667 eV
Electronic Energy  :       -773.22983647950707 Eh          -21040.65354 eV
One Electron Energy:      -1291.85448764982584 Eh          -35153.14776 eV
Two Electron Energy:        518.62465117031877 Eh           14112.49422 eV

Virial components:
Potential Energy   :       -767.92502165530038 Eh          -20896.30219 eV
Kinetic Energy     :        382.39089758773997 Eh           10405.38532 eV
Virial Ratio       :          2.00821993018048

DFT components:
N(Alpha)           :       31.999902319655 electrons
N(Beta)            :       31.999902319655 electrons
N(Total)           :       63.999804639311 electrons
E(X)               :      -51.598982598923 Eh       
E(C)               :       -2.123010835986 Eh       
E(XC)              :      -53.721993434909 Eh       

---------------
SCF CONVERGENCE
---------------

  Last Energy change         ...   -3.8671e-06  Tolerance :   1.0000e-05
  Last MAX-Density change    ...    8.1743e-04  Tolerance :   1.0000e-03
  Last RMS-Density change    ...    4.0854e-05  Tolerance :   1.0000e-04
  Last DIIS Error            ...    3.2074e-03  Tolerance :   5.0000e-04
  Last Orbital Gradient      ...    4.5876e-04  Tolerance :   1.0000e-04
  Last Orbital Rotation      ...    4.1435e-04  Tolerance :   1.0000e-04


----------------
ORBITAL ENERGIES
----------------

  NO   OCC          E(Eh)            E(eV) 
   0   2.0000     -18.795200      -511.4434 
   1   2.0000     -18.732736      -509.7437 
   2   2.0000     -10.005161      -272.2543 
   3   2.0000      -9.945546      -270.6321 
   4   2.0000      -9.897484      -269.3242 
   5   2.0000      -9.886130      -269.0153 
   6   2.0000      -9.885947      -269.0103 
   7   2.0000      -9.876455      -268.7520 
   8   2.0000      -1.002483       -27.2790 
   9   2.0000      -0.909039       -24.7362 
  10   2.0000      -0.725076       -19.7303 
  11   2.0000      -0.696486       -18.9523 
  12   2.0000      -0.638821       -17.3832 
  13   2.0000      -0.587885       -15.9972 
  14   2.0000      -0.528858       -14.3910 
  15   2.0000      -0.491038       -13.3618 
  16   2.0000      -0.452640       -12.3170 
  17   2.0000      -0.437313       -11.8999 
  18   2.0000      -0.420780       -11.4500 
  19   2.0000      -0.399562       -10.8726 
  20   2.0000      -0.391503       -10.6533 
  21   2.0000      -0.372878       -10.1465 
  22   2.0000      -0.359024        -9.7695 
  23   2.0000      -0.350834        -9.5467 
  24   2.0000      -0.336103        -9.1458 
  25   2.0000      -0.324208        -8.8221 
  26   2.0000      -0.309507        -8.4221 
  27   2.0000      -0.299663        -8.1543 
  28   2.0000      -0.291954        -7.9445 
  29   2.0000      -0.287485        -7.8229 
  30   2.0000      -0.254909        -6.9364 
  31   2.0000      -0.218668        -5.9503 
  32   0.0000      -0.018227        -0.4960 
  33   0.0000       0.037115         1.0099 
  34   0.0000       0.053792         1.4637 
  35   0.0000       0.078309         2.1309 
  36   0.0000       0.082142         2.2352 
  37   0.0000       0.086472         2.3530 
  38   0.0000       0.090695         2.4679 
  39   0.0000       0.101486         2.7616 
  40   0.0000       0.102282         2.7832 
  41   0.0000       0.119957         3.2642 
  42   0.0000       0.131693         3.5835 
*Only the first 10 virtual orbitals were printed.

                    ********************************
                    * MULLIKEN POPULATION ANALYSIS *
                    ********************************

-----------------------
MULLIKEN ATOMIC CHARGES
-----------------------
   0 C :   -0.252933
   1 C :   -0.201654
   2 C :   -0.176656
   3 C :    0.131544
   4 O :   -0.209963
   5 O :   -0.241075
   6 C :   -0.009952
   7 C :   -0.304657
   8 H :    0.105377
   9 H :    0.095484
  10 H :    0.096007
  11 H :    0.103813
  12 H :    0.094160
  13 H :    0.103438
  14 H :    0.111242
  15 H :    0.105679
  16 H :    0.100297
  17 H :    0.111306
  18 H :    0.111946
  19 H :    0.126599
Sum of atomic charges:   -0.0000000

--------------------------------
MULLIKEN REDUCED ORBITAL CHARGES
--------------------------------
  0 C s       :     3.074463  s :     3.074463
      pz      :     1.050127  p :     3.149007
      px      :     1.035570
      py      :     1.063310
      dz2     :     0.001438  d :     0.029464
      dxz     :     0.008323
      dyz     :     0.009118
      dx2y2   :     0.006986
      dxy     :     0.003599

  1 C s       :     3.085033  s :     3.085033
      pz      :     1.037512  p :     3.080016
      px      :     0.981090
      py      :     1.061413
      dz2     :     0.003196  d :     0.036606
      dxz     :     0.008328
      dyz     :     0.011470
      dx2y2   :     0.008542
      dxy     :     0.005070

  2 C s       :     3.010221  s :     3.010221
      pz      :     1.087250  p :     3.132837
      px      :     0.995583
      py      :     1.050005
      dz2     :     0.003559  d :     0.033598
      dxz     :     0.006555
      dyz     :     0.010807
      dx2y2   :     0.007760
      dxy     :     0.004917

  3 C s       :     3.045200  s :     3.045200
      pz      :     0.889442  p :     2.692301
      px      :     0.932617
      py      :     0.870242
      dz2     :     0.029812  d :     0.130956
      dxz     :     0.050681
      dyz     :     0.023410
      dx2y2   :     0.011780
      dxy     :     0.015273

  4 O s       :     3.754402  s :     3.754402
      pz      :     1.327855  p :     4.438013
      px      :     1.725418
      py      :     1.384739
      dz2     :     0.006931  d :     0.017549
      dxz     :     0.003611
      dyz     :     0.005632
      dx2y2   :     0.000801
      dxy     :     0.000573

  5 O s       :     3.733521  s :     3.733521
      pz      :     1.603675  p :     4.491559
      px      :     1.197394
      py      :     1.690490
      dz2     :     0.002771  d :     0.015996
      dxz     :     0.005830
      dyz     :     0.002224
      dx2y2   :     0.002420
      dxy     :     0.002751

  6 C s       :     3.072648  s :     3.072648
      pz      :     1.030550  p :     2.878305
      px      :     0.772454
      py      :     1.075301
      dz2     :     0.007951  d :     0.058999
      dxz     :     0.014465
      dyz     :     0.009953
      dx2y2   :     0.015536
      dxy     :     0.011093

  7 C s       :     3.101081  s :     3.101081
      pz      :     1.078177  p :     3.175660
      px      :     1.052872
      py      :     1.044611
      dz2     :     0.004770  d :     0.027917
      dxz     :     0.004845
      dyz     :     0.007823
      dx2y2   :     0.006925
      dxy     :     0.003553

  8 H s       :     0.894623  s :     0.894623

  9 H s       :     0.904516  s :     0.904516

 10 H s       :     0.903993  s :     0.903993

 11 H s       :     0.896187  s :     0.896187

 12 H s       :     0.905840  s :     0.905840

 13 H s       :     0.896562  s :     0.896562

 14 H s       :     0.888758  s :     0.888758

 15 H s       :     0.894321  s :     0.894321

 16 H s       :     0.899703  s :     0.899703

 17 H s       :     0.888694  s :     0.888694

 18 H s       :     0.888054  s :     0.888054

 19 H s       :     0.873401  s :     0.873401


------------------------
MULLIKEN OVERLAP CHARGES
------------------------
B(  0-C ,  1-C ) :   0.8857 B(  0-C ,  2-C ) :  -0.1250 B(  0-C ,  8-H ) :   0.7407 
B(  0-C ,  9-H ) :   0.7481 B(  0-C , 10-H ) :   0.7538 B(  1-C ,  2-C ) :   0.7066 
B(  1-C , 11-H ) :   0.7083 B(  1-C , 12-H ) :   0.7370 B(  2-C ,  3-C ) :   0.3984 
B(  2-C ,  4-O ) :  -0.2495 B(  2-C ,  5-O ) :  -0.2791 B(  2-C , 12-H ) :  -0.0612 
B(  2-C , 13-H ) :   0.6126 B(  2-C , 14-H ) :   0.5949 B(  3-C ,  4-O ) :   1.3755 
B(  3-C ,  5-O ) :   0.7738 B(  3-C ,  6-C ) :  -0.0593 B(  4-O ,  5-O ) :  -0.1640 
B(  4-O , 15-H ) :   0.0506 B(  5-O ,  6-C ) :   0.5273 B(  5-O ,  7-C ) :  -0.0789 
B(  5-O , 15-H ) :  -0.0646 B(  5-O , 16-H ) :  -0.0550 B(  6-C ,  7-C ) :   0.9423 
B(  6-C , 15-H ) :   0.7100 B(  6-C , 16-H ) :   0.7366 B(  7-C , 15-H ) :  -0.0619 
B(  7-C , 16-H ) :  -0.0570 B(  7-C , 17-H ) :   0.7107 B(  7-C , 18-H ) :   0.7380 
B(  7-C , 19-H ) :   0.7447 B(  9-H , 10-H ) :  -0.0540 B( 11-H , 12-H ) :  -0.0614 
B( 15-H , 16-H ) :  -0.0632 B( 18-H , 19-H ) :  -0.0528 


                     *******************************
                     * LOEWDIN POPULATION ANALYSIS *
                     *******************************

----------------------
LOEWDIN ATOMIC CHARGES
----------------------
   0 C :   -0.339475
   1 C :   -0.230654
   2 C :   -0.250792
   3 C :    0.039713
   4 O :   -0.168082
   5 O :   -0.072281
   6 C :   -0.112719
   7 C :   -0.356649
   8 H :    0.120991
   9 H :    0.116174
  10 H :    0.116681
  11 H :    0.123562
  12 H :    0.119774
  13 H :    0.133839
  14 H :    0.141576
  15 H :    0.118385
  16 H :    0.116292
  17 H :    0.129738
  18 H :    0.123725
  19 H :    0.130203

-------------------------------
LOEWDIN REDUCED ORBITAL CHARGES
-------------------------------
  0 C s       :     2.944052  s :     2.944052
      pz      :     1.116638  p :     3.324217
      px      :     1.085404
      py      :     1.122175
      dz2     :     0.003197  d :     0.071205
      dxz     :     0.020802
      dyz     :     0.021734
      dx2y2   :     0.017818
      dxy     :     0.007654

  1 C s       :     2.905272  s :     2.905272
      pz      :     1.081009  p :     3.236961
      px      :     1.042626
      py      :     1.113326
      dz2     :     0.006730  d :     0.088420
      dxz     :     0.023414
      dyz     :     0.026534
      dx2y2   :     0.021424
      dxy     :     0.010318

  2 C s       :     2.916176  s :     2.916176
      pz      :     1.094070  p :     3.249821
      px      :     1.052884
      py      :     1.102867
      dz2     :     0.007628  d :     0.084795
      dxz     :     0.020900
      dyz     :     0.025147
      dx2y2   :     0.020115
      dxy     :     0.011006

  3 C s       :     2.846569  s :     2.846569
      pz      :     0.992199  p :     2.816691
      px      :     0.964236
      py      :     0.860255
      dz2     :     0.071137  d :     0.297027
      dxz     :     0.120658
      dyz     :     0.048959
      dx2y2   :     0.024623
      dxy     :     0.031650

  4 O s       :     3.550640  s :     3.550640
      pz      :     1.455748  p :     4.586457
      px      :     1.728987
      py      :     1.401721
      dz2     :     0.013646  d :     0.030985
      dxz     :     0.005816
      dyz     :     0.009556
      dx2y2   :     0.001049
      dxy     :     0.000918

  5 O s       :     3.451198  s :     3.451198
      pz      :     1.641117  p :     4.588582
      px      :     1.267127
      py      :     1.680338
      dz2     :     0.004732  d :     0.032501
      dxz     :     0.013010
      dyz     :     0.002728
      dx2y2   :     0.006660
      dxy     :     0.005371

  6 C s       :     2.924448  s :     2.924448
      pz      :     1.101268  p :     3.056731
      px      :     0.851214
      py      :     1.104249
      dz2     :     0.015692  d :     0.131541
      dxz     :     0.032244
      dyz     :     0.025064
      dx2y2   :     0.032965
      dxy     :     0.025576

  7 C s       :     2.952055  s :     2.952055
      pz      :     1.124125  p :     3.335890
      px      :     1.113071
      py      :     1.098695
      dz2     :     0.010463  d :     0.068704
      dxz     :     0.012192
      dyz     :     0.019786
      dx2y2   :     0.017049
      dxy     :     0.009214

  8 H s       :     0.879009  s :     0.879009

  9 H s       :     0.883826  s :     0.883826

 10 H s       :     0.883319  s :     0.883319

 11 H s       :     0.876438  s :     0.876438

 12 H s       :     0.880226  s :     0.880226

 13 H s       :     0.866161  s :     0.866161

 14 H s       :     0.858424  s :     0.858424

 15 H s       :     0.881615  s :     0.881615

 16 H s       :     0.883708  s :     0.883708

 17 H s       :     0.870262  s :     0.870262

 18 H s       :     0.876275  s :     0.876275

 19 H s       :     0.869797  s :     0.869797


---------------------------------
LOEWDIN BOND ORDERS (THRESH 0.050000)
---------------------------------
B(  0-C ,  1-C ) :   1.1316 B(  0-C ,  2-C ) :   0.0580 B(  0-C ,  8-H ) :   0.9386 
B(  0-C ,  9-H ) :   0.9408 B(  0-C , 10-H ) :   0.9409 B(  1-C ,  2-C ) :   1.0835 
B(  1-C ,  3-C ) :   0.0599 B(  1-C , 11-H ) :   0.9042 B(  1-C , 12-H ) :   0.9082 
B(  2-C ,  3-C ) :   1.0615 B(  2-C ,  4-O ) :   0.0939 B(  2-C ,  5-O ) :   0.0756 
B(  2-C , 13-H ) :   0.8904 B(  2-C , 14-H ) :   0.8803 B(  3-C ,  4-O ) :   2.1978 
B(  3-C ,  5-O ) :   1.3987 B(  3-C ,  6-C ) :   0.0755 B(  4-O ,  5-O ) :   0.2056 
B(  5-O ,  6-C ) :   1.0754 B(  5-O ,  7-C ) :   0.0539 B(  6-C ,  7-C ) :   1.1498 
B(  6-C , 15-H ) :   0.9077 B(  6-C , 16-H ) :   0.9206 B(  7-C , 17-H ) :   0.9302 
B(  7-C , 18-H ) :   0.9387 B(  7-C , 19-H ) :   0.9352 

------------------------------------------
LOEWDIN REDUCED ORBITAL POPULATIONS PER MO
-------------------------------------------
THRESHOLD FOR PRINTING IS 0.1%%
                      0         1         2         3         4         5   
                 -18.79520 -18.73274 -10.00516  -9.94555  -9.89748  -9.88613
                   2.00000   2.00000   2.00000   2.00000   2.00000   2.00000
                  --------  --------  --------  --------  --------  --------
 1 C  s               0.0       0.0       0.0       0.0       0.0      99.6
 2 C  s               0.0       0.0       0.0       0.0      99.6       0.0
 3 C  s               0.0       0.0      99.3       0.0       0.0       0.0
 4 O  s               0.0      99.9       0.0       0.0       0.0       0.0
 4 O  pz              0.0       0.0       0.2       0.0       0.0       0.0
 5 O  s              99.9       0.0       0.0       0.0       0.0       0.0
 6 C  s               0.0       0.0       0.0      99.7       0.0       0.0

                      6         7         8         9        10        11   
                  -9.88595  -9.87645  -1.00248  -0.90904  -0.72508  -0.69649
                   2.00000   2.00000   2.00000   2.00000   2.00000   2.00000
                  --------  --------  --------  --------  --------  --------
 0 C  s               0.0      99.7       0.0       0.0       6.8       6.6
 0 C  pz              0.0       0.0       0.0       0.0       0.2       0.1
 0 C  px              0.0       0.0       0.0       0.0       1.6       0.8
 1 C  s               0.0       0.0       0.1       0.1      16.2       8.8
 1 C  pz              0.0       0.0       0.0       0.0       1.6       0.3
 1 C  px              0.0       0.1       0.1       0.1       0.2       0.2
 2 C  s               0.0       0.0       1.0       0.3      20.7       1.5
 2 C  pz              0.0       0.0       0.2       0.5       0.6       0.4
 2 C  px              0.0       0.0       1.6       0.1       0.1       2.6
 2 C  py              0.0       0.0       0.1       0.1       0.0       0.1
 3 C  s               0.0       0.0      18.8       4.9       3.3       1.2
 3 C  pz              0.0       0.0       0.1      20.7       4.3       1.4
 3 C  px              0.0       0.0       5.0       1.5       4.2       1.1
 3 C  py              0.0       0.0       0.1       2.1       1.0       0.0
 3 C  dz2             0.0       0.0       0.3       0.9       0.0       0.0
 3 C  dxz             0.0       0.0       0.4       0.5       0.0       0.1
 3 C  dyz             0.0       0.0       0.2       0.4       0.0       0.0
 3 C  dx2y2           0.0       0.0       0.2       0.2       0.1       0.0
 4 O  s               0.0       0.0      11.7      41.2       1.6       0.1
 4 O  pz              0.0       0.0       2.5       3.7       0.1       0.1
 4 O  px              0.0       0.0       0.0       0.1       0.1       0.0
 4 O  py              0.0       0.0       0.3       0.6       0.0       0.0
 5 O  s               0.0       0.0      40.7      15.9       0.0       1.0
 5 O  pz              0.0       0.0       2.7       0.2       0.0       0.1
 5 O  px              0.0       0.0       0.2       0.4       5.9       8.9
 5 O  py              0.0       0.0       0.3       0.0       0.1       0.0
 6 C  s               0.0       0.0       4.7       2.4       5.6      17.5
 6 C  pz              0.0       0.0       0.2       0.4       0.0       0.4
 6 C  px              0.0       0.0       5.0       1.2       0.1       1.3
 6 C  py              0.1       0.0       0.3       0.2       0.2       1.0
 6 C  dx2y2           0.0       0.0       0.2       0.1       0.0       0.0
 7 C  s              99.7       0.0       0.3       0.2       3.1      17.3
 7 C  pz              0.0       0.0       0.1       0.1       0.2       0.5
 7 C  px              0.0       0.0       0.3       0.1       0.1       0.3
 7 C  py              0.0       0.0       0.2       0.1       0.3       1.1
 8 H  s               0.0       0.1       0.0       0.0       1.1       1.2
 9 H  s               0.0       0.1       0.0       0.0       1.3       1.3
10 H  s               0.0       0.1       0.0       0.0       1.3       1.3
11 H  s               0.0       0.0       0.0       0.0       2.8       1.6
12 H  s               0.0       0.0       0.0       0.0       2.8       1.6
13 H  s               0.0       0.0       0.2       0.0       4.1       0.2
14 H  s               0.0       0.0       0.2       0.0       4.1       0.3
15 H  s               0.0       0.0       0.8       0.1       1.0       3.2
16 H  s               0.0       0.0       0.5       0.3       1.1       3.9
17 H  s               0.1       0.0       0.0       0.0       0.5       3.5
18 H  s               0.1       0.0       0.1       0.0       0.6       3.4
19 H  s               0.1       0.0       0.1       0.0       0.5       3.2

                     12        13        14        15        16        17   
                  -0.63882  -0.58789  -0.52886  -0.49104  -0.45264  -0.43731
                   2.00000   2.00000   2.00000   2.00000   2.00000   2.00000
                  --------  --------  --------  --------  --------  --------
 0 C  s              17.9       7.1       7.7       0.2       0.3       0.0
 0 C  pz              0.1       0.0       3.0       1.0       1.0       0.0
 0 C  px              0.0       0.7       5.2       0.2       2.1       0.0
 0 C  py              0.0       0.0       0.3       0.0       0.0       4.5
 0 C  dxz             0.0       0.0       0.1       0.0       0.0       0.0
 1 C  s               2.6       0.7      14.7       1.5       0.0       0.1
 1 C  pz              0.1       0.0       5.5       2.3       5.7       0.0
 1 C  px              7.6       4.2       1.0       0.1       0.0       1.1
 1 C  py              0.4       0.2       0.0       0.0       0.1      11.4
 1 C  dxz             0.2       0.1       0.0       0.0       0.0       0.0
 1 C  dx2y2           0.0       0.0       0.1       0.0       0.0       0.0
 2 C  s              10.6       4.0       2.4       1.5       1.6       0.0
 2 C  pz              0.2       0.1       5.5       1.7       7.5       0.5
 2 C  px              3.0       0.9       3.2       0.6      10.3       1.9
 2 C  py              0.2       0.0       0.3       0.1       1.3      20.1
 2 C  dxz             0.1       0.0       0.2       0.0       0.1       0.0
 2 C  dx2y2           0.0       0.0       0.0       0.1       0.1       0.0
 3 C  s               2.8       1.2       0.7       2.0       2.3       0.1
 3 C  pz              2.3       1.2       0.7       1.5       0.2       1.4
 3 C  px              4.5       3.3       1.8       1.3      10.2       0.2
 3 C  py              0.8       0.1       0.0       0.1       0.6      15.0
 3 C  dxz             0.1       0.2       0.2       0.0       0.0       0.0
 4 O  s               0.7       0.1       0.0       1.5       0.3       0.0
 4 O  pz              0.1       0.1       0.1       1.3       0.3       0.3
 4 O  px              0.2       0.3       0.0       0.5       6.3       0.2
 4 O  py              0.0       0.0       0.0       0.0       0.4       4.8
 5 O  s               1.3       0.1       0.9       3.5       0.7       0.2
 5 O  pz              0.0       1.4       0.1       5.1       8.5       2.0
 5 O  px              2.4      16.2       0.0      11.7       0.1       0.2
 5 O  py              0.2       0.7       0.3       2.3       1.1       9.3
 5 O  dxz             0.0       0.1       0.0       0.1       0.0       0.0
 6 C  s               0.5       5.1       3.2       5.8       0.1       0.4
 6 C  pz              1.1       4.0       0.2       3.8      11.3       0.4
 6 C  px              2.8       2.0       0.7       5.5       3.3       0.1
 6 C  py              0.7       2.6       2.0      11.8       0.7       1.3
 6 C  dxz             0.0       0.0       0.0       0.3       0.0       0.0
 6 C  dx2y2           0.1       0.1       0.0       0.1       0.0       0.0
 6 C  dxy             0.1       0.1       0.0       0.1       0.0       0.0
 7 C  s               9.8      13.5       1.2       1.1       0.0       0.4
 7 C  pz              0.0       0.9       0.4       0.0       3.3       0.6
 7 C  px              0.0       0.6       0.0       0.0       1.0       2.4
 7 C  py              0.0       1.2       1.4       7.1       0.1       0.8
 8 H  s               4.5       2.4       3.2       0.0       1.5       0.0
 9 H  s               4.0       2.1       4.3       0.3       0.0       1.4
10 H  s               4.0       2.1       4.4       0.3       0.0       0.7
11 H  s               0.6       0.3       6.8       1.1       0.8       3.0
12 H  s               0.6       0.2       7.5       1.2       0.4       2.2
13 H  s               2.7       0.8       1.7       1.4       3.4       4.9
14 H  s               2.6       1.1       2.4       1.3       3.3       5.9
15 H  s               0.1       1.2       1.9      11.5       2.1       0.0
16 H  s               0.1       2.8       2.3       2.7       4.9       0.0
17 H  s               2.7       4.8       0.4       0.1       0.1       1.3
18 H  s               2.3       4.1       0.8       2.9       0.6       0.3
19 H  s               2.3       4.6       0.8       0.8       1.3       0.1

                     18        19        20        21        22        23   
                  -0.42078  -0.39956  -0.39150  -0.37288  -0.35902  -0.35083
                   2.00000   2.00000   2.00000   2.00000   2.00000   2.00000
                  --------  --------  --------  --------  --------  --------
 0 C  s               0.1       0.0       0.0       0.0       0.0       0.0
 0 C  pz              0.1       0.0       3.7      16.4       8.4       2.1
 0 C  px              2.3       0.0       3.9       0.4       3.6       0.3
 0 C  py              0.8      11.0       0.0       3.0      10.4       4.2
 0 C  dyz             0.0       0.0       0.0       0.0       0.1       0.0
 1 C  s               0.2       0.0       0.1       0.0       0.1       0.0
 1 C  pz              0.1       0.3       5.4       4.4       0.9       0.0
 1 C  px              0.3       1.4       0.1       3.6       1.6       0.6
 1 C  py              3.4      10.5       0.4       2.0       1.0       0.4
 2 C  s               0.0       0.0       0.0       0.1       0.2       0.0
 2 C  pz              5.0       0.9       0.3       9.4       3.1       1.4
 2 C  px              0.8       1.0       4.7       0.7       0.4       0.5
 2 C  py              4.0       0.8       0.1       1.1       6.7       3.4
 2 C  dxz             0.1       0.0       0.0       0.0       0.0       0.0
 2 C  dyz             0.0       0.0       0.0       0.0       0.1       0.1
 2 C  dx2y2           0.0       0.0       0.0       0.2       0.1       0.0
 2 C  dxy             0.0       0.1       0.0       0.0       0.1       0.0
 3 C  s               2.1       0.2       1.4       0.0       0.1       0.0
 3 C  pz              1.3       0.3       2.4       0.5       2.7       1.0
 3 C  px              2.5       2.0       3.0       0.4       0.9       0.0
 3 C  py              0.4       4.4       1.0       3.0       2.2       0.3
 3 C  dz2             0.3       0.0       0.0       0.0       0.0       0.0
 3 C  dxz             0.1       0.0       0.0       0.2       0.1       0.0
 3 C  dx2y2           0.1       0.0       0.0       0.0       0.0       0.0
 3 C  dxy             0.0       0.2       0.0       0.0       0.0       0.1
 4 O  s               8.1       1.3       7.0       0.0       1.3       0.4
 4 O  pz              9.2       3.8      21.4       1.2       3.3       2.4
 4 O  px              1.0       0.8       0.2       0.8       0.5       0.3
 4 O  py              3.2       0.6       1.8       1.6       5.4       0.2
 4 O  dz2             0.1       0.0       0.2       0.0       0.0       0.0
 5 O  s               1.2       0.0       0.6       1.4       0.0       0.8
 5 O  pz              8.5       1.1       3.5       2.1       0.2       0.1
 5 O  px              6.2       1.5       0.0       0.0       1.4       0.9
 5 O  py              0.1      15.2       0.8       0.3       0.3       3.5
 6 C  s               0.1       0.4       0.0       0.1       0.2       0.1
 6 C  pz              5.8       0.0       5.6       0.1       1.5       1.5
 6 C  px              6.4       5.0       1.3       0.0       0.7       0.6
 6 C  py              1.5       5.6       0.5       2.6       2.9       6.2
 6 C  dxz             0.0       0.1       0.1       0.1       0.0       0.2
 6 C  dx2y2           0.0       0.1       0.0       0.0       0.1       0.1
 7 C  s               0.0       0.3       0.0       0.0       0.0       0.0
 7 C  pz              0.8       7.7       8.6       7.7       1.9       0.5
 7 C  px              8.2       2.2       2.4       5.4       8.7       6.6
 7 C  py              0.0       2.3       1.4       2.2       0.4      25.7
 7 C  dxz             0.0       0.0       0.0       0.0       0.0       0.2
 7 C  dyz             0.0       0.0       0.0       0.0       0.0       0.2
 7 C  dx2y2           0.0       0.1       0.0       0.1       0.1       0.2
 8 H  s               0.5       0.3       3.4       5.4       4.3       0.4
 9 H  s               0.1       3.1       0.6       0.4       9.6       0.4
10 H  s               0.9       2.4       0.0       6.0       0.7       3.4
11 H  s               0.4       2.7       1.3       0.0       0.6       0.1
12 H  s               0.8       3.0       0.2       1.6       0.2       0.0
13 H  s               3.1       0.1       0.2       0.7       7.0       0.5
14 H  s               0.0       0.9       0.0       4.1       0.1       2.9
15 H  s               0.1       0.7       2.3       0.4       0.0       1.9
16 H  s               5.1       0.7       2.4       0.0       0.2       1.5
17 H  s               2.6       2.1       0.1       5.6       5.0       8.8
18 H  s               0.2       0.0       3.0       3.6       0.0      12.1
19 H  s               1.3       2.2       3.9       0.4       0.0       2.2

                     24        25        26        27        28        29   
                  -0.33610  -0.32421  -0.30951  -0.29966  -0.29195  -0.28748
                   2.00000   2.00000   2.00000   2.00000   2.00000   2.00000
                  --------  --------  --------  --------  --------  --------
 0 C  s               0.0       0.0       0.4       0.0       0.0       0.1
 0 C  pz              0.7       0.3       5.1      13.5       0.0       0.1
 0 C  px              9.7       0.4      16.9       2.0       0.2       3.6
 0 C  py              0.3      10.7       0.0       0.0      10.0       0.4
 0 C  dxz             0.1       0.1       0.1       0.4       0.1       0.0
 0 C  dyz             0.0       0.1       0.0       0.0       0.5       0.1
 0 C  dx2y2           0.0       0.0       0.1       0.4       0.0       0.0
 0 C  dxy             0.0       0.0       0.0       0.1       0.1       0.0
 1 C  s               0.1       0.0       0.0       0.1       0.0       0.0
 1 C  pz              1.1       0.0       7.0      19.1       0.0       0.0
 1 C  px              8.2       0.5      14.2       2.8       0.0       4.0
 1 C  py              0.4       1.3       0.1       0.0      21.5       2.1
 1 C  dxz             0.1       0.0       0.1       0.4       0.1       0.0
 1 C  dyz             0.0       0.0       0.0       0.0       0.9       0.2
 1 C  dx2y2           0.0       0.0       0.2       0.5       0.0       0.0
 1 C  dxy             0.0       0.1       0.1       0.1       0.0       0.0
 2 C  s               0.5       0.1       0.0       0.9       0.0       0.0
 2 C  pz              1.9       0.0       0.4      12.4       0.0       0.0
 2 C  px              0.0       1.9       2.2       6.1       0.3       5.6
 2 C  py              0.0       8.6       0.2       0.6       6.0       0.7
 2 C  dz2             0.0       0.0       0.1       0.0       0.0       0.1
 2 C  dxz             0.0       0.0       0.1       0.1       0.1       0.0
 2 C  dyz             0.0       0.3       0.0       0.0       0.5       0.1
 2 C  dx2y2           0.0       0.0       0.2       0.1       0.0       0.0
 3 C  s               0.3       0.0       0.3       0.0       0.2       0.7
 3 C  pz              1.4       1.1       0.0       0.4       0.7       3.2
 3 C  px              0.1       1.1       3.6       0.1       0.2       0.2
 3 C  py              0.2       8.4       1.7       0.3       0.5       0.2
 3 C  dz2             0.3       0.0       0.0       0.1       0.0       0.5
 3 C  dxz             0.0       0.0       0.0       0.1       0.1       0.1
 3 C  dyz             0.0       0.3       0.0       0.0       0.2       0.0
 3 C  dx2y2           0.2       0.2       0.0       0.0       0.1       0.1
 3 C  dxy             0.0       0.1       0.0       0.0       0.0       0.1
 4 O  s               0.9       0.0       0.1       0.2       0.3       0.6
 4 O  pz              5.0       4.0       1.5       0.3       3.5       3.5
 4 O  px              0.2       1.7       1.5       0.1       0.3       0.1
 4 O  py              1.9      14.4       0.5       2.1       1.1       2.4
 5 O  s               0.2       0.1       0.0       0.0       0.4       3.3
 5 O  pz              8.6       2.0       0.0       0.1       3.1      20.0
 5 O  px              1.0       0.0       0.7       0.6       0.4       2.2
 5 O  py              1.0       1.2       0.5       0.4       0.5       5.0
 5 O  dx2y2           0.0       0.0       0.0       0.0       0.0       0.1
 6 C  s               0.1       0.1       0.0       0.0       0.0       0.2
 6 C  pz              2.2       3.2       3.4       0.5       1.0       7.5
 6 C  px              1.8       0.0       2.4       0.7       0.2       0.6
 6 C  py              0.2       5.6       2.1       0.5       0.2       2.9
 6 C  dz2             0.3       0.0       0.1       0.0       0.0       0.0
 6 C  dxz             0.0       0.2       0.1       0.0       0.0       0.1
 6 C  dyz             0.1       0.0       0.3       0.1       0.0       0.3
 6 C  dx2y2           0.1       0.0       0.0       0.0       0.1       0.4
 7 C  s               0.0       0.2       0.0       0.0       0.0       0.0
 7 C  pz             12.4       2.0       3.0       0.3       0.2       2.4
 7 C  px             11.3       0.9       2.6       0.7       0.2       0.1
 7 C  py              0.0       4.8       1.6       0.3       0.0       0.6
 7 C  dz2             0.2       0.0       0.1       0.0       0.0       0.0
 7 C  dxz             0.2       0.0       0.0       0.0       0.0       0.0
 7 C  dyz             0.2       0.0       0.2       0.0       0.0       0.1
 7 C  dx2y2           0.0       0.0       0.0       0.0       0.0       0.2
 8 H  s               1.7       1.0       0.8      10.4       0.3       1.4
 9 H  s               0.3       3.2       0.5       3.8       6.2       1.1
10 H  s               0.5       4.3       2.9       2.5       5.6       0.6
11 H  s               0.3       0.3       1.2       4.8      12.9       2.0
12 H  s               0.3       0.2       4.1       4.3      10.2       2.1
13 H  s               0.0       3.9       0.5       1.2       5.4       0.8
14 H  s               0.1       5.2       0.6       2.4       3.3       1.7
15 H  s               0.2       0.2       4.5       0.9       0.8       7.8
16 H  s               3.6       3.1       3.5       0.7       0.3       2.9
17 H  s               3.4       0.2       0.4       0.2       0.2       0.7
18 H  s               2.5       0.4       3.2       0.5       0.3       2.9
19 H  s              13.3       1.1       3.4       0.5       0.1       1.0

                     30        31        32        33        34        35   
                  -0.25491  -0.21867  -0.01823   0.03711   0.05379   0.07831
                   2.00000   2.00000   0.00000   0.00000   0.00000   0.00000
                  --------  --------  --------  --------  --------  --------
 0 C  s               0.0       0.0       0.0       7.5       4.7       0.2
 0 C  pz              0.0       0.0       0.0       1.1       0.2       0.5
 0 C  px              0.0       0.1       0.1       1.3       0.5       0.0
 0 C  py              0.0       0.0       0.1       0.1       0.0       3.0
 0 C  dxz             0.0       0.0       0.0       0.2       0.0       0.0
 0 C  dyz             0.0       0.0       0.0       0.0       0.0       0.1
 1 C  s               0.0       0.2       0.3       5.6       0.8       1.5
 1 C  pz              0.0       0.0       0.1       1.4       0.4       0.2
 1 C  px              0.0       0.1       0.2       0.1       0.1       1.0
 1 C  py              0.3       0.1       0.0       0.0       0.0       2.9
 1 C  dz2             0.0       0.0       0.0       0.1       0.0       0.1
 1 C  dyz             0.0       0.0       0.0       0.0       0.0       0.5
 2 C  s               0.0       0.6       0.0       5.9       0.3       2.3
 2 C  pz              0.1       2.7       0.1       3.7       0.4       0.9
 2 C  px              0.0       4.0       0.0       0.1       0.0       0.8
 2 C  py              0.2       0.4       0.3       0.0       0.0       4.3
 2 C  dz2             0.0       0.0       0.0       0.2       0.1       0.0
 2 C  dxz             0.0       0.0       0.4       0.2       0.0       0.1
 2 C  dyz             0.0       0.0       0.7       0.0       0.0       0.3
 2 C  dxy             0.0       0.0       0.8       0.0       0.0       0.0
 3 C  s               0.0       0.3       0.0       1.2       0.4       0.1
 3 C  pz              0.1       0.5       5.2       0.5       0.3       0.3
 3 C  px              0.0       0.8       1.0       0.5       0.0       0.2
 3 C  py              0.4       0.1      41.7       0.2       0.3       1.2
 3 C  dz2             0.7       0.1       0.2       0.3       0.0       0.0
 3 C  dxz             0.0       3.9       0.1       0.0       0.0       0.0
 3 C  dyz             1.2       0.0       0.3       0.3       0.0       0.0
 3 C  dx2y2           0.1       0.0       0.3       0.1       0.0       0.1
 3 C  dxy             0.3       0.6       0.3       0.0       0.0       0.0
 4 O  s               0.0       0.0       0.0       0.6       0.2       0.0
 4 O  pz              3.8       1.2       2.8       0.2       0.0       0.1
 4 O  px              0.0      71.2       0.4       0.0       0.7       0.1
 4 O  py             28.4       0.3      22.8       0.0       0.2       0.8
 4 O  dz2             0.0       0.0       0.2       0.0       0.0       0.0
 4 O  dyz             0.0       0.0       0.3       0.0       0.0       0.0
 5 O  s               0.0       0.3       0.0       0.2       0.0       1.8
 5 O  pz              4.9       7.4       1.3       0.0       0.0       0.1
 5 O  px              1.2       1.1       0.2       0.0       0.1       0.8
 5 O  py             40.8       0.1       8.0       0.1       0.8       1.0
 5 O  dyz             0.0       0.0       0.1       0.0       0.0       0.0
 5 O  dxy             0.0       0.0       0.3       0.0       0.0       0.0
 6 C  s               0.0       0.1       0.0       1.8       7.1       0.5
 6 C  pz              0.9       0.0       0.0       0.1       1.0       0.4
 6 C  px              0.1       0.5       0.1       0.2       0.9       7.4
 6 C  py              3.1       0.5       0.1       0.4       1.7       0.8
 6 C  dz2             0.0       0.0       0.0       0.0       0.1       0.1
 6 C  dxz             0.2       0.0       0.1       0.0       0.0       0.2
 6 C  dyz             0.2       0.0       0.1       0.0       0.0       0.1
 6 C  dx2y2           0.0       0.0       0.0       0.0       0.0       0.7
 6 C  dxy             0.6       0.0       0.3       0.0       0.0       0.1
 7 C  s               0.6       0.0       0.7       2.5      11.2       3.7
 7 C  pz              2.6       0.1       0.1       0.2       0.3       0.1
 7 C  px              1.4       0.1       0.1       0.2       2.2       0.5
 7 C  py              3.0       0.1       0.2       0.5       1.6       0.7
 7 C  dxz             0.0       0.0       0.0       0.0       0.0       0.1
 7 C  dyz             0.0       0.0       0.0       0.0       0.2       0.0
 7 C  dx2y2           0.0       0.0       0.0       0.1       0.1       0.4
 8 H  s               0.0       0.1       0.0       4.0       3.2       1.6
 9 H  s               0.0       0.1       0.0       7.8       3.7       2.9
10 H  s               0.1       0.0       0.3       6.6       3.4       4.3
11 H  s               0.1       0.2       0.0       4.3       1.0       1.1
12 H  s               0.2       0.1       0.1       6.7       0.9      12.4
13 H  s               0.1       0.6       2.4      11.4       0.6       0.5
14 H  s               0.0       0.4       5.6       9.8       0.5      17.4
15 H  s               1.7       0.3       0.2       1.8       5.0       1.2
16 H  s               1.3       0.1       0.2       2.1      15.1       5.5
17 H  s               0.7       0.1       0.3       2.6      14.9       0.7
18 H  s               0.1       0.0       0.2       2.3      10.1       4.4
19 H  s               0.2       0.1       0.2       2.1       3.9       6.7

                     36        37        38        39        40        41   
                   0.08214   0.08647   0.09069   0.10149   0.10228   0.11996
                   0.00000   0.00000   0.00000   0.00000   0.00000   0.00000
                  --------  --------  --------  --------  --------  --------
 0 C  s               4.9       0.0       5.0       1.6       3.7       0.7
 0 C  pz              3.3       0.3       0.7       2.3       0.9       1.8
 0 C  px              1.6       0.1       0.4       0.1       0.3       0.3
 0 C  py              0.4       3.5       0.1       0.6       0.2       0.3
 0 C  dxz             0.1       0.0       0.1       0.2       0.2       0.0
 0 C  dyz             0.1       0.1       0.0       0.1       0.0       0.0
 0 C  dx2y2           0.2       0.0       0.0       0.1       0.0       0.2
 1 C  s               1.1       0.0       0.9       0.6       7.2       3.8
 1 C  pz              1.2       0.3       0.9       2.7       1.1       0.4
 1 C  px              0.3       0.0       0.2       0.7       0.0       0.1
 1 C  py              1.0       3.2       0.6       0.1       0.1       0.1
 1 C  dz2             0.6       0.0       0.0       0.0       0.0       0.2
 1 C  dxz             0.2       0.1       0.3       0.3       0.1       0.1
 1 C  dyz             0.1       0.5       0.0       0.1       0.0       0.0
 1 C  dx2y2           0.2       0.0       0.0       0.2       0.0       0.0
 2 C  s               5.2       0.0       1.6       1.4       0.0       0.6
 2 C  pz              4.8       0.4       0.1       0.2       0.3       0.7
 2 C  px              0.9       0.4       0.4       0.5       0.1       0.1
 2 C  py              2.0       3.7       0.0       0.1       0.1       0.1
 2 C  dz2             0.1       0.0       0.0       0.0       0.0       0.0
 2 C  dxz             0.1       0.0       0.0       0.1       0.1       0.0
 2 C  dyz             0.0       0.1       0.0       0.0       0.0       0.0
 2 C  dx2y2           0.5       0.1       0.0       0.1       0.2       0.4
 2 C  dxy             0.2       0.0       0.0       0.0       0.0       0.0
 3 C  s               0.7       0.0       2.8       0.3       0.3       0.9
 3 C  pz              0.5       0.0       0.3       0.6       0.5       0.3
 3 C  px              0.1       0.1       0.3       0.5       0.1       0.0
 3 C  py              0.1       0.4       0.1       0.1       0.5       0.4
 3 C  dz2             0.2       0.1       0.0       0.1       0.3       0.0
 3 C  dxz             0.1       0.0       0.0       0.1       0.0       0.0
 3 C  dyz             0.0       0.0       0.2       0.0       0.1       0.0
 3 C  dx2y2           0.1       0.0       0.5       0.3       0.1       0.3
 4 O  s               0.0       0.0       0.9       0.0       0.3       0.1
 4 O  px              0.1       0.1       0.2       0.1       0.4       0.8
 4 O  py              0.1       0.1       0.0       0.1       0.1       0.0
 5 O  s               0.1       2.1       1.3       3.4       1.4       2.1
 5 O  pz              0.3       0.4       0.2       0.9       0.3       0.3
 5 O  px              0.1       2.1       0.1       1.6       1.7       0.1
 5 O  py              0.1       0.1       0.1       0.3       0.0       0.1
 5 O  dz2             0.0       0.0       0.1       0.0       0.1       0.0
 5 O  dx2y2           0.1       0.0       0.1       0.2       0.2       0.1
 6 C  s               0.3       0.3       0.0      11.3       4.9       0.0
 6 C  pz              0.3       1.3       9.0       0.4       2.8       2.4
 6 C  px              0.9      13.6       0.7       6.2       1.4       4.0
 6 C  py              1.0       0.2       1.5       1.5       0.2       2.1
 6 C  dz2             0.0       0.4       0.1       0.5       0.0       0.4
 6 C  dxz             0.0       0.3       0.0       0.3       0.1       0.0
 6 C  dyz             0.0       0.5       0.2       0.1       0.0       0.1
 6 C  dx2y2           0.2       0.7       0.7       0.2       0.7       0.1
 6 C  dxy             0.0       0.2       0.3       0.0       0.0       0.6
 7 C  s               0.0       4.5       0.3       2.4       3.0       0.0
 7 C  pz              0.2       0.5       5.1       1.3       1.0       0.8
 7 C  px              0.5       1.1       0.2       0.1       3.4       8.4
 7 C  py              0.3       0.3       1.1       1.0       1.0       6.4
 7 C  dz2             0.0       0.1       0.2       0.2       0.0       0.6
 7 C  dxz             0.0       0.1       0.0       0.2       0.3       0.0
 7 C  dyz             0.0       0.2       0.2       0.0       0.1       0.1
 7 C  dx2y2           0.1       0.5       0.5       0.0       0.3       0.0
 7 C  dxy             0.0       0.0       0.1       0.2       0.0       0.1
 8 H  s              19.4       0.7       1.9       0.8       0.4       6.7
 9 H  s               0.6       3.6       3.2       9.2       7.2       0.1
10 H  s               1.5       5.7       8.3       1.7       2.8       0.6
11 H  s               8.0       3.5       0.3       4.7      10.5       5.1
12 H  s               0.5       5.8       5.4       1.9       6.4       2.9
13 H  s              22.3       3.7       0.6       0.2       0.2       0.2
14 H  s               4.9       5.6       0.6       1.0       0.1       0.3
15 H  s               3.1       0.1      13.4      19.3       0.2       5.6
16 H  s               0.4      13.0      10.0       2.2      10.3       0.2
17 H  s               1.9       1.1       0.7       1.9      20.1      22.1
18 H  s               1.2       2.6      12.1       9.4       0.7      11.5
19 H  s               0.0      10.5       4.3       0.6       0.6       2.6

                     42        43        44        45        46        47   
                   0.13169   0.13464   0.14046   0.14564   0.17836   0.18606
                   0.00000   0.00000   0.00000   0.00000   0.00000   0.00000
                  --------  --------  --------  --------  --------  --------
 0 C  s               0.1       0.1       0.0       0.0       0.1       1.4
 0 C  pz             10.0       0.2       0.0       0.1       0.6       0.7
 0 C  px              5.0       0.7       1.1       0.1       0.9       9.8
 0 C  py              1.0       1.3      16.2       0.2       0.1       0.4
 0 C  dz2             0.3       0.0       0.0       0.0       0.1       1.4
 0 C  dxz             0.6       0.0       0.0       0.0       0.1       0.9
 0 C  dyz             0.0       0.1       1.0       0.1       0.0       0.0
 0 C  dx2y2           0.3       0.0       0.0       0.2       0.1       0.8
 0 C  dxy             0.0       0.0       0.1       0.7       0.0       0.2
 1 C  s               0.7       0.7       0.0       0.0       0.1       7.8
 1 C  pz              1.7       0.1       0.0       0.2       1.2      19.0
 1 C  px              0.6       0.1       0.2       0.4       3.1       0.4
 1 C  py              0.0       0.5       4.7      12.2       0.1       0.1
 1 C  dz2             0.2       0.0       0.0       0.0       0.3       0.7
 1 C  dxz             0.5       0.0       0.0       0.0       0.7       0.4
 1 C  dyz             0.0       0.0       0.2       0.1       0.0       0.0
 1 C  dx2y2           0.1       0.0       0.1       0.1       0.0       2.5
 1 C  dxy             0.0       0.1       0.8       0.5       0.0       0.5
 2 C  s               2.2       0.0       0.0       0.0       0.4       1.3
 2 C  pz              1.3       0.1       0.0       0.0       0.6       1.6
 2 C  px              1.1       0.1       0.1       1.3       4.0      16.0
 2 C  py              0.0       0.2       2.9      12.3       1.0       1.3
 2 C  dz2             0.1       0.0       0.0       0.0       0.2       0.0
 2 C  dxz             0.0       0.1       0.0       0.0       0.9       4.9
 2 C  dyz             0.0       0.1       0.7       0.1       0.0       0.4
 2 C  dxy             0.0       0.0       0.3       0.2       0.1       0.0
 3 C  s               0.0       0.4       0.1       0.0       8.3       1.9
 3 C  pz              0.2       0.4       0.0       0.6       0.1       1.9
[...]
 2 C  py              0.2       0.0       0.0       0.0       0.0       0.0
 2 C  dz2             0.4       0.4       0.1       0.1       1.4       0.6
 2 C  dxz            18.1       0.0       0.0       0.0       3.8       0.0
 2 C  dyz             1.0       0.1       0.2       0.5       0.7       0.0
 2 C  dx2y2           0.2       0.7       0.0       0.2       0.8       1.1
 2 C  dxy             0.0       0.2       0.1       0.4       0.0       0.1
 3 C  s               0.8       0.0       0.0       0.0       0.3       1.1
 3 C  pz              0.2       0.2       0.0       0.2       0.2       1.8
 3 C  px              1.0       0.2       0.0       0.0       0.4       1.4
 3 C  py              0.1       0.0       0.0       1.0       0.0       0.1
 3 C  dz2             0.2       0.1       0.1       0.1       5.0       0.0
 3 C  dxz             0.1       0.0       0.2       0.9       2.5       2.2
 3 C  dyz             0.0       0.7       0.4       0.0       0.9       2.2
 3 C  dx2y2           0.7       1.6       0.0       1.7       4.8       0.6
 3 C  dxy             0.2       0.1       1.6       8.9       0.3       0.8
 4 O  s               0.0       0.0       0.0       0.0       1.3       0.4
 4 O  pz              0.0       0.0       0.0       0.0       0.5       0.2
 4 O  px              0.0       0.0       0.0       0.0       0.2       0.5
 4 O  py              0.0       0.0       0.0       0.3       0.1       0.2
 4 O  dz2             0.0       1.0       0.8       6.3       0.1       0.5
 4 O  dxz             0.2       2.5       0.7       0.4       6.3      19.5
 4 O  dyz             0.7       6.1       1.2      14.2       0.9       2.4
 4 O  dx2y2           0.9      66.7       2.1       0.3       3.5       0.5
 4 O  dxy             2.8       4.5       3.2       6.4       3.4       3.2
 5 O  s               0.0       0.1       0.0       0.0       0.7       7.6
 5 O  pz              0.1       0.3       0.1       0.1       0.8       0.9
 5 O  px              0.1       0.1       0.0       0.1       1.6       0.1
 5 O  py              0.0       0.0       1.1       0.3       0.3       0.1
 5 O  dz2            10.2       1.8      10.1      11.3      13.8       0.0
 5 O  dxz             0.6       0.0       5.0       0.7       8.7       6.5
 5 O  dyz             2.3       1.0      21.8      12.3      21.3       3.9
 5 O  dx2y2           0.0       0.7      10.5       0.1       3.3      33.6
 5 O  dxy             0.5       0.0      19.2      30.3       0.8       2.5
 6 C  s               0.1       0.3       0.2       0.0       0.5       0.4
 6 C  pz              0.0       0.3       0.0       0.0       0.1       0.1
 6 C  px              0.0       0.2       0.1       0.0       0.9       0.6
 6 C  py              0.0       0.0       0.3       0.0       0.0       0.0
 6 C  dz2             0.0       0.0       0.1       0.1       1.5       0.0
 6 C  dxz             1.1       0.6       2.4       0.1       0.6       1.5
 6 C  dyz             0.1       0.0       0.6       0.6       0.0       0.3
 6 C  dx2y2           0.2       0.5       1.5       0.7       3.5       1.0
 6 C  dxy             0.0       0.1      11.2       0.4       0.4       0.4
 7 C  s               0.0       0.1       0.1       0.0       0.0       0.0
 7 C  px              0.0       0.0       0.1       0.0       0.0       0.0
 7 C  py              0.0       0.0       0.2       0.0       0.0       0.0
 7 C  dxz             0.0       0.1       0.1       0.1       0.2       0.1
 7 C  dyz             0.0       0.1       1.2       0.0       0.0       0.0
 7 C  dx2y2           0.0       0.0       2.9       0.3       0.0       0.1
 7 C  dxy             0.0       0.2       0.1       0.0       0.1       0.0
 8 H  s               0.1       0.0       0.0       0.0       0.0       0.0
15 H  s               0.0       0.1       0.0       0.1       0.0       0.0
16 H  s               0.1       0.1       0.0       0.0       0.0       0.0
17 H  s               0.0       0.0       0.2       0.0       0.0       0.0

                    132       133       134       135   
                   3.11655   3.32323   3.50384   3.55974
                   0.00000   0.00000   0.00000   0.00000
                  --------  --------  --------  --------
 1 C  dz2             0.0       0.0       0.2       0.0
 2 C  s               0.0       0.2       0.1       0.0
 2 C  px              0.0       0.1       0.3       0.1
 2 C  dz2             0.0       0.0       1.0       0.0
 2 C  dxz             0.1       0.8       0.1       0.7
 2 C  dx2y2           0.0       0.0       0.9       0.0
 2 C  dxy             0.5       0.0       0.1       0.0
 3 C  s               0.0       3.8       0.2       6.1
 3 C  pz              0.0       0.2       2.6       3.7
 3 C  px              0.1       1.4       0.7       0.2
 3 C  py              0.4       0.1       0.2       0.6
 3 C  dz2             6.2       2.7       0.1       8.4
 3 C  dxz             0.4       0.5      18.6       1.4
 3 C  dyz            11.0       0.1       0.1       2.3
 3 C  dx2y2           2.0       2.6       0.4       0.5
 3 C  dxy             0.7       0.6       1.9       0.3
 4 O  s               0.0       1.8       0.8       4.3
 4 O  pz              0.1       0.7       0.6       2.7
 4 O  px              0.1       0.2       0.5       0.3
 4 O  py              0.7       0.1       0.0       0.5
 4 O  dz2            16.5      12.1       9.9      25.7
 4 O  dxz             4.4       4.5      12.4       9.2
 4 O  dyz            29.3       3.8       1.7      16.3
 4 O  dx2y2           6.7       0.0       0.6       0.4
 4 O  dxy             0.4       0.5       2.3       1.4
 5 O  s               0.2       0.1       0.8       0.3
 5 O  pz              0.0       0.3       0.4       0.1
 5 O  px              0.0       2.3       3.4       0.1
 5 O  dz2             0.3      16.9       0.0       4.7
 5 O  dxz             0.5      18.7      31.0       0.4
 5 O  dyz             1.9       0.7       0.0       0.3
 5 O  dx2y2           2.3       9.3       3.9       7.3
 5 O  dxy            13.2       5.8       1.8       0.3
 6 C  s               0.0       0.8       0.3       0.0
 6 C  pz              0.0       0.3       0.0       0.0
 6 C  px              0.0       1.4       0.4       0.1
 6 C  dz2             0.1       0.5       0.5       0.0
 6 C  dxz             0.1       1.7       0.0       0.5
 6 C  dyz             0.3       0.2       0.0       0.1
 6 C  dx2y2           0.1       2.3       0.5       0.1
 6 C  dxy             0.8       1.0       0.0       0.1
 7 C  dx2y2           0.1       0.0       0.0       0.0
 7 C  dxy             0.0       0.1       0.0       0.0


                      *****************************
                      * MAYER POPULATION ANALYSIS *
                      *****************************

  NA   - Mulliken gross atomic population
  ZA   - Total nuclear charge
  QA   - Mulliken gross atomic charge
  VA   - Mayer's total valence
  BVA  - Mayer's bonded valence
  FA   - Mayer's free valence

  ATOM       NA         ZA         QA         VA         BVA        FA
  0 C      6.2529     6.0000    -0.2529     4.0108     4.0108    -0.0000
  1 C      6.2017     6.0000    -0.2017     4.1807     4.1807     0.0000
  2 C      6.1767     6.0000    -0.1767     3.9301     3.9301     0.0000
  3 C      5.8685     6.0000     0.1315     4.3663     4.3663    -0.0000
  4 O      8.2100     8.0000    -0.2100     2.2881     2.2881    -0.0000
  5 O      8.2411     8.0000    -0.2411     2.2585     2.2585    -0.0000
  6 C      6.0100     6.0000    -0.0100     4.0543     4.0543    -0.0000
  7 C      6.3047     6.0000    -0.3047     4.0138     4.0138     0.0000
  8 H      0.8946     1.0000     0.1054     0.9507     0.9507    -0.0000
  9 H      0.9045     1.0000     0.0955     0.9552     0.9552     0.0000
 10 H      0.9040     1.0000     0.0960     0.9572     0.9572    -0.0000
 11 H      0.8962     1.0000     0.1038     0.9588     0.9588     0.0000
 12 H      0.9058     1.0000     0.0942     0.9467     0.9467     0.0000
 13 H      0.8966     1.0000     0.1034     0.9679     0.9679    -0.0000
 14 H      0.8888     1.0000     0.1112     0.9586     0.9586    -0.0000
 15 H      0.8943     1.0000     0.1057     0.9771     0.9771    -0.0000
 16 H      0.8997     1.0000     0.1003     0.9503     0.9503    -0.0000
 17 H      0.8887     1.0000     0.1113     0.9550     0.9550     0.0000
 18 H      0.8881     1.0000     0.1119     0.9572     0.9572    -0.0000
 19 H      0.8734     1.0000     0.1266     0.9679     0.9679    -0.0000

  Mayer bond orders larger than 0.100000
B(  0-C ,  1-C ) :   1.1549 B(  0-C ,  8-H ) :   0.9540 B(  0-C ,  9-H ) :   0.9528 
B(  0-C , 10-H ) :   0.9539 B(  1-C ,  2-C ) :   1.1307 B(  1-C , 11-H ) :   0.9216 
B(  1-C , 12-H ) :   0.9321 B(  2-C ,  3-C ) :   1.0185 B(  2-C , 13-H ) :   0.9058 
B(  2-C , 14-H ) :   0.8897 B(  3-C ,  4-O ) :   2.0370 B(  3-C ,  5-O ) :   1.2155 
B(  5-O ,  6-C ) :   0.9239 B(  6-C ,  7-C ) :   1.1731 B(  6-C , 15-H ) :   0.9143 
B(  6-C , 16-H ) :   0.9377 B(  7-C , 17-H ) :   0.9445 B(  7-C , 18-H ) :   0.9491 
B(  7-C , 19-H ) :   0.9465 

-------
TIMINGS
-------

Total SCF time: 0 days 0 hours 0 min 8 sec 

Total time                  ....       8.003 sec
Sum of individual times     ....       7.519 sec  ( 94.0%)

SCF preparation             ....       0.169 sec  (  2.1%)
Fock matrix formation       ....       6.536 sec  ( 81.7%)
  Startup                   ....       0.052 sec  (  0.8% of F)
  Split-RI-J                ....       2.226 sec  ( 34.1% of F)
  XC integration            ....       3.761 sec  ( 57.5% of F)
    XC Preparation          ....       0.000 sec  (  0.0% of XC)
    Basis function eval.    ....       1.378 sec  ( 36.6% of XC)
    Density eval.           ....       0.453 sec  ( 12.0% of XC)
    XC-Functional eval.     ....       0.361 sec  (  9.6% of XC)
    XC-Potential eval.      ....       0.717 sec  ( 19.1% of XC)
Diagonalization             ....       0.000 sec  (  0.0%)
Density matrix formation    ....       0.173 sec  (  2.2%)
Total Energy calculation    ....       0.038 sec  (  0.5%)
Population analysis         ....       0.077 sec  (  1.0%)
Orbital Transformation      ....       0.047 sec  (  0.6%)
Orbital Orthonormalization  ....       0.000 sec  (  0.0%)
DIIS solution               ....       0.322 sec  (  4.0%)
  MO trafo                  ....       0.000 sec  (  0.0 % of DIIS)
  Orb grad                  ....       0.000 sec  (  0.0 % of DIIS)
  Energy W gradient         ....       0.000 sec  (  0.0 % of DIIS)
  DIIS error                ....       0.005 sec  (  1.7 % of DIIS)
  DIIS work                 ....       0.271 sec  ( 84.3 % of DIIS)
  Form Q                    ....       0.000 sec  (  0.0 % of DIIS)
  Form QpQm                 ....       0.000 sec  (  0.0 % of DIIS)
  Exp/Cayley                ....       0.000 sec  (  0.0 % of DIIS)
  Orb update                ....       0.000 sec  (  0.0 % of DIIS)
  Wake-sleep                ....       0.020 sec  (  6.2 % of DIIS)
SOSCF solution              ....       0.159 sec  (  2.0%)
  MO trafo                  ....       0.056 sec  ( 35.3 % of SOSCF)
  Orb grad                  ....       0.003 sec  (  1.8 % of SOSCF)
  Rot update                ....       0.060 sec  ( 37.9 % of SOSCF)
  Step                      ....       0.039 sec  ( 24.9 % of SOSCF)
Finished LeanSCF after   8.1 sec

Maximum memory used throughout the entire LEANSCF-calculation: 12.6 MB


-------------------------------------------------------------------------------
                          DFT DISPERSION CORRECTION                            
                                                                               
                                DFTD4 V3.4.0                                   
-------------------------------------------------------------------------------
The PBE functional is recognized
Active option DFTDOPT                   ...         5   

-------------------------   ----------------
Dispersion correction           -0.014598335
-------------------------   ----------------

------------------   -----------------
gCP correction             0.089831150
------------------   -----------------

-------------------------   --------------------
FINAL SINGLE POINT ENERGY      -385.458891252375
-------------------------   --------------------


------------------------------------------------------------------------------
                              ORCA PROPERTY CALCULATIONS
------------------------------------------------------------------------------

GBWName                                 ... sp.gbw
Number of atoms                         ...     20
Number of basis functions               ...    136
Max core memory                         ...   1024 MB

Electric properties:
Dipole moment                           ... YES
Quadrupole moment                       ...  NO
Static polarizability (Dipole/Dipole)   ...  NO
Static polarizability (Dipole/Quad.)    ...  NO
Static polarizability (Quad./Quad.)     ...  NO
Static polarizability (Velocity)        ...  NO

Atomic electric properties:
Dipole moment                           ...  NO
Quadrupole moment                       ...  NO
Static polarizability                   ...  NO

Choice of electric origin               ... Center of mass
Position of electric origin             ...    -0.000015    -0.000012     0.000004

General magnetic properties:
Magnetizability                         ...  NO

EPR properties:
g-Tensor (aka g-matrix)                 ...  NO
Zero-Field splitting spin-orbit         ...  NO
Zero-field splitting spin-spin          ...  NO
Hyperfine couplings                     ...  NO (   0 nuclei)
Quadrupole couplings                    ...  NO (   0 nuclei)
Contact density                         ...  NO (   0 nuclei)

NMR properties:
Chemical shifts                         ...  NO (   0 nuclei)
Spin-rotation constants                 ...  NO (   0 nuclei)
Spin-spin couplings                     ...  NO (   0 nuclei,    0 pairs)

Choice of magnetic origin               ... GIAO
Position of magnetic origin             ...     0.000000     0.000000     0.000000

Properties with geometric perturbations:
SCF Hessian                             ...  NO
IR spectrum                             ...  NO
VCD spectrum                            ...  NO
X-ray spectroscopy properties:
SCF XES/XAS/RIXS spectra                ...  NO


-------------
DIPOLE MOMENT
-------------

Method             : SCF
Type of density    : Electron Density
Multiplicity       :   1
Irrep              :   0
Energy             :  -385.5341240675604126 Eh
Relativity type    : 
Basis              : AO
                                X                 Y                 Z
Electronic contribution:      3.702542894       3.127871136      -0.317221448
Nuclear contribution   :     -3.447659645      -3.341979983       0.878899495
                        -----------------------------------------
Total Dipole Moment    :      0.254883249      -0.214108847       0.561678047
                        -----------------------------------------
Magnitude (a.u.)       :      0.652909104
Magnitude (Debye)      :      1.659563054



--------------------
Rotational spectrum 
--------------------
 
Rotational constants in cm-1:             0.194702             0.028480             0.027368 
Rotational constants in MHz :          5837.025848           853.810663           820.457262 

Dipole components along the rotational axes: 
x,y,z [a.u.] :     0.233277    -0.604859    -0.077573 
x,y,z [Debye]:     0.592943    -1.537430    -0.197175 

 

Dipole moment calculation done in   0.0 sec 

Maximum memory used throughout the entire PROP-calculation: 7.9 MB

--------------------------------
SUGGESTED CITATIONS FOR THIS RUN
--------------------------------

Below you find a list of papers that are relevant to this ORCA run
We neither can nor want to force you to cite these papers, but we appreciate if you do
You receive ORCA, which is the product of decades of hard work by many enthusiastic individuals, for free
The only thing we kindly ask in return is that you cite our papers,
We deeply appreciate it, if you show your appreciation for ORCA by not just citing the generic ORCA reference.

Please note that relegating all ORCA citations to the supporting information does *not* help us.
SI sections are not indexed - citations you put there will not count into any citation statistics
But we need these citations in order to attract the funding resources that allow us to do what we are doing

Therefore, if you are a happy ORCA user, please consider citing a few of the papers listed below in the main body of your paper

In addition to the list printed below, the program has created the file sp.bibtex that contains the list in bibtex format
You can import this file easily into all common literature databanks and citation aid programs


List of essential papers. We consider these as the minimum necessary citations

  1. Neese,F.
     Software update: the ORCA program system, version 5.0
     WIRES Comput. Molec. Sci., 2022 12(1)e1606
     doi.org/10.1002/wcms.1606

List of papers to cite with high priority. The work reported in these papers was absolutely
necessary for this run to complete.
Our perspective: the developers of density functionals and basis sets usually get cited in chemistry papers
Good! But without the algorithms to do something with them, the functionals or basis sets would not do anything.
Hence, in our opinion, the algorithm design and method developments papers are equally worthy of getting cited

  1. Neese,F.
     An improvement of the resolution of the identity approximation for the formation of the Coulomb matrix
     J. Comp. Chem., 2003 24(14)1740-1747
     doi.org/10.1002/jcc.10318
  2. Neese,F.
     The SHARK Integral Generation and Digestion System
     J. Comp. Chem., 2022  1-16
     doi.org/10.1002/jcc.26942
  3. Caldeweyher,E.; Bannwarth,C.; Grimme,S.
     Extension of the D3 dispersion coefficient model
     J. Chem. Phys., 2017 147 034112-XXXX
     doi.org/10.1063/1.4993215
  4. Caldeweyher,E.; Ehlert,S.; Hansen,A.; Neugebauer,H.; Spicher,S.; Bannwarth,C.; Grimme,S.
     A generally applicable atomic-charge dependent London dispersion correction
     J. Chem. Phys., 2019 150 154122-XXXX
     doi.org/10.1063/1.5090222
  5. Caldeweyher,E.; Mewes,J.; Ehlert,S.; Grimme,S.
     Extension and evaluation of the D4 London-dispersion model for periodic systems
     Phys. Chem. Chem. Phys., 2020 22(16)8499-8512
     doi.org/10.1039/D0CP00502A

List of suggested additional citations. These are papers that are important in the 'surrounding' of 
of this run, or papers that preceded the highly important papers. If you like your results we are grateful for a citation.

  1. Neese,F.
     The ORCA program system
     WIRES Comput. Molec. Sci., 2012 2(1)73-78
     doi.org/10.1002/wcms.81
  2. Neese,F.
     Software update: the ORCA program system, version 4.0
     WIRES Comput. Molec. Sci., 2018 8(1)1-6
     doi.org/10.1002/wcms.1327
  3. Neese,F.; Wennmohs,F.; Becker,U.; Riplinger,C.
     The ORCA quantum chemistry program package
     J. Chem. Phys., 2020 152 Art. No. L224108
     doi.org/10.1063/5.0004608

List of optional additional citations

  1. Neese,F.
     Approximate second-order SCF convergence for spin unrestricted wavefunctions
     Chem. Phys. Lett., 2000 325(1-3)93-98
     doi.org/10.1016/s0009-2614(00)00662-x

Timings for individual modules:

Sum of individual times          ...        9.734 sec (=   0.162 min)
Startup calculation              ...        0.757 sec (=   0.013 min)   7.8 %
SCF iterations                   ...        8.868 sec (=   0.148 min)  91.1 %
Property calculations            ...        0.108 sec (=   0.002 min)   1.1 %
                             ****ORCA TERMINATED NORMALLY****
TOTAL RUN TIME: 0 days 0 hours 0 minutes 10 seconds 445 msec
