22
 energy: -23.417175869589 gnorm: 0.030758935466 xtb: 6.7.1 (edcfbbe)
C            2.27330311154019        1.06793869365831        0.22337279991029
C            1.21286225505356       -0.02813588352458        0.21934804149505
C            1.74608602900460       -1.27602163545841       -0.48264730854820
N           -0.02382855408910        0.47616326002980       -0.43249500509988
C           -1.26127680761608        0.18411301487470        0.32368994867821
C           -1.58388062028728       -1.30536911543144        0.32833518998178
C           -2.40845630633375        0.98171003493472       -0.28409406268443
H            1.93567987874547        1.94270233512586        0.79023493845201
H            3.20255814928816        0.70671654979016        0.67496409626230
H            2.49981758147951        1.38679411838626       -0.80138840598916
H            0.99221814946856       -0.28849752175231        1.26812889312860
H            2.06461065117846       -1.03188696596196       -1.50259523598480
H            0.98821654045652       -2.06152474468796       -0.54445413208481
H            2.61023826902433       -1.67888750369001        0.05726437882441
H            0.04793764211069        1.48963753807712       -0.45526721304683
H           -1.14448757517277        0.50291484379357        1.37715711662458
H           -2.52411189167145       -1.47771229439438        0.86267846108009
H           -1.69673072171993       -1.68229488150840       -0.69490496210272
H           -0.80827095643309       -1.89120793586702        0.83007591850656
H           -3.32354818067831        0.83846335212543        0.29886055920062
H           -2.60489744678030        0.65949689776194       -1.31304431896658
H           -2.18088139595343        2.05376277171871       -0.29722295622719
22
 energy: -23.418629874475 gnorm: 0.014146654029 xtb: 6.7.1 (edcfbbe)
C            2.27684831676720        1.06724287056496        0.22273095847431
C            1.21315872798338       -0.02674775085218        0.23291822005642
C            1.73991378599993       -1.26643728519154       -0.48784689226580
N           -0.02347437123913        0.45754472848130       -0.41059846137219
C           -1.25928111779609        0.18243765845027        0.33626274925440
C           -1.58917846247629       -1.30540496833845        0.32869621159265
C           -2.40290569507159        0.97667067625663       -0.28596131379577
H            1.94226540150840        1.93742777749770        0.78833146727543
H            3.20034982513927        0.70435982983913        0.67145433097520
H            2.49057214809811        1.37766367115169       -0.80034485033399
H            0.99886457584622       -0.29014659548654        1.28277382486960
H            2.04482574325951       -1.01295957159354       -1.50219514601863
H            0.98128210362596       -2.04250161549846       -0.54662980437155
H            2.60230763277930       -1.66475464247617        0.04610181321430
H            0.04660858015602        1.46972835895384       -0.48899188175228
H           -1.14503068600292        0.50397252713401        1.39098417306221
H           -2.53087940940837       -1.47411997160515        0.85014765675641
H           -1.68561393622111       -1.66724291605595       -0.69423612332875
H           -0.81662443450131       -1.88260828965101        0.83262579277211
H           -3.31683335385614        0.83021557420617        0.28794588184903
H           -2.57890124805525        0.65206534957892       -1.31036954598698
H           -2.17511632592054        2.04246951263450       -0.29780231951620
22
 energy: -23.419199101811 gnorm: 0.007970909440 xtb: 6.7.1 (edcfbbe)
C            2.27398120911153        1.06978862414427        0.22586888659118
C            1.21055527517637       -0.02682962264465        0.24163477686761
C            1.73711942883529       -1.26188861189620       -0.49199100508572
N           -0.02503722841352        0.44163980287061       -0.39158035559086
C           -1.25554815768872        0.18257675712949        0.34961814493672
C           -1.59261596930153       -1.30629571537545        0.33456431379893
C           -2.39386059355552        0.97727308998194       -0.28661519736073
H            1.94189776212815        1.93827263684887        0.79019731042937
H            3.19428826932384        0.70426224927619        0.67091794033079
H            2.47738452608217        1.37089494435569       -0.79746565104149
H            1.00789347604260       -0.29678572089144        1.29297518911014
H            2.02407247419764       -0.99101361786978       -1.50255679586768
H            0.97611015796400       -2.03056296364917       -0.54925342502963
H            2.60314825405627       -1.66015685915656        0.02885629717716
H            0.04322500707182        1.44939941818719       -0.53938323671910
H           -1.14937055416776        0.50331834060608        1.40769270376566
H           -2.54031058811030       -1.47290942157208        0.83818041731898
H           -1.66980775949514       -1.65198010349084       -0.69117116443083
H           -0.82705042889633       -1.88136008860484        0.84474690510078
H           -3.31087207726004        0.82295847245725        0.27380087075874
H           -2.54429496303293        0.64825913056786       -1.30961878424038
H           -2.16774971945330        2.04001418672571       -0.29342139940973
22
 energy: -23.419338199184 gnorm: 0.006193218672 xtb: 6.7.1 (edcfbbe)
C            2.27073203537721        1.07165086893148        0.22873300934597
C            1.20978778023904       -0.02863444699770        0.24411841685010
C            1.73884462978205       -1.26074329239633       -0.49620613607373
N           -0.02600434616010        0.43418478846091       -0.38530244451236
C           -1.25433602575348        0.18378397566138        0.35552176857273
C           -1.59508718399617       -1.30599479068358        0.34004066398720
C           -2.38957259066969        0.97931659012206       -0.28661285902874
H            1.93597805511472        1.93936986339833        0.79295322189835
H            3.19253182826192        0.70816334082964        0.67296918150846
H            2.47201273967510        1.37253707477108       -0.79539271728495
H            1.01124834356586       -0.30331750294374        1.29528528573959
H            2.01734312702539       -0.98335923494627       -1.50777539265995
H            0.97792263041048       -2.03020513176061       -0.55092609274498
H            2.60929516233373       -1.65926053271750        0.01694889381545
H            0.04255402590983        1.43507768442608       -0.56239531465344
H           -1.15171718988615        0.50412697317067        1.41494001546059
H           -2.54846351606935       -1.47099913138111        0.83358347345662
H           -1.66113506994238       -1.65047259855194       -0.68713438364863
H           -0.83528236381265       -1.88199083104915        0.85863208749067
H           -3.31231598779230        0.82087244476835        0.26347657649012
H           -2.52688503668964        0.65226093371324       -1.31255493051503
H           -2.16429324630886        2.04250788317487       -0.28690558208415
22
 energy: -23.419464929584 gnorm: 0.003313623960 xtb: 6.7.1 (edcfbbe)
C            2.26424853085237        1.07454681202518        0.23460800611640
C            1.21021733674978       -0.03322697816277        0.24373893593554
C            1.74494929160976       -1.26017923484415       -0.50405737030557
N           -0.02773054910908        0.42274830526217       -0.38173384186233
C           -1.25395811361262        0.18492646846471        0.36126673276012
C           -1.60049938011238       -1.30524169797168        0.35028180950725
C           -2.38352728187795        0.98397152487923       -0.28633639424691
H            1.92151446266340        1.93959005058426        0.79967892559903
H            3.18913814706915        0.71727819864469        0.67972107599090
H            2.46663388267588        1.37996851252046       -0.78924612672582
H            1.01465214027836       -0.31608265163180        1.29301412653543
H            2.01228754074177       -0.97703911619560       -1.51818209040426
H            0.98728589324939       -2.03495211084624       -0.55395779474692
H            2.62336930741851       -1.65621558610074       -0.00131581074277
H            0.04189639404711        1.41218958029785       -0.59582013451415
H           -1.15260794086289        0.50691994780958        1.42079494258264
H           -2.56239147633144       -1.46617951388470        0.83015782672272
H           -1.65152430749397       -1.65520269180284       -0.67686808787188
H           -0.84994232615458       -1.88249948296160        0.88346383503524
H           -3.31511946270165        0.81929402762398        0.24830759041881
H           -2.50566630285212        0.66562816222247       -1.31809092517200
H           -2.16006798563222        2.04863240206772       -0.27342848920156
22
 energy: -23.419525532119 gnorm: 0.002444879910 xtb: 6.7.1 (edcfbbe)
C            2.25771985401891        1.07622296614767        0.24050395291071
C            1.21122857921122       -0.03848726390536        0.24093861140360
C            1.75276329249098       -1.25983779445675       -0.51107155413399
N           -0.02890007941896        0.41143492267734       -0.38467257864395
C           -1.25407415508299        0.18519673572001        0.36302790933987
C           -1.60619985000856       -1.30397757179886        0.35887684517425
C           -2.37942969821798        0.98822795181363       -0.28555296052737
H            1.90571453875948        1.93721941395320        0.80691662061084
H            3.18383521591884        0.72501041326963        0.68892792078226
H            2.46417435654327        1.38781619478186       -0.78139527058282
H            1.01452219668100       -0.32781398847444        1.28761933806380
H            2.01291521862363       -0.97463685426918       -1.52693717683652
H            1.00033564180109       -2.04084414653071       -0.55720010096376
H            2.63717923090996       -1.65047000257304       -0.01396751623843
H            0.04179759303200        1.39328276242257       -0.62530320752871
H           -1.14910477562888        0.51089008936474        1.42090553059066
H           -2.57245402839804       -1.45981892928731        0.83195233580493
H           -1.64996419718847       -1.66154447593172       -0.66628080136852
H           -0.86166117347965       -1.88114641107582        0.90146794449698
H           -3.31558903492044        0.81926143177214        0.24002694154405
H           -2.49463777559194        0.67937498181257       -1.32132283263449
H           -2.15701314943987        2.05351450256804       -0.26146320985350
22
 energy: -23.419576695841 gnorm: 0.001710979800 xtb: 6.7.1 (edcfbbe)
C            2.25009278194797        1.07719168615019        0.24778984317707
C            1.21217141961731       -0.04488873274890        0.23582405075531
C            1.76302548509793       -1.25954481115513       -0.51860918590711
N           -0.02999848924700        0.39810148824910       -0.39291828208035
C           -1.25405843727167        0.18543552337412        0.36229668009845
C           -1.61265002628665       -1.30180428791674        0.36788120725253
C           -2.37633827827510        0.99286249414391       -0.28446031553417
H            1.88681156219626        1.93291592696857        0.81542544070509
H            3.17577904812907        0.73199189326612        0.70203918889732
H            2.46310817811756        1.39583930305497       -0.77088661482949
H            1.01099954414922       -0.34079840879451        1.27896850318731
H            2.01690212567150       -0.97323470277157       -1.53575044839951
H            1.01781843811178       -2.04803968893766       -0.56133357737941
H            2.65310905625796       -1.64183442447586       -0.02490122266553
H            0.04204384611376        1.37321564519322       -0.65581145758476
H           -1.14119808015639        0.51676986528808        1.41713049059786
H           -2.58067952182042       -1.45113178749681        0.83884034287755
H           -1.65426791426319       -1.66795026365872       -0.65422172418463
H           -0.87188666428734       -1.87786429560960        0.91649579582015
H           -3.31468506479856        0.81983796353210        0.23545264157887
H           -2.48824233313177        0.69365490013276       -1.32330710682426
H           -2.15469887525764        2.05814964221257       -0.24994750814841
22
 energy: -23.419620420222 gnorm: 0.001705820092 xtb: 6.7.1 (edcfbbe)
C            2.24149278824520        1.07710705748941        0.25637918985281
C            1.21223750066831       -0.05219199555260        0.22936752506723
C            1.77517454715476       -1.25909211282237       -0.52649491177057
N           -0.03095648431364        0.38335592287597       -0.40561532331232
C           -1.25329787665278        0.18609868755799        0.35943586298140
C           -1.61923116424240       -1.29857961713134        0.37707055943657
C           -2.37440840972808        0.99737884537530       -0.28373826826523
H            1.86594763932128        1.92699336841370        0.82430434920573
H            3.16449330431529        0.73669668975253        0.71907192751223
H            2.46316066173040        1.40226274973466       -0.75812133994974
H            1.00388401531309       -0.35472718165238        1.26845928921433
H            2.02360852513291       -0.97112148873428       -1.54415656456193
H            1.03890721290334       -2.05581439287945       -0.56705032957797
H            2.67038331107571       -1.63064923645428       -0.03415529154058
H            0.04287195832011        1.35371928027445       -0.68461700173790
H           -1.12895339454621        0.52488155635819        1.41006133012861
H           -2.58568065655820       -1.44040684345618        0.85263125248031
H           -1.66602164088351       -1.67203537697910       -0.64178027981832
H           -0.87846892287701       -1.87310591426857        0.92607918204438
H           -3.31237179775077        0.82112718766795        0.23503065158089
H           -2.48656896740536        0.70502219236246       -1.32403730194443
H           -2.15304434860784        2.06195555006819       -0.24212776561561
22
 energy: -23.419647365024 gnorm: 0.001133165048 xtb: 6.7.1 (edcfbbe)
C            2.23601283217628        1.07668923705037        0.26194791806521
C            1.21141153472328       -0.05673034169204        0.22579498281068
C            1.78272311757641       -1.25877135986017       -0.53146541015284
N           -0.03147675540852        0.37495575181256       -0.41279442762681
C           -1.25214703882834        0.18687553921695        0.35753780048383
C           -1.62306852302314       -1.29642257375356        0.38271723234290
C           -2.37329788518220        0.99958666591247       -0.28456202679219
H            1.85307452284023        1.92365586740224        0.82878872665662
H            3.15660539580434        0.73846030940035        0.73060502770072
H            2.46308488785042        1.40430343769941       -0.75019521867807
H            0.99939074735685       -0.36366971518501        1.26270927922448
H            2.02841125446671       -0.96752269690658       -1.54872952106242
H            1.05206874818201       -2.06035473473597       -0.57241817562890
H            2.68068193937473       -1.62397630904346       -0.03972635425092
H            0.04393810989307        1.34435135179761       -0.69690353597181
H           -1.12172462550094        0.53024037993953        1.40571473710025
H           -2.58613769171651       -1.43358268104554        0.86648205584423
H           -1.67901686717150       -1.67179245895129       -0.63486373618839
H           -0.87935322901263       -1.87145432009462        0.92704558520921
H           -3.31033245561258        0.82394212219158        0.23617169737753
H           -2.48709905016400        0.70653317078242       -1.32435617609862
H           -2.15059116800940        2.06355828606298       -0.24350371895480
22
 energy: -23.419676449914 gnorm: 0.000831588539 xtb: 6.7.1 (edcfbbe)
C            2.23065186803759        1.07605164777705        0.26856948447945
C            1.21057480296545       -0.06144711370146        0.22258443973433
C            1.79016799434788       -1.25787208121636       -0.53765085814994
N           -0.03186408066525        0.36735022817550       -0.41875775956973
C           -1.25096122556133        0.18790142104992        0.35579079380708
C           -1.62714225346512       -1.29403136251525        0.38912028829342
C           -2.37185254361599        1.00095546678532       -0.28711369897975
H            1.83944443252685        1.92037298906598        0.83360526255035
H            3.14864160019330        0.74066330211997        0.74423381291703
H            2.46430373313861        1.40598989004557       -0.74126509321577
H            0.99577354499753       -0.37415011312143        1.25712734664037
H            2.03357820237076       -0.96238659376316       -1.55415040242169
H            1.06503045708392       -2.06433587558950       -0.58022070669383
H            2.69064406193200       -1.61747285143517       -0.04670451565477
H            0.04556933518153        1.33625280876442       -0.70514249945457
H           -1.11640242077633        0.53616546612127        1.40172704580554
H           -2.58384588201071       -1.42677280292972        0.88686391865110
H           -1.69845236437379       -1.67101306113764       -0.62707454737602
H           -0.87762388203110       -1.87071665618061        0.92386276418914
H           -3.30780303364586        0.82971309059220        0.23713224163744
H           -2.48904023173194        0.70324317916261       -1.32523495563238
H           -2.14623431428340        2.06441394993076       -0.25130562014688
22
 energy: -23.419712615051 gnorm: 0.002290471385 xtb: 6.7.1 (edcfbbe)
C            2.22294273535404        1.07526259353742        0.27963137055354
C            1.21002909132544       -0.06848969534621        0.21905094712541
C            1.80049989216819       -1.25577493086806       -0.54784487019462
N           -0.03241505904333        0.35596313898057       -0.42455407211924
C           -1.24986823441227        0.18941291670713        0.35456547084757
C           -1.63305122056582       -1.29062876939676        0.39985571887499
C           -2.36906485456539        1.00250615906986       -0.29176356300175
H            1.81965929663648        1.91570583723137        0.84201117154967
H            3.13727562032854        0.74439721610942        0.76533842824332
H            2.46624155207152        1.40893980790388       -0.72668154484851
H            0.99250660257203       -0.39086092207983        1.24985923945316
H            2.03928450154005       -0.95247769888468       -1.56321542842249
H            1.08243999185139       -2.06846501888596       -0.59331740575498
H            2.70505516761155       -1.60916620357361       -0.06002373498089
H            0.04782709808491        1.32316380773098       -0.72234057421737
H           -1.11129215456686        0.54490562323335        1.39758988081261
H           -2.57986560819829       -1.41719630887272        0.91856535393976
H           -1.72778291467434       -1.66947096542738       -0.61412230216089
H           -0.87451816856572       -1.86995993529316        0.91949973795536
H           -3.30440144369996        0.83925203562184        0.23641138788658
H           -2.48986858857315        0.69656586619487       -1.32724474341518
H           -2.13847550206441        2.06529037430795       -0.26527372671614
22
 energy: -23.419743489343 gnorm: 0.001693604737 xtb: 6.7.1 (edcfbbe)
C            2.21528742543163        1.07437669980824        0.29059664914990
C            1.20966317327021       -0.07534521541384        0.21515775851574
C            1.81050806188906       -1.25331982881412       -0.55833261025655
N           -0.03274821801191        0.34605962100142       -0.43034459182376
C           -1.24886158143174        0.19088696951260        0.35295281002141
C           -1.63868968366908       -1.28714794066309        0.41069070509440
C           -2.36615304962021        1.00367299336143       -0.29696404086974
H            1.80015449898065        1.91084675039338        0.85060582937305
H            3.12619151548637        0.74800987787496        0.78598405574770
H            2.46820261288203        1.41251883023010       -0.71206337564871
H            0.98908961958023       -0.40751581398235        1.24193523609493
H            2.04601901331653       -0.94265819154240       -1.57224249313093
H            1.09904991008024       -2.07184420250125       -0.60753185353200
H            2.71838249673514       -1.60159105091121       -0.07304080136112
H            0.05015199960407        1.30961723325434       -0.73534610861110
H           -1.10660162523689        0.55350115157746        1.39308735816439
H           -2.57505696268135       -1.40762287638199        0.95049890630046
H           -1.75715521721159       -1.66895851280434       -0.60021160312958
H           -0.87160932199723       -1.86897935810317        0.91550309790913
H           -3.30080329028166        0.84968005444794        0.23541654291288
H           -2.49158217097138        0.68896079671291       -1.32943033869457
H           -2.13028140552852        2.06572694094328       -0.28092439081600
22
 energy: -23.419793092653 gnorm: 0.003133207815 xtb: 6.7.1 (edcfbbe)
C            2.19925614942963        1.07249520398738        0.31431525345828
C            1.20942764616741       -0.08967485400931        0.20838762586382
C            1.83110470355848       -1.24705376843577       -0.58088915428848
N           -0.03377908621297        0.32274649941600       -0.44023526951086
C           -1.24710518781733        0.19419250988270        0.35164761940507
C           -1.65065366021311       -1.27961815425461        0.43449592910357
C           -2.35948697667345        1.00629524652661       -0.30720910432121
H            1.75996679566320        1.89950849287764        0.87091157574231
H            3.10354893322223        0.75515521924523        0.82797002704288
H            2.47043128339112        1.42151142793227       -0.68035411809999
H            0.98372069005325       -0.44303700816685        1.22651068334492
H            2.05929379965436       -0.91966034453277       -1.59137869644386
H            1.13285037985894       -2.07693604188840       -0.63888826178226
H            2.74579455211425       -1.58595101626205       -0.10191037813628
H            0.05416937556843        1.27670546589943       -0.77515336776929
H           -1.09749582832651        0.57211687088326        1.38559017385685
H           -2.56701499844503       -1.38760514279998        1.01190178401475
H           -1.81219679562632       -1.66798548416890       -0.56900150666237
H           -0.86955093199848       -1.86638581782257        0.91246883085750
H           -3.29363145097684        0.87053863332796        0.23136278993331
H           -2.49216236788214        0.67489894027282       -1.33389055732358
H           -2.11332922389450        2.06661805009029       -0.31065513687515
22
 energy: -23.419830667293 gnorm: 0.003194231092 xtb: 6.7.1 (edcfbbe)
C            2.18858678619144        1.07114348310850        0.32859220719420
C            1.20963572533753       -0.09880156292630        0.20408236202896
C            1.84438120737471       -1.24265658221491       -0.59475977509475
N           -0.03463557192607        0.30726819724577       -0.44549851873587
C           -1.24628920799913        0.19606471511317        0.35111760104108
C           -1.65813513439369       -1.27471968092980        0.44988009876761
C           -2.35518826792958        1.00826560493009       -0.31304337768770
H            1.73572492214788        1.89129611879800        0.88450783787866
H            3.08932382654667        0.75864146651933        0.85114052832186
H            2.46878971607001        1.42851257066561       -0.66066054719361
H            0.98169774564301       -0.46534629082044        1.21650222441454
H            2.06899173673766       -0.90427669467696       -1.60252357351960
H            1.15395431974717       -2.07872444660083       -0.65981162082072
H            2.76250083821686       -1.57653316207730       -0.11890984094208
H            0.05603404344076        1.25333272786983       -0.80231478772441
H           -1.09178054987361        0.58328457667031        1.38084922014307
H           -2.56411104599620       -1.37421595658670        1.04419272653883
H           -1.84021374662120       -1.66741167696307       -0.54793113762258
H           -0.87226582021247       -1.86438263540190        0.91580337054417
H           -3.28912635727178        0.88338840013603        0.22849047572616
H           -2.49191739496479        0.66758911012872       -1.33617937154883
H           -2.10279996965055        2.06715664601326       -0.32752936029907
22
 energy: -23.419918636015 gnorm: 0.003893328780 xtb: 6.7.1 (edcfbbe)
C            2.16400502954504        1.06769140940862        0.35965954278190
C            1.21034785333068       -0.11928808240857        0.19400813965169
C            1.87469313767202       -1.23186680879928       -0.62547386364785
N           -0.03660268865833        0.27161720027728       -0.45840088444285
C           -1.24398677741266        0.19968675859584        0.34983357891147
C           -1.67548415988969       -1.26345506369573        0.48393470732969
C           -2.34529370430813        1.01233861462771       -0.32519842381834
H            1.68161892103825        1.87077263298631        0.91650999950627
H            3.05788495400843        0.76520205382434        0.89938094503264
H            2.46167820355845        1.44629499665107       -0.61702103533623
H            0.97725095281675       -0.51499789497208        1.19323525972194
H            2.09508900129525       -0.86902471703803       -1.62589506504139
H            1.20165803942594       -2.08105122151937       -0.70932544410775
H            2.79836718357029       -1.55547329983361       -0.15362998179026
H            0.05947601755400        1.19826581017626       -0.86375926047759
H           -1.07681641826053        0.60819073502527        1.36938080005902
H           -2.56092661224559       -1.34132314501698        1.11097457148816
H           -1.89790311129870       -1.66750573918801       -0.50070014868596
H           -0.88237291231486       -1.85870849637781        0.92882631910616
H           -3.27808947153592        0.91191242562111        0.22368869368961
H           -2.49268828440692        0.65201670629858       -1.34032341995684
H           -2.07874735286916        2.06758005335760       -0.36370828856356
22
 energy: -23.420051174406 gnorm: 0.006473586759 xtb: 6.7.1 (edcfbbe)
C            2.12829471544299        1.06212520246562        0.40051862565570
C            1.21173198327149       -0.14785622622158        0.17944915393478
C            1.91797241600820       -1.21556940185559       -0.66659582134659
N           -0.03948936500986        0.22101889816335       -0.47630763403823
C           -1.24046592657182        0.20357754565763        0.34726808394844
C           -1.70001751442831       -1.24741903718259        0.53058865210416
C           -2.33105634860936        1.01825252539918       -0.34106773166663
H            1.60729414370470        1.83938280797364        0.96137479801422
H            3.01446090058827        0.77251693300957        0.95935038399084
H            2.44457889150879        1.47289382951859       -0.55819678231773
H            0.97311581390096       -0.58323155272801        1.15991257692948
H            2.13748786064520       -0.81837924834630       -1.65491759692623
H            1.26865634645690       -2.08108625276649       -0.78099881423393
H            2.84639543078172       -1.52659191257602       -0.19602673096537
H            0.06284291199059        1.11839210527931       -0.94576515477753
H           -1.05387924072383        0.64029373265926        1.35188871940251
H           -2.56028680557088       -1.29247984015968        1.19488546170296
H           -1.97113645954752       -1.66793608255123       -0.43473777292808
H           -0.90243748899821       -1.85107764646401        0.95361255639551
H           -3.26103567390883        0.95317534271472        0.21926449993499
H           -2.49607107800340        0.63146254632769       -1.34433228681257
H           -2.04379771231314        2.06741065968357       -0.41317044459077
22
 energy: -23.420251794771 gnorm: 0.007903894908 xtb: 6.7.1 (edcfbbe)
C            2.09394167021782        1.05572437908969        0.43148999370262
C            1.21393088619029       -0.17274686389242        0.16647103383508
C            1.95737346795498       -1.19812889843480       -0.69931278173604
N           -0.04224813140936        0.17470179684700       -0.49029423147028
C           -1.23669820560662        0.20434637042415        0.34440677095452
C           -1.72241958567171       -1.23273938263371        0.56975746654135
C           -2.31682369625248        1.02346950301572       -0.35297454069528
H            1.54412468507787        1.80650162104040        1.00048667304642
H            2.97680024833054        0.77573144481980        0.99784321135488
H            2.41502203545535        1.49936889943806       -0.51064073291489
H            0.97496271732753       -0.64115992453771        1.12967709867739
H            2.18524223571863       -0.77030684115663       -1.67327275207928
H            1.32779310585390       -2.07380008213162       -0.84896318803740
H            2.88428305178105       -1.50196312095756       -0.22227072084793
H            0.06261237054607        1.04111201418169       -1.01253603971520
H           -1.03069739000852        0.66272160817699        1.33472542034505