
                                 *****************
                                 * O   R   C   A *
                                 *****************

                                            #,                                       
                                            ###                                      
                                            ####                                     
                                            #####                                    
                                            ######                                   
                                           ########,                                 
                                     ,,################,,,,,                         
                               ,,#################################,,                 
                          ,,##########################################,,             
                       ,#########################################, ''#####,          
                    ,#############################################,,   '####,        
                  ,##################################################,,,,####,       
                ,###########''''           ''''###############################       
              ,#####''   ,,,,##########,,,,          '''####'''          '####       
            ,##' ,,,,###########################,,,                        '##       
           ' ,,###''''                  '''############,,,                           
         ,,##''                                '''############,,,,        ,,,,,,###''
      ,#''                                            '''#######################'''  
     '                                                          ''''####''''         
             ,#######,   #######,   ,#######,      ##                                
            ,#'     '#,  ##    ##  ,#'     '#,    #''#        ,####,   ,####,        
            ##       ##  ##   ,#'  ##            #'  '#       #'       #'  '#        
            ##       ##  #######   ##           ,######,      #####,   #    #        
            '#,     ,#'  ##    ##  '#,     ,#' ,#      #,     #,   #   #,  ,#        
             '#######'   ##     ##  '#######'  #'      '#     '####' # '####'        



                #########################################################
                #                        -***-                          #
                #          Department of theory and spectroscopy        #
                #                                                       #
                #                      Frank Neese                      #
                #                                                       #
                #     Directorship, Architecture, Infrastructure        #
                #                    SHARK, DRIVERS                     #
                #        Core code/Algorithms in most modules           #
                #                                                       #
                #        Max Planck Institute fuer Kohlenforschung      #
                #                Kaiser Wilhelm Platz 1                 #
                #                 D-45470 Muelheim/Ruhr                 #
                #                      Germany                          #
                #                                                       #
                #                  All rights reserved                  #
                #                        -***-                          #
                #########################################################


                         Program Version 6.0.0  -   RELEASE  -


 With contributions from (in alphabetic order):
   Daniel Aravena         : Magnetic Suceptibility
   Michael Atanasov       : Ab Initio Ligand Field Theory (pilot matlab implementation)
   Alexander A. Auer      : GIAO ZORA, VPT2 properties, NMR spectrum
   Ute Becker             : All parallelization in ORCA, NUMFREQ, NUMCALC
   Giovanni Bistoni       : ED, misc. LED, open-shell LED, HFLD
   Martin Brehm           : Molecular dynamics
   Dmytro Bykov           : pre 5.0 version of the SCF Hessian
   Marcos Casanova-Páez   : Triplet and SCS-CIS(D). UHF-(DLPNO)-IP/EA/STEOM-CCSD. UHF-CVS-IP/STEOM-CCSD
   Vijay G. Chilkuri      : MRCI spin determinant printing, contributions to CSF-ICE
   Pauline Colinet        : FMM embedding
   Dipayan Datta          : RHF DLPNO-CCSD density
   Achintya Kumar Dutta   : EOM-CC, STEOM-CC
   Nicolas Foglia         : Exact transition moments, OPA infrastructure, MCD improvements
   Dmitry Ganyushin       : Spin-Orbit,Spin-Spin,Magnetic field MRCI
   Miquel Garcia          : C-PCM and meta-GGA Hessian, CCSD/C-PCM, Gaussian charge scheme
   Tiago L. C. Gouveia    : GS-ROHF, GS-ROCIS
   Yang Guo               : DLPNO-NEVPT2, F12-NEVPT2, CIM, IAO-localization
   Andreas Hansen         : Spin unrestricted coupled pair/coupled cluster methods
   Ingolf Harden          : AUTO-CI MPn and infrastructure 
   Benjamin Helmich-Paris : MC-RPA, TRAH-(SCF,CASSCF), AVAS, COSX integrals, SCF dyn. polar.
   Lee Huntington         : MR-EOM, pCC
   Robert Izsak           : Overlap fitted RIJCOSX, COSX-SCS-MP3, EOM
   Riya Kayal             : Wick's Theorem for AUTO-CI, AUTO-CI UHF-CCSDT
   Emily Kempfer          : AUTO-CI, RHF CISDT and CCSDT
   Christian Kollmar      : KDIIS, OOCD, Brueckner-CCSD(T), CCSD density, CASPT2, CASPT2-K, improved NEVPT2
   Axel Koslowski         : Symmetry handling
   Simone Kossmann        : Meta GGA functionals, TD-DFT gradient, OOMP2, (MP2 Hessian; deprecated post 5.0)
   Lucas Lang             : DCDCAS
   Marvin Lechner         : AUTO-CI (C++ implementation), FIC-MRCC
   Spencer Leger          : CASSCF response
   Dagmar Lenk            : GEPOL surface, SMD, ORCA-2-JSON
   Dimitrios Liakos       : Extrapolation schemes; Compound Job, initial MDCI parallelization
   Dimitrios Manganas     : Further ROCIS development; embedding schemes. LFT, Crystal Embedding
   Dimitrios Pantazis     : SARC Basis sets
   Anastasios Papadopoulos: AUTO-CI, single reference methods and gradients
   Taras Petrenko         : pre 6.0 DFT Hessian and TD-DFT gradient, (ASA, deprecated), ECA, 1-Electron XAS/XES, NRVS
   Peter Pinski           : DLPNO-MP2, DLPNO-MP2 Gradient
   Christoph Reimann      : Effective Core Potentials
   Marius Retegan         : Local ZFS, SOC
   Christoph Riplinger    : Optimizer, TS searches, QM/MM, DLPNO-CCSD(T), (RO)-DLPNO pert. Triples
   Michael Roemelt        : Original ROCIS implementation
   Masaaki Saitow         : Open-shell DLPNO-CCSD energy and density
   Barbara Sandhoefer     : DKH picture change effects
   Kantharuban Sivalingam : CASSCF convergence/infrastructure, NEVPT2 and variants, FIC-MRCI
   Bernardo de Souza      : ESD, SOC TD-DFT
   Georgi Stoychev        : AutoAux, RI-MP2 NMR, DLPNO-MP2 response, X2C
   Van Anh Tran           : RI-MP2 g-tensors
   Willem Van den Heuvel  : Paramagnetic NMR
   Zikuan Wang            : NOTCH, Electric field optimization 
   Frank Wennmohs         : Technical directorship and infrastructure
   Hang Xu                : AUTO-CI-Response properties 


 We gratefully acknowledge several colleagues who have allowed us to
 interface, adapt or use parts of their codes:
   Stefan Grimme, W. Hujo, H. Kruse, P. Pracht,  : VdW corrections, initial TS optimization,
                  C. Bannwarth, S. Ehlert,         DFT functionals, gCP, sTDA/sTD-DF
                  L. Wittmann, M. Mueller
   Ed Valeev, F. Pavosevic, A. Kumar             : LibInt (2-el integral package), F12 methods
   Garnet Chan, S. Sharma, J. Yang, R. Olivares  : DMRG
   Ulf Ekstrom                                   : XCFun DFT Library
   Mihaly Kallay                                 : mrcc  (arbitrary order and MRCC methods)
   Frank Weinhold                                : gennbo (NPA and NBO analysis)
   Simon Mueller                                 : openCOSMO-RS
   Christopher J. Cramer and Donald G. Truhlar   : smd solvation model
   Lars Goerigk                                  : TD-DFT with DH, B97 family of functionals
   V. Asgeirsson, H. Jonsson                     : NEB implementation
   FAccTs GmbH                                   : IRC, NEB, NEB-TS, DLPNO-Multilevel, CI-OPT
                                                   MM, QMMM, 2- and 3-layer-ONIOM, Crystal-QMMM,
                                                   LR-CPCM, SF, NACMEs, symmetry and pop. for TD-DFT,
                                                   nearIR, NL-DFT gradient (VV10), updates on ESD,
                                                   ML-optimized integration grids, MBIS, APM,
                                                   GOAT, DOCKER, SOLVATOR, interface openCOSMO-RS
   S Lehtola, MJT Oliveira, MAL Marques          : LibXC Library
   Liviu Ungur et al                             : ANISO software


 Your calculation uses the libint2 library for the computation of 2-el integrals
 For citations please refer to: http://libint.valeyev.net

 Your ORCA version has been built with support for libXC version: 6.2.2
 For citations please refer to: https://libxc.gitlab.io

 This ORCA versions uses:
   CBLAS   interface :  Fast vector & matrix operations
   LAPACKE interface :  Fast linear algebra routines
   SCALAPACK package :  Parallel linear algebra routines
   Shared memory     :  Shared parallel matrices
   BLAS/LAPACK       :  OpenBLAS 0.3.27  USE64BITINT DYNAMIC_ARCH NO_AFFINITY SkylakeX SINGLE_THREADED
        Core in use  :  SkylakeX
   Copyright (c) 2011-2014, The OpenBLAS Project


Your calculation utilizes the geometrical counterpoise correction gCP
Please cite in your paper:
H.Kruse, S. Grimme J.Chem.Phys., 136, (2012), 154101 
   

Your calculation utilizes the atom-pairwise dispersion correction
based on EEQ partial charges (D4)


================================================================================

----- Orbital basis set information -----
Your calculation utilizes the basis: def2-mTZVPP
   Stefan Grimme, Andreas Hansen, Sebastian Ehlert, and Jan-Michael Mewes 
   J. Chem. Phys. 154, 064103 (2021). DOI: 10.1063/5.0040021

----- AuxJ basis set information -----
Your calculation utilizes the auxiliary basis: def2/J
   F. Weigend, Phys. Chem. Chem. Phys. 8, 1057 (2006).

================================================================================
                                        WARNINGS
                       Please study these warnings very carefully!
================================================================================

Using LibXC functional ID 497 : Re-regularized SCAN exchange by Furness et al
[ 1]  J. W. Furness, A. D. Kaplan, J. Ning, J. P. Perdew, and J. Sun.,  J. Phys. Chem. Lett. 11, 8208-8215 (2020)
[ 2]  J. W. Furness, A. D. Kaplan, J. Ning, J. P. Perdew, and J. Sun.,  J. Phys. Chem. Lett. 11, 9248-9248 (2020)
Using LibXC functional ID 498 : Re-regularized SCAN correlation by Furness et al
[ 1]  J. W. Furness, A. D. Kaplan, J. Ning, J. P. Perdew, and J. Sun.,  J. Phys. Chem. Lett. 11, 8208-8215 (2020)
[ 2]  J. W. Furness, A. D. Kaplan, J. Ning, J. P. Perdew, and J. Sun.,  J. Phys. Chem. Lett. 11, 9248-9248 (2020)
Using LibXC functional ID 497 : Re-regularized SCAN exchange by Furness et al
[ 1]  J. W. Furness, A. D. Kaplan, J. Ning, J. P. Perdew, and J. Sun.,  J. Phys. Chem. Lett. 11, 8208-8215 (2020)
[ 2]  J. W. Furness, A. D. Kaplan, J. Ning, J. P. Perdew, and J. Sun.,  J. Phys. Chem. Lett. 11, 9248-9248 (2020)
Using LibXC functional ID 498 : Re-regularized SCAN correlation by Furness et al
[ 1]  J. W. Furness, A. D. Kaplan, J. Ning, J. P. Perdew, and J. Sun.,  J. Phys. Chem. Lett. 11, 8208-8215 (2020)
[ 2]  J. W. Furness, A. D. Kaplan, J. Ning, J. P. Perdew, and J. Sun.,  J. Phys. Chem. Lett. 11, 9248-9248 (2020)

================================================================================
                                       INPUT FILE
================================================================================
NAME = sp_gas.inp
|  1> ! r2scan-3c def2/J RI DEFGRID2 scfconv6 printgap
|  2> %output
|  3>     printlevel normal
|  4> end
|  5> * xyz 0 1
|  6> C -2.3521287039 -1.3923851755 -0.2795741674
|  7> C -2.5323660141 0.0819636193 0.060996518
|  8> C -1.3201082672 0.6391695066 0.8149894852
|  9> C -0.1011902274 0.6518474704 -0.0708583317
| 10> O -0.0338613686 1.1934558787 -1.1558045034
| 11> O 0.9107368998 -0.0092086833 0.4724817709
| 12> C 2.1435374147 -0.0778892142 -0.2639679717
| 13> C 3.093635458 -0.9895352912 0.4878732523
| 14> H -1.4934726872 -1.5286615041 -0.9345433972
| 15> H -2.1920836277 -1.9765716676 0.623415085
| 16> H -3.2332274466 -1.7741010757 -0.7883190551
| 17> H -3.420288104 0.2095381955 0.6805617487
| 18> H -2.6667576658 0.6576743946 -0.8567474782
| 19> H -1.1010675875 0.0427064368 1.699651014
| 20> H -1.5206959593 1.670034655 1.111258073
| 21> H 1.9258893908 -0.4535495128 -1.2693768062
| 22> H 2.5441745576 0.9365982371 -0.3597748945
| 23> H 4.033473923 -1.0518213378 -0.0505497587
| 24> H 3.2750344689 -0.5960169899 1.483545634
| 25> H 2.6640981555 -1.9829778061 0.5767487344
| 26> *
| 27> 
| 28>                          ****END OF INPUT****
================================================================================

                       ****************************
                       * Single Point Calculation *
                       ****************************

---------------------------------
CARTESIAN COORDINATES (ANGSTROEM)
---------------------------------
  C     -2.352129   -1.392385   -0.279574
  C     -2.532366    0.081964    0.060997
  C     -1.320108    0.639170    0.814989
  C     -0.101190    0.651847   -0.070858
  O     -0.033861    1.193456   -1.155805
  O      0.910737   -0.009209    0.472482
  C      2.143537   -0.077889   -0.263968
  C      3.093635   -0.989535    0.487873
  H     -1.493473   -1.528662   -0.934543
  H     -2.192084   -1.976572    0.623415
  H     -3.233227   -1.774101   -0.788319
  H     -3.420288    0.209538    0.680562
  H     -2.666758    0.657674   -0.856747
  H     -1.101068    0.042706    1.699651
  H     -1.520696    1.670035    1.111258
  H      1.925889   -0.453550   -1.269377
  H      2.544175    0.936598   -0.359775
  H      4.033474   -1.051821   -0.050550
  H      3.275034   -0.596017    1.483546
  H      2.664098   -1.982978    0.576749

----------------------------
CARTESIAN COORDINATES (A.U.)
----------------------------
  NO LB      ZA    FRAG     MASS         X           Y           Z
   0 C     6.0000    0    12.011   -4.444879   -2.631227   -0.528319
   1 C     6.0000    0    12.011   -4.785478    0.154889    0.115267
   2 C     6.0000    0    12.011   -2.494643    1.207855    1.540107
   3 C     6.0000    0    12.011   -0.191222    1.231813   -0.133903
   4 O     8.0000    0    15.999   -0.063989    2.255305   -2.184154
   5 O     8.0000    0    15.999    1.721043   -0.017402    0.892861
   6 C     6.0000    0    12.011    4.050699   -0.147189   -0.498827
   7 C     6.0000    0    12.011    5.846124   -1.869951    0.921947
   8 H     1.0000    0     1.008   -2.822254   -2.888752   -1.766031
   9 H     1.0000    0     1.008   -4.142438   -3.735179    1.178084
  10 H     1.0000    0     1.008   -6.109914   -3.352565   -1.489707
  11 H     1.0000    0     1.008   -6.463408    0.395970    1.286075
  12 H     1.0000    0     1.008   -5.039442    1.242824   -1.619018
  13 H     1.0000    0     1.008   -2.080716    0.080703    3.211875
  14 H     1.0000    0     1.008   -2.873699    3.155908    2.099973
  15 H     1.0000    0     1.008    3.639404   -0.857084   -2.398775
  16 H     1.0000    0     1.008    4.807793    1.769914   -0.679876
  17 H     1.0000    0     1.008    7.622161   -1.987654   -0.095525
  18 H     1.0000    0     1.008    6.188918   -1.126309    2.803495
  19 H     1.0000    0     1.008    5.034416   -3.747285    1.089897

--------------------------------
INTERNAL COORDINATES (ANGSTROEM)
--------------------------------
 C      0   0   0     0.000000000000     0.00000000     0.00000000
 C      1   0   0     1.523869498504     0.00000000     0.00000000
 C      2   1   0     1.532498822299   111.60311377     0.00000000
 C      3   2   1     1.506867038999   110.71364699    66.32986370
 O      4   3   2     1.214487973862   125.01322261    55.26810507
 O      4   3   2     1.325220817902   111.86684346   235.42259929
 C      6   4   3     1.437662111985   117.94268551   180.08563649
 C      7   6   4     1.516261879656   108.18202197   185.48084888
 H      1   2   3     1.088506354936   110.42038272   298.13616855
 H      1   2   3     1.087326020068   110.58624129    58.16282762
 H      1   2   3     1.086675380974   110.40076458   178.40982760
 H      2   1   3     1.090202726706   109.66727336   239.37370725
 H      2   1   3     1.091676717442   109.68835456   120.42314922
 H      3   2   1     1.089207525469   111.07423306   305.55421320
 H      3   2   1     1.091189008616   109.36983457   184.58037166
 H      7   6   4     1.095143025701   108.43623787   307.07489953
 H      7   6   4     1.094930991238   108.31988987    64.12872160
 H      8   7   6     1.084930979680   109.34442565   180.22215127
 H      8   7   6     1.085875566671   109.96513689   300.28379092
 H      8   7   6     1.085969233435   110.04483405    60.14185587

---------------------------
INTERNAL COORDINATES (A.U.)
---------------------------
 C      0   0   0     0.000000000000     0.00000000     0.00000000
 C      1   0   0     2.879696016008     0.00000000     0.00000000
 C      2   1   0     2.896003074702   111.60311377     0.00000000
 C      3   2   1     2.847566023941   110.71364699    66.32986370
 O      4   3   2     2.295049663540   125.01322261    55.26810507
 O      4   3   2     2.504304412806   111.86684346   235.42259929
 C      6   4   3     2.716787664767   117.94268551   180.08563649
 C      7   6   4     2.865319699854   108.18202197   185.48084888
 H      1   2   3     2.056978905862   110.42038272   298.13616855
 H      1   2   3     2.054748396216   110.58624129    58.16282762
 H      1   2   3     2.053518866514   110.40076458   178.40982760
 H      2   1   3     2.060184583929   109.66727336   239.37370725
 H      2   1   3     2.062970022743   109.68835456   120.42314922
 H      3   2   1     2.058303926142   111.07423306   305.55421320
 H      3   2   1     2.062048386630   109.36983457   184.58037166
 H      7   6   4     2.069520396050   108.43623787   307.07489953
 H      7   6   4     2.069119708982   108.31988987    64.12872160
 H      8   7   6     2.050222425802   109.34442565   180.22215127
 H      8   7   6     2.052007436525   109.96513689   300.28379092
 H      8   7   6     2.052184441057   110.04483405    60.14185587

---------------------
BASIS SET INFORMATION
---------------------
There are 3 groups of distinct atoms

 Group   1 Type C   : 11s6p1d contracted to 5s3p1d pattern {62111/411/1}
 Group   2 Type O   : 11s6p2d contracted to 5s3p2d pattern {62111/411/11}
 Group   3 Type H   : 4s1p contracted to 2s1p pattern {31/1}

Atom   0C    basis set group =>   1
Atom   1C    basis set group =>   1
Atom   2C    basis set group =>   1
Atom   3C    basis set group =>   1
Atom   4O    basis set group =>   2
Atom   5O    basis set group =>   2
Atom   6C    basis set group =>   1
Atom   7C    basis set group =>   1
Atom   8H    basis set group =>   3
Atom   9H    basis set group =>   3
Atom  10H    basis set group =>   3
Atom  11H    basis set group =>   3
Atom  12H    basis set group =>   3
Atom  13H    basis set group =>   3
Atom  14H    basis set group =>   3
Atom  15H    basis set group =>   3
Atom  16H    basis set group =>   3
Atom  17H    basis set group =>   3
Atom  18H    basis set group =>   3
Atom  19H    basis set group =>   3
---------------------------------
AUXILIARY/J BASIS SET INFORMATION
---------------------------------
There are 3 groups of distinct atoms

 Group   1 Type C   : 12s5p4d2f1g contracted to 6s4p3d1f1g pattern {711111/2111/211/2/1}
 Group   2 Type O   : 12s5p4d2f1g contracted to 6s4p3d1f1g pattern {711111/2111/211/2/1}
 Group   3 Type H   : 5s2p1d contracted to 3s1p1d pattern {311/2/1}

Atom   0C    basis set group =>   1
Atom   1C    basis set group =>   1
Atom   2C    basis set group =>   1
Atom   3C    basis set group =>   1
Atom   4O    basis set group =>   2
Atom   5O    basis set group =>   2
Atom   6C    basis set group =>   1
Atom   7C    basis set group =>   1
Atom   8H    basis set group =>   3
Atom   9H    basis set group =>   3
Atom  10H    basis set group =>   3
Atom  11H    basis set group =>   3
Atom  12H    basis set group =>   3
Atom  13H    basis set group =>   3
Atom  14H    basis set group =>   3
Atom  15H    basis set group =>   3
Atom  16H    basis set group =>   3
Atom  17H    basis set group =>   3
Atom  18H    basis set group =>   3
Atom  19H    basis set group =>   3

Checking for AutoStart:
The File: sp_gas.gbw exists
Trying to determine its content:
     ... Fine, the file contains calculation information
     ... Fine, the calculation information was read
     ... Fine, the file contains a basis set
     ... Fine, the basis set was read
     ... Fine, the file contains a geometry
     ... Fine, the geometry was read
     ... Fine, the file contains a set of orbitals
     ... Fine, the orbitals can be read
     => possible old guess file was deleted
     => GBW file was renamed to GES file
     => GES file is set as startup file
     => Guess is set to MORead
     ... now leaving AutoStart

------------------------------------------------------------------------------
                             ORCA STARTUP CALCULATIONS
                           -- RI-GTO INTEGRALS CHOSEN --
------------------------------------------------------------------------------
------------------------------------------------------------------------------
                   ___                                                        
                  /   \      - P O W E R E D   B Y -                         
                 /     \                                                     
                 |  |  |   _    _      __       _____    __    __             
                 |  |  |  | |  | |    /  \     |  _  \  |  |  /  |          
                  \  \/   | |  | |   /    \    | | | |  |  | /  /          
                 / \  \   | |__| |  /  /\  \   | |_| |  |  |/  /          
                |  |  |   |  __  | /  /__\  \  |    /   |      \           
                |  |  |   | |  | | |   __   |  |    \   |  |\   \          
                \     /   | |  | | |  |  |  |  | |\  \  |  | \   \       
                 \___/    |_|  |_| |__|  |__|  |_| \__\ |__|  \__/        
                                                                              
                      - O R C A' S   B I G   F R I E N D -                    
                                      &                                       
                       - I N T E G R A L  F E E D E R -                       
                                                                              
 v1 FN, 2020, v2 2021, v3 2022-2024                                           
------------------------------------------------------------------------------


----------------------
SHARK INTEGRAL PACKAGE
----------------------

Number of atoms                             ...     20
Number of basis functions                   ...    222
Number of shells                            ...    110
Maximum angular momentum                    ...      2
Integral batch strategy                     ... SHARK/LIBINT Hybrid
RI-J (if used) integral strategy            ... SPLIT-RIJ (Revised 2003 algorithm where possible)
Printlevel                                  ...      1
Contraction scheme used                     ... SEGMENTED contraction
Prescreening option                         ... SCHWARTZ
   Thresh                                   ... 1.000e-10
   Tcut                                     ... 1.000e-11
   Tpresel                                  ... 1.000e-11 
Coulomb Range Separation                    ... NOT USED
Exchange Range Separation                   ... NOT USED
Multipole approximations                    ... NOT USED
Finite Nucleus Model                        ... NOT USED
CABS basis                                  ... NOT available
Auxiliary Coulomb fitting basis             ... AVAILABLE
   # of basis functions in Aux-J            ...    524
   # of shells in Aux-J                     ...    180
   Maximum angular momentum in Aux-J        ...      4
Auxiliary J/K fitting basis                 ... NOT available
Auxiliary Correlation fitting basis         ... NOT available
Auxiliary 'external' fitting basis          ... NOT available

Checking pre-screening integrals            ... done (  0.0 sec) Dimension = 110
Check shell pair data                       ... done (  0.0 sec)
Shell pair information
Shell pair cut-off parameter TPreSel        ...   1.0e-11
Total number of shell pairs                 ...      6105
Shell pairs after pre-screening             ...      5284
Total number of primitive shell pairs       ...     21533
Primitive shell pairs kept                  ...     13179
          la=0 lb=0:   1775 shell pairs
          la=1 lb=0:   1997 shell pairs
          la=1 lb=1:    583 shell pairs
          la=2 lb=0:    562 shell pairs
          la=2 lb=1:    315 shell pairs
          la=2 lb=2:     52 shell pairs

Calculating one electron integrals          ... done (  0.0 sec)
Calculating RI/J V-Matrix + Cholesky decomp.... done (  0.1 sec)
Calculating Nuclear repulsion               ... done (  0.0 sec) ENN=    393.240510003671 Eh

Diagonalization of the overlap matrix:
Smallest eigenvalue                        ... 1.904e-04
Time for diagonalization                   ...    0.011 sec
Threshold for overlap eigenvalues          ... 1.000e-07
Number of eigenvalues below threshold      ... 0
Time for construction of square roots      ...    0.021 sec
Total time needed                          ...    0.047 sec

-------------------
DFT GRID GENERATION
-------------------

General Integration Accuracy     IntAcc      ... 4.388
Radial Grid Type                 RadialGrid  ... OptM3 with GC (2021)
Angular Grid (max. ang.)         AngularGrid ... 4 (Lebedev-302)
Angular grid pruning method      GridPruning ... 4 (adaptive)
Weight generation scheme         WeightScheme... mBecke (2022)
Basis function cutoff            BFCut       ... 1.0000e-10
Integration weight cutoff        WCut        ... 1.0000e-14
Partially contracted basis set               ... off
Rotationally invariant grid construction     ... off
Angular grids for H and He will be reduced by one unit
Diffuse basis detected: some atoms will have their outermost
                        angular grid increased by 1.

Total number of grid points                  ...    87417
Total number of batches                      ...     1374
Average number of points per batch           ...       63
Average number of grid points per atom       ...     4371
Initializing property integral containers    ... done (  0.0 sec)

SHARK setup successfully completed in   1.5 seconds

Maximum memory used throughout the entire STARTUP-calculation: 39.3 MB
-------------------------------------------------------------------------------
                                 ORCA GUESS
                   Start orbitals & Density for SCF / CASSCF
-------------------------------------------------------------------------------

------------
SCF SETTINGS
------------
Hamiltonian:
 Density Functional     Method          .... DFT(GTOs)
  Functional kind                       .... Exchange
  Functional name                       .... Re-regularized SCAN exchange by Furness et al
  Functional family                     .... MGGA
  Functional refs                              
    [ 0] J. W. Furness, A. D. Kaplan, J. Ning, J. P. Perdew, and J. Sun.,  J. Phys. Chem. Lett. 11, 8208-8215 (2020), doi: 10.1021/acs.jpclett.0c02405
    [ 1] J. W. Furness, A. D. Kaplan, J. Ning, J. P. Perdew, and J. Sun.,  J. Phys. Chem. Lett. 11, 9248-9248 (2020), doi: 10.1021/acs.jpclett.0c03077
  Functional external parameters        .... 6
    Parameter  0 _c1        =  6.670000e-01 : c1 parameter        
    Parameter  1 _c2        =  8.000000e-01 : c2 parameter        
    Parameter  2 _d         =  1.240000e+00 : d parameter         
    Parameter  3 _k1        =  6.500000e-02 : k1 parameter        
    Parameter  4 _eta       =  1.000000e-03 : eta parameter       
    Parameter  5 _dp2       =  3.610000e-01 : dp2 parameter       
  Functional kind                       .... Correlation
  Functional name                       .... Re-regularized SCAN correlation by Furness et al
  Functional family                     .... MGGA
  Functional refs                              
    [ 0] J. W. Furness, A. D. Kaplan, J. Ning, J. P. Perdew, and J. Sun.,  J. Phys. Chem. Lett. 11, 8208-8215 (2020), doi: 10.1021/acs.jpclett.0c02405
    [ 1] J. W. Furness, A. D. Kaplan, J. Ning, J. P. Perdew, and J. Sun.,  J. Phys. Chem. Lett. 11, 9248-9248 (2020), doi: 10.1021/acs.jpclett.0c03077
  Functional external parameters        .... 1
    Parameter  0 _eta       =  1.000000e-03 : Regularization parameter
 Gradients option       PostSCFGGA      .... off
 RI-approximation to the Coulomb term is turned on
   Number of AuxJ basis functions       .... 524


General Settings:
 Integral files         IntName         .... sp_gas
 Hartree-Fock type      HFTyp           .... RHF
 Total Charge           Charge          ....    0
 Multiplicity           Mult            ....    1
 Number of Electrons    NEL             ....   64
 Basis Dimension        Dim             ....  222
 Nuclear Repulsion      ENuc            ....    393.2405100037 Eh

Convergence Acceleration:
 AO-DIIS                CNVDIIS         .... on
   Start iteration      DIISMaxIt       ....    12
   Startup error        DIISStart       ....  0.200000
   # of expansion vecs  DIISMaxEq       ....     5
   Bias factor          DIISBfac        ....   1.050
   Max. coefficient     DIISMaxC        ....  10.000
 MO-DIIS                CNVKDIIS        .... off
 Trust-Rad. Augm. Hess. CNVTRAH         .... auto
   Auto Start mean grad. ratio tolernc. ....  1.125000
   Auto Start start iteration           ....     1
   Auto Start num. interpolation iter.  ....    10
   Max. Number of Micro iterations      ....    24
   Max. Number of Macro iterations      .... Maxiter - #DIIS iter
   Number of Davidson start vectors     ....     2
   Converg. threshold    (grad. norm)   ....   3.330e-04
   Grad. Scal. Fac. for Micro threshold ....   0.100
   Minimum threshold for Micro iter.    ....   1.000e-02
   NR start threshold (gradient norm)   ....   1.000e-04
   Initial trust radius                 ....   0.400
   Minimum AH scaling param. (alpha)    ....   1.000
   Maximum AH scaling param. (alpha)    .... 1000.000
   Quad. conv. algorithm                .... NR
   White noise on init. David. guess    .... on
   Maximum white noise                  ....   0.010
   Pseudo random numbers                .... off
   Inactive MOs                         .... canonical
   Orbital update algorithm             .... Taylor
   Preconditioner                       .... Diag
   Full preconditioner red. dimension   ....   250
   COSX micro iterations for RIJONX calc.... off
 SOSCF                  CNVSOSCF        .... on
   Start iteration      SOSCFMaxIt      ....   150
   Startup grad/error   SOSCFStart      ....  0.003300
   Hessian update       SOSCFHessUp     .... L-BFGS
 Level Shifting         CNVShift        .... on
   Level shift para.    LevelShift      ....    0.2500
   Turn off err/grad.   ShiftErr        ....    0.0010
 Zerner damping         CNVZerner       .... off
 Static damping         CNVDamp         .... on
   Fraction old density DampFac         ....    0.7000
   Max. Damping (<1)    DampMax         ....    0.9800
   Min. Damping (>=0)   DampMin         ....    0.0000
   Turn off err/grad.   DampErr         ....    0.1000

SCF Procedure:
 Maximum # iterations   MaxIter         ....   125
 SCF integral mode      SCFMode         .... Direct
   Integral package                     .... SHARK and LIBINT hybrid scheme
 Reset frequency        DirectResetFreq ....    20
 Integral Threshold     Thresh          ....  1.000e-10 Eh
 Primitive CutOff       TCut            ....  1.000e-11 Eh

Convergence Tolerance:
 Convergence Check Mode ConvCheckMode   .... Total+1el-Energy
 Convergence forced     ConvForced      .... 0
 Energy Change          TolE            ....  1.000e-06 Eh
 1-El. energy change                    ....  1.000e-03 Eh
 Orbital Gradient       TolG            ....  3.330e-04
 Orbital Rotation angle TolX            ....  3.330e-04
 DIIS Error             TolErr          ....  1.000e-06

---------------------
INITIAL GUESS: MOREAD
---------------------
Guess MOs are being read from file: sp_gas.ges
Input Geometry matches current geometry (good)
Atom 0: N(Shells)= 9 and 6 - projection required
Input basis set needs projection
NBasis(read)= 136
NBasis(calc)= 222
Basis set overlap was calculated
Using GuessMode=FMatrix for the initial guess
C*T matrix was formed
Effective Fockian was calculated
Effective Fockian was diagonalized
Initial density was built
                      ------------------
                      INITIAL GUESS DONE (   0.1 sec)
                      ------------------
             **** ENERGY FILE WAS UPDATED (sp_gas.en.tmp) ****
Finished Guess after   0.3 sec
Maximum memory used throughout the entire GUESS-calculation: 15.0 MB

-------------------------------------------------------------------------------------------
                                      ORCA LEAN-SCF
                              memory conserving SCF solver
-------------------------------------------------------------------------------------------

----------------------------------------D-I-I-S--------------------------------------------
Iteration    Energy (Eh)           Delta-E    RMSDP     MaxDP     DIISErr   Damp  Time(sec)
-------------------------------------------------------------------------------------------
               ***  Starting incremental Fock matrix formation  ***
    1    -386.0477031096949077     0.00e+00  3.65e-03  1.39e-01  6.27e-01  0.700   3.2
    2    -386.1058065598647318    -5.81e-02  2.99e-03  1.03e-01  4.40e-01  0.700   3.0
    3    -386.1468720950216493    -4.11e-02  2.20e-03  7.29e-02  3.09e-01  0.700   3.1
    4    -386.1756991778563588    -2.88e-02  1.57e-03  5.14e-02  2.16e-01  0.700   3.1
                               ***Turning on AO-DIIS***
    5    -386.1959170419848988    -2.02e-02  1.14e-03  3.68e-02  1.51e-01  0.700   2.9
    6    -386.2100880073570579    -1.42e-02  8.07e-04  2.59e-02  1.06e-01  0.700   3.0
    7    -386.2200210583954458    -9.93e-03  5.69e-04  1.82e-02  7.41e-02  0.700   2.9
    8    -386.2269799968196367    -6.96e-03  1.33e-03  4.24e-02  5.19e-02  0.000   2.6
                              *** Initializing SOSCF ***
---------------------------------------S-O-S-C-F--------------------------------------
Iteration    Energy (Eh)           Delta-E    RMSDP     MaxDP     MaxGrad    Time(sec)
--------------------------------------------------------------------------------------
    9    -386.2432375740183943    -1.63e-02  7.89e-06  3.08e-04  8.29e-05     2.8
                  *** Gradient check signals convergence ***

               *****************************************************
               *                     SUCCESS                       *
               *           SCF CONVERGED AFTER   9 CYCLES          *
               *****************************************************

             **** ENERGY FILE WAS UPDATED (sp_gas.en.tmp) ****

----------------
TOTAL SCF ENERGY
----------------

Total Energy       :       -386.24323757401839 Eh          -10510.21282 eV

Components:
Nuclear Repulsion  :        393.24051000367137 Eh           10700.61829 eV
Electronic Energy  :       -779.48374757768977 Eh          -21210.83111 eV
One Electron Energy:      -1303.63533963626833 Eh          -35473.72104 eV
Two Electron Energy:        524.15159205857856 Eh           14262.88993 eV

Virial components:
Potential Energy   :       -770.88373011068563 Eh          -20976.81274 eV
Kinetic Energy     :        384.64049253666724 Eh           10466.59991 eV
Virial Ratio       :          2.00416686508168

DFT components:
N(Alpha)           :       31.999988548631 electrons
N(Beta)            :       31.999988548631 electrons
N(Total)           :       63.999977097262 electrons
E(X)               :      -52.078223206544 Eh       
E(C)               :       -2.037079807924 Eh       
E(XC)              :      -54.115303014468 Eh       

---------------
SCF CONVERGENCE
---------------

  Last Energy change         ...    1.6258e-02  Tolerance :   1.0000e-06
  Last MAX-Density change    ...    3.0848e-04  Tolerance :   1.0000e-05
  Last RMS-Density change    ...    7.8851e-06  Tolerance :   1.0000e-06
  Last DIIS Error            ...    8.2921e-05  Tolerance :   1.0000e-06
  Last Orbital Gradient      ...    8.2921e-05  Tolerance :   3.3300e-04
  Last Orbital Rotation      ...    8.2921e-05  Tolerance :   3.3300e-04


----------------
ORBITAL ENERGIES
----------------

  NO   OCC          E(Eh)            E(eV) 
   0   2.0000     -18.996922      -516.9325 
   1   2.0000     -18.926718      -515.0222 
   2   2.0000     -10.150340      -276.2048 
   3   2.0000     -10.091418      -274.6014 
   4   2.0000     -10.040041      -273.2034 
   5   2.0000     -10.033832      -273.0345 
   6   2.0000     -10.032042      -272.9857 
   7   2.0000     -10.019254      -272.6378 
   8   2.0000      -1.071798       -29.1651 
   9   2.0000      -0.973720       -26.4963 
  10   2.0000      -0.773292       -21.0424 
  11   2.0000      -0.743078       -20.2202 
  12   2.0000      -0.677586       -18.4381 
  13   2.0000      -0.617793       -16.8110 
  14   2.0000      -0.565192       -15.3797 
  15   2.0000      -0.529495       -14.4083 
  16   2.0000      -0.469802       -12.7840 
  17   2.0000      -0.464361       -12.6359 
  18   2.0000      -0.436048       -11.8655 
  19   2.0000      -0.424581       -11.5534 
  20   2.0000      -0.407815       -11.0972 
  21   2.0000      -0.379361       -10.3229 
  22   2.0000      -0.378304       -10.2942 
  23   2.0000      -0.366605        -9.9758 
  24   2.0000      -0.361218        -9.8292 
  25   2.0000      -0.334476        -9.1016 
  26   2.0000      -0.323645        -8.8068 
  27   2.0000      -0.309301        -8.4165 
  28   2.0000      -0.307992        -8.3809 
  29   2.0000      -0.306721        -8.3463 
  30   2.0000      -0.271580        -7.3901 
  31   2.0000      -0.234215        -6.3733 
  32   0.0000      -0.015073        -0.4102 
  33   0.0000       0.073284         1.9941 
  34   0.0000       0.096518         2.6264 
  35   0.0000       0.105619         2.8740 
  36   0.0000       0.124824         3.3966 
  37   0.0000       0.129440         3.5222 
  38   0.0000       0.136857         3.7241 
  39   0.0000       0.140352         3.8192 
  40   0.0000       0.148109         4.0303 
  41   0.0000       0.153446         4.1755 
  42   0.0000       0.162877         4.4321 
*Only the first 10 virtual orbitals were printed.

                    ********************************
                    * MULLIKEN POPULATION ANALYSIS *
                    ********************************

-----------------------
MULLIKEN ATOMIC CHARGES
-----------------------
   0 C :   -0.493241
   1 C :   -0.217305
   2 C :   -0.299984
   3 C :    0.329403
   4 O :   -0.419504
   5 O :   -0.156889
   6 C :   -0.154164
   7 C :   -0.441213
   8 H :    0.155642
   9 H :    0.146448
  10 H :    0.148489
  11 H :    0.144375
  12 H :    0.161906
  13 H :    0.164151
  14 H :    0.165421
  15 H :    0.160773
  16 H :    0.153753
  17 H :    0.147148
  18 H :    0.152237
  19 H :    0.152555
Sum of atomic charges:   -0.0000000

--------------------------------
MULLIKEN REDUCED ORBITAL CHARGES
--------------------------------
  0 C s       :     3.332782  s :     3.332782
      pz      :     1.082935  p :     3.133379
      px      :     1.100606
      py      :     0.949838
      dz2     :     0.002714  d :     0.027079
      dxz     :     0.006072
      dyz     :     0.007125
      dx2y2   :     0.006867
      dxy     :     0.004301

  1 C s       :     3.192529  s :     3.192529
      pz      :     1.062459  p :     2.987897
      px      :     0.982259
      py      :     0.943179
      dz2     :     0.004603  d :     0.036878
      dxz     :     0.008076
      dyz     :     0.008456
      dx2y2   :     0.009714
      dxy     :     0.006029

  2 C s       :     3.229375  s :     3.229375
      pz      :     0.975983  p :     3.035818
      px      :     0.947984
      py      :     1.111852
      dz2     :     0.005005  d :     0.034791
      dxz     :     0.010454
      dyz     :     0.005927
      dx2y2   :     0.009294
      dxy     :     0.004110

  3 C s       :     3.183577  s :     3.183577
      pz      :     0.757773  p :     2.361883
      px      :     0.837749
      py      :     0.766361
      dz2     :     0.026958  d :     0.125138
      dxz     :     0.042034
      dyz     :     0.020126
      dx2y2   :     0.016766
      dxy     :     0.019253

  4 O s       :     3.840781  s :     3.840781
      pz      :     1.329154  p :     4.559316
      px      :     1.777408
      py      :     1.452755
      dz2     :     0.008334  d :     0.019407
      dxz     :    -0.000473
      dyz     :     0.008703
      dx2y2   :     0.001984
      dxy     :     0.000859

  5 O s       :     3.702656  s :     3.702656
      pz      :     1.645007  p :     4.423349
      px      :     1.129185
      py      :     1.649157
      dz2     :     0.006626  d :     0.030884
      dxz     :     0.013312
      dyz     :     0.005777
      dx2y2   :     0.000811
      dxy     :     0.004359

  6 C s       :     3.285446  s :     3.285446
      pz      :     0.973793  p :     2.814924
      px      :     0.776554
      py      :     1.064577
      dz2     :     0.010950  d :     0.053794
      dxz     :     0.013281
      dyz     :     0.006236
      dx2y2   :     0.012221
      dxy     :     0.011106

  7 C s       :     3.310557  s :     3.310557
      pz      :     1.047638  p :     3.104848
      px      :     1.023914
      py      :     1.033295
      dz2     :     0.005570  d :     0.025808
      dxz     :     0.005800
      dyz     :     0.003861
      dx2y2   :     0.005563
      dxy     :     0.005013

  8 H s       :     0.826166  s :     0.826166
      pz      :     0.006334  p :     0.018192
      px      :     0.008152
      py      :     0.003706

  9 H s       :     0.835341  s :     0.835341
      pz      :     0.008529  p :     0.018211
      px      :     0.003876
      py      :     0.005806

 10 H s       :     0.833207  s :     0.833207
      pz      :     0.005327  p :     0.018304
      px      :     0.008374
      py      :     0.004603

 11 H s       :     0.837683  s :     0.837683
      pz      :     0.005790  p :     0.017942
      px      :     0.008564
      py      :     0.003588

 12 H s       :     0.820229  s :     0.820229
      pz      :     0.008951  p :     0.017865
      px      :     0.003386
      py      :     0.005529

 13 H s       :     0.818080  s :     0.818080
      pz      :     0.008552  p :     0.017769
      px      :     0.003581
      py      :     0.005636

 14 H s       :     0.816456  s :     0.816456
      pz      :     0.004048  p :     0.018123
      px      :     0.003797
      py      :     0.010278

 15 H s       :     0.821697  s :     0.821697
      pz      :     0.010559  p :     0.017530
      px      :     0.002753
      py      :     0.004217

 16 H s       :     0.828825  s :     0.828825
      pz      :     0.003217  p :     0.017422
      px      :     0.003657
      py      :     0.010548

 17 H s       :     0.834424  s :     0.834424
      pz      :     0.005322  p :     0.018429
      px      :     0.009396
      py      :     0.003711

 18 H s       :     0.829510  s :     0.829510
      pz      :     0.010007  p :     0.018254
      px      :     0.003787
      py      :     0.004460

 19 H s       :     0.829202  s :     0.829202
      pz      :     0.003676  p :     0.018243
      px      :     0.004656
      py      :     0.009911


------------------------
MULLIKEN OVERLAP CHARGES
------------------------
B(  0-C ,  1-C ) :   0.4321 B(  0-C ,  2-C ) :  -0.1943 B(  0-C ,  8-H ) :   0.8413 
B(  0-C ,  9-H ) :   0.8509 B(  0-C , 10-H ) :   0.7903 B(  0-C , 11-H ) :  -0.0506 
B(  0-C , 12-H ) :  -0.0526 B(  1-C ,  2-C ) :   0.4040 B(  1-C ,  3-C ) :  -0.0907 
B(  1-C ,  8-H ) :  -0.0869 B(  1-C ,  9-H ) :  -0.0953 B(  1-C , 10-H ) :  -0.0693 
B(  1-C , 11-H ) :   0.8251 B(  1-C , 12-H ) :   0.8403 B(  1-C , 13-H ) :  -0.0832 
B(  1-C , 14-H ) :  -0.0612 B(  2-C ,  3-C ) :   0.1978 B(  2-C ,  4-O ) :  -0.1036 
B(  2-C ,  8-H ) :  -0.0540 B(  2-C , 11-H ) :  -0.1151 B(  2-C , 13-H ) :   0.9342 
B(  2-C , 14-H ) :   0.7607 B(  3-C ,  4-O ) :   0.9072 B(  3-C ,  5-O ) :   0.3587 
B(  3-C ,  6-C ) :  -0.2126 B(  3-C ,  8-H ) :   0.0621 B(  3-C , 13-H ) :  -0.1925 
B(  4-O ,  5-O ) :  -0.2305 B(  5-O ,  6-C ) :   0.2738 B(  5-O ,  7-C ) :  -0.0954 
B(  5-O , 15-H ) :  -0.0734 B(  5-O , 16-H ) :  -0.0694 B(  6-C ,  7-C ) :   0.4385 
B(  6-C , 15-H ) :   0.8319 B(  6-C , 16-H ) :   0.7981 B(  6-C , 17-H ) :  -0.0753 
B(  6-C , 18-H ) :  -0.0545 B(  6-C , 19-H ) :  -0.0689 B(  7-C , 15-H ) :  -0.0617 
B(  7-C , 17-H ) :   0.8187 B(  7-C , 18-H ) :   0.8185 B(  7-C , 19-H ) :   0.8312 
B( 15-H , 16-H ) :  -0.0628 


                     *******************************
                     * LOEWDIN POPULATION ANALYSIS *
                     *******************************

----------------------
LOEWDIN ATOMIC CHARGES
----------------------
   0 C :   -0.416663
   1 C :   -0.292944
   2 C :   -0.232646
   3 C :    0.351193
   4 O :   -0.431002
   5 O :   -0.598470
   6 C :    0.033034
   7 C :   -0.386529
   8 H :    0.155483
   9 H :    0.150596
  10 H :    0.152744
  11 H :    0.152757
  12 H :    0.167316
  13 H :    0.176633
  14 H :    0.181329
  15 H :    0.181034
  16 H :    0.177975
  17 H :    0.159449
  18 H :    0.159343
  19 H :    0.159368

-------------------------------
LOEWDIN REDUCED ORBITAL CHARGES
-------------------------------
  0 C s       :     2.970643  s :     2.970643
      pz      :     1.151759  p :     3.382788
      px      :     1.153759
      py      :     1.077270
      dz2     :     0.006523  d :     0.063231
      dxz     :     0.015213
      dyz     :     0.016088
      dx2y2   :     0.016504
      dxy     :     0.008902

  1 C s       :     2.934866  s :     2.934866
      pz      :     1.126980  p :     3.278333
      px      :     1.074266
      py      :     1.077087
      dz2     :     0.009858  d :     0.079744
      dxz     :     0.018760
      dyz     :     0.017973
      dx2y2   :     0.021613
      dxy     :     0.011539

  2 C s       :     2.923752  s :     2.923752
      pz      :     1.078604  p :     3.234990
      px      :     1.029282
      py      :     1.127105
      dz2     :     0.010549  d :     0.073904
      dxz     :     0.021591
      dyz     :     0.014213
      dx2y2   :     0.019483
      dxy     :     0.008068

  3 C s       :     2.736495  s :     2.736495
      pz      :     0.947281  p :     2.639953
      px      :     0.912234
      py      :     0.780439
      dz2     :     0.057829  d :     0.272358
      dxz     :     0.091567
      dyz     :     0.047191
      dx2y2   :     0.033742
      dxy     :     0.042030

  4 O s       :     3.548372  s :     3.548372
      pz      :     1.476463  p :     4.665740
      px      :     1.719520
      py      :     1.469757
      dz2     :     0.063706  d :     0.216890
      dxz     :     0.055681
      dyz     :     0.055875
      dx2y2   :     0.019653
      dxy     :     0.021976

  5 O s       :     3.464177  s :     3.464177
      pz      :     1.650441  p :     4.655964
      px      :     1.351487
      py      :     1.654036
      dz2     :     0.088295  d :     0.478328
      dxz     :     0.118647
      dyz     :     0.052073
      dx2y2   :     0.106002
      dxy     :     0.113311

  6 C s       :     2.868028  s :     2.868028
      pz      :     1.017225  p :     2.978481
      px      :     0.874541
      py      :     1.086715
      dz2     :     0.025317  d :     0.120457
      dxz     :     0.030176
      dyz     :     0.013418
      dx2y2   :     0.025561
      dxy     :     0.025986

  7 C s       :     2.970948  s :     2.970948
      pz      :     1.133570  p :     3.354786
      px      :     1.100046
      py      :     1.121170
      dz2     :     0.013447  d :     0.060796
      dxz     :     0.013934
      dyz     :     0.009119
      dx2y2   :     0.013113
      dxy     :     0.011183

  8 H s       :     0.800780  s :     0.800780
      pz      :     0.015189  p :     0.043737
      px      :     0.020161
      py      :     0.008388

  9 H s       :     0.806021  s :     0.806021
      pz      :     0.021150  p :     0.043383
      px      :     0.008566
      py      :     0.013667

 10 H s       :     0.803762  s :     0.803762
      pz      :     0.012364  p :     0.043494
      px      :     0.020649
      py      :     0.010482

 11 H s       :     0.803938  s :     0.803938
      pz      :     0.014238  p :     0.043305
      px      :     0.020690
      py      :     0.008377

 12 H s       :     0.788780  s :     0.788780
      pz      :     0.022627  p :     0.043904
      px      :     0.007733
      py      :     0.013543

 13 H s       :     0.779331  s :     0.779331
      pz      :     0.021354  p :     0.044036
      px      :     0.008556
      py      :     0.014126

 14 H s       :     0.774452  s :     0.774452
      pz      :     0.009195  p :     0.044219
      px      :     0.009240
      py      :     0.025784

 15 H s       :     0.777716  s :     0.777716
      pz      :     0.024583  p :     0.041250
      px      :     0.007025
      py      :     0.009642

 16 H s       :     0.781260  s :     0.781260
      pz      :     0.007148  p :     0.040765
      px      :     0.008092
      py      :     0.025525

 17 H s       :     0.796722  s :     0.796722
      pz      :     0.012781  p :     0.043829
      px      :     0.022831
      py      :     0.008216

 18 H s       :     0.797270  s :     0.797270
      pz      :     0.024816  p :     0.043387
      px      :     0.008137
      py      :     0.010434

 19 H s       :     0.797259  s :     0.797259
      pz      :     0.008094  p :     0.043373
      px      :     0.010890
      py      :     0.024390


---------------------------------
LOEWDIN BOND ORDERS (THRESH 0.050000)
---------------------------------
B(  0-C ,  1-C ) :   1.1418 B(  0-C ,  2-C ) :   0.0670 B(  0-C ,  8-H ) :   0.9211 
B(  0-C ,  9-H ) :   0.9294 B(  0-C , 10-H ) :   0.9295 B(  1-C ,  2-C ) :   1.0858 
B(  1-C ,  3-C ) :   0.0707 B(  1-C , 11-H ) :   0.8944 B(  1-C , 12-H ) :   0.8864 
B(  2-C ,  3-C ) :   0.9223 B(  2-C ,  4-O ) :   0.1799 B(  2-C ,  5-O ) :   0.1843 
B(  2-C , 13-H ) :   0.8652 B(  2-C , 14-H ) :   0.8644 B(  3-C ,  4-O ) :   2.1640 
B(  3-C ,  5-O ) :   1.4575 B(  3-C ,  6-C ) :   0.0895 B(  4-O ,  5-O ) :   0.4644 
B(  4-O ,  6-C ) :   0.0711 B(  5-O ,  6-C ) :   1.2924 B(  5-O ,  7-C ) :   0.1685 
B(  5-O , 15-H ) :   0.0935 B(  5-O , 16-H ) :   0.0945 B(  6-C ,  7-C ) :   1.0922 
B(  6-C , 15-H ) :   0.8227 B(  6-C , 16-H ) :   0.8264 B(  7-C , 17-H ) :   0.9194 
B(  7-C , 18-H ) :   0.9221 B(  7-C , 19-H ) :   0.9225 

------------------------------------------
LOEWDIN REDUCED ORBITAL POPULATIONS PER MO
-------------------------------------------
THRESHOLD FOR PRINTING IS 0.1%%
                      0         1         2         3         4         5   
                 -18.99692 -18.92672 -10.15034 -10.09142 -10.04004 -10.03383
                   2.00000   2.00000   2.00000   2.00000   2.00000   2.00000
                  --------  --------  --------  --------  --------  --------
 1 C  s               0.0       0.0       0.0       0.0       0.0      99.7
 2 C  s               0.0       0.0       0.0       0.0      99.7       0.0
 3 C  s               0.0       0.0      98.9       0.0       0.0       0.0
 4 O  s               0.0      99.9       0.0       0.0       0.0       0.0
 4 O  pz              0.0       0.0       0.2       0.0       0.0       0.0
 4 O  dz2             0.0       0.0       0.2       0.0       0.0       0.0
 4 O  dyz             0.0       0.0       0.2       0.0       0.0       0.0
 5 O  s              99.9       0.0       0.0       0.0       0.0       0.0
 5 O  dxz             0.0       0.0       0.1       0.2       0.0       0.0
 5 O  dx2y2           0.0       0.0       0.0       0.1       0.0       0.0
 5 O  dxy             0.0       0.0       0.1       0.0       0.0       0.0
 6 C  s               0.0       0.0       0.0      99.4       0.0       0.0

                      6         7         8         9        10        11   
                 -10.03204 -10.01925  -1.07180  -0.97372  -0.77329  -0.74308
                   2.00000   2.00000   2.00000   2.00000   2.00000   2.00000
                  --------  --------  --------  --------  --------  --------
 0 C  s               0.0      99.7       0.0       0.0       8.1       5.5
 0 C  pz              0.0       0.0       0.0       0.0       0.2       0.1
 0 C  py              0.0       0.0       0.0       0.0       2.1       0.8
 1 C  s               0.0       0.0       0.1       0.1      18.0       7.9
 1 C  pz              0.0       0.0       0.0       0.0       0.3       0.0
 1 C  px              0.0       0.0       0.2       0.1       1.6       0.1
 1 C  py              0.0       0.1       0.0       0.0       0.1       0.3
 2 C  s               0.0       0.0       1.0       0.3      19.5       1.7
 2 C  pz              0.0       0.0       0.5       0.5       0.7       0.2
 2 C  px              0.0       0.0       1.5       0.1       0.4       2.0
 2 C  py              0.0       0.0       0.0       0.1       0.5       0.1
 3 C  s               0.0       0.0      16.0       4.3       2.7       0.8
 3 C  pz              0.0       0.0       0.1      14.8       4.9       0.7
 3 C  px              0.0       0.0       4.6       1.9       4.2       1.2
 3 C  py              0.0       0.0       0.4       6.3       0.5       0.5
 3 C  dz2             0.0       0.0       0.0       1.0       0.0       0.0
 3 C  dxz             0.0       0.0       0.1       0.2       0.0       0.1
 3 C  dyz             0.0       0.0       0.5       0.4       0.0       0.0
 3 C  dx2y2           0.0       0.0       0.1       0.1       0.1       0.0
 3 C  dxy             0.0       0.0       0.4       0.2       0.0       0.1
 4 O  s               0.0       0.0      11.3      42.9       1.6       0.2
 4 O  pz              0.0       0.0       2.3       3.0       0.3       0.1
 4 O  px              0.0       0.0       0.0       0.1       0.1       0.0
 4 O  py              0.0       0.0       0.7       0.7       0.0       0.0
 4 O  dz2             0.0       0.0       0.3       0.1       0.2       0.1
 4 O  dxz             0.0       0.0       0.1       0.1       0.2       0.0
 4 O  dyz             0.0       0.0       0.8       0.1       0.1       0.1
 4 O  dxy             0.0       0.0       0.1       0.1       0.1       0.0
 5 O  s               0.0       0.0      42.5      15.4       0.0       1.0
 5 O  pz              0.0       0.0       1.8       0.2       0.3       0.2
 5 O  px              0.0       0.0       0.3       0.7       5.4       8.4
 5 O  py              0.0       0.0       0.8       0.2       0.3       0.9
 5 O  dxz             0.0       0.0       0.1       0.7       0.1       0.7
 5 O  dyz             0.0       0.0       0.2       0.5       0.0       0.0
 5 O  dx2y2           0.0       0.0       0.2       0.1       0.0       0.8
 5 O  dxy             0.0       0.0       0.4       0.2       0.1       0.1
 6 C  s               0.0       0.0       4.5       1.8       4.9      16.6
 6 C  pz              0.0       0.0       0.9       0.8       0.2       0.4
 6 C  px              0.0       0.0       4.5       0.9       0.2       2.3
 6 C  py              0.0       0.0       0.1       0.1       0.2       1.1
 6 C  dxz             0.0       0.0       0.2       0.1       0.0       0.0
 6 C  dx2y2           0.0       0.0       0.2       0.1       0.0       0.0
 7 C  s              99.7       0.0       0.3       0.2       3.2      20.4
 7 C  pz              0.0       0.0       0.1       0.0       0.1       0.5
 7 C  px              0.0       0.0       0.4       0.2       0.3       0.7
 7 C  py              0.0       0.0       0.2       0.1       0.2       0.7
 8 H  s               0.0       0.0       0.0       0.0       1.1       0.8
 9 H  s               0.0       0.0       0.0       0.0       1.1       0.8
10 H  s               0.0       0.0       0.0       0.0       1.0       0.8
11 H  s               0.0       0.0       0.0       0.0       2.4       1.2
11 H  px              0.0       0.0       0.0       0.0       0.1       0.1
12 H  s               0.0       0.0       0.0       0.0       2.3       1.2
12 H  pz              0.0       0.0       0.0       0.0       0.2       0.1
13 H  s               0.0       0.0       0.1       0.0       3.0       0.1
13 H  pz              0.0       0.0       0.0       0.0       0.2       0.0
14 H  s               0.0       0.0       0.0       0.0       2.7       0.3
14 H  py              0.0       0.0       0.0       0.0       0.2       0.0
15 H  s               0.0       0.0       0.3       0.1       0.7       2.6
15 H  pz              0.0       0.0       0.0       0.0       0.1       0.2
16 H  s               0.0       0.0       0.3       0.1       0.7       2.6
16 H  py              0.0       0.0       0.0       0.0       0.1       0.2
17 H  s               0.0       0.0       0.0       0.0       0.5       3.4
17 H  px              0.0       0.0       0.0       0.0       0.0       0.2
18 H  s               0.0       0.0       0.0       0.0       0.5       3.3
18 H  pz              0.0       0.0       0.0       0.0       0.0       0.2
19 H  s               0.0       0.0       0.0       0.0       0.5       3.2
19 H  py              0.0       0.0       0.0       0.0       0.0       0.2

                     12        13        14        15        16        17   
                  -0.67759  -0.61779  -0.56519  -0.52949  -0.46980  -0.46436
                   2.00000   2.00000   2.00000   2.00000   2.00000   2.00000
                  --------  --------  --------  --------  --------  --------
 0 C  s              20.1       6.2       6.6       0.8       0.1       0.0
 0 C  pz              0.0       0.1       0.2       0.0       1.6       1.7
 0 C  px              0.1       0.0       0.6       0.2       1.2       0.5
 0 C  py              0.1       1.2       6.0       1.7       0.8       0.1
 0 C  dx2y2           0.0       0.0       0.1       0.0       0.0       0.0
 1 C  s               2.8       2.1      12.3       2.4       0.0       0.1
 1 C  pz              1.6       0.7       0.0       0.4       7.4       5.2
 1 C  px              1.7       0.1       3.1       1.3       2.3       0.4
 1 C  py              6.2       3.6       3.1       0.1       0.1       0.4
 1 C  dx2y2           0.2       0.1       0.0       0.0       0.0       0.0
 2 C  s              12.4       2.9       2.1       2.1       0.9       0.7
 2 C  pz              0.3       0.0       0.7       1.4      15.7       5.3
 2 C  px              2.1       3.0       6.2       0.1       2.1       1.8
 2 C  py              0.7       0.3       0.2       0.4       0.3       4.1
 2 C  dxz             0.1       0.1       0.1       0.0       0.1       0.1
 3 C  s               2.6       1.7       1.0       2.1       1.4       1.1
 3 C  pz              3.6       0.9       1.0       0.4       0.5       1.7
 3 C  px              3.3       1.0       1.9       3.0      10.3       1.0
 3 C  py              0.1       0.9       0.1       1.4       2.3       6.2
 3 C  dxz             0.1       0.1       0.1       0.0       0.0       0.0
 4 O  s               0.7       0.2       0.4       1.7       1.9       1.6
 4 O  pz              0.4       0.2       0.4       0.8       1.4       5.5
 4 O  px              0.2       0.0       0.0       1.1       5.5       1.0
 4 O  py              0.0       0.1       0.0       1.1       2.4       0.7
 4 O  dz2             0.3       0.1       0.1       0.0       0.0       0.5
 4 O  dxz             0.2       0.0       0.1       0.2       0.7       0.0
 4 O  dyz             0.0       0.1       0.0       0.2       0.2       0.0
 4 O  dx2y2           0.0       0.1       0.0       0.0       0.0       0.2
 4 O  dxy             0.0       0.0       0.0       0.1       0.2       0.1
 5 O  s               0.8       0.0       1.7       3.9       0.0       0.0
 5 O  pz              0.2       0.6       0.5       5.4       0.3       4.7
 5 O  px              1.8      14.9       0.1      13.3       0.2       2.9
 5 O  py              0.1       0.9       0.2       5.7      10.4       8.0
 5 O  dz2             0.4       0.1       0.0       0.1       0.0       0.9
 5 O  dxz             0.0       0.9       0.7       0.3       0.2       0.1
 5 O  dyz             0.0       0.0       0.0       0.0       0.3       0.1
 5 O  dx2y2           0.5       0.0       0.5       0.0       0.2       0.0
 5 O  dxy             0.5       0.3       0.0       0.1       0.3       0.0
 6 C  s               0.3       4.9       5.2       3.8       0.1       0.0
 6 C  pz              0.1       0.6       2.8      13.4       0.2       6.8
 6 C  px              2.2       3.6       0.3       4.0       1.1       2.0
 6 C  py              0.5       1.8       1.0       1.5       7.0       9.7
 6 C  dxz             0.1       0.2       0.0       0.3       0.0       0.0
 6 C  dx2y2           0.0       0.0       0.0       0.1       0.0       0.0
 7 C  s               6.5      14.2       2.4       0.1       0.1       0.0
 7 C  pz              0.0       0.5       1.4       3.3       0.5       1.6
 7 C  px              0.1       2.1       0.6       0.4       2.3       0.2
 7 C  py              0.0       1.3       1.3       0.6       0.6       4.7
 8 H  s               3.9       1.9       3.3       0.5       0.5       0.0
 8 H  pz              0.1       0.1       0.1       0.0       0.0       0.0
 8 H  px              0.2       0.1       0.1       0.0       0.0       0.0
 9 H  s               4.0       1.8       3.2       0.7       0.9       0.4
 9 H  pz              0.2       0.1       0.2       0.0       0.0       0.0
 9 H  py              0.1       0.0       0.0       0.0       0.0       0.0
10 H  s               4.5       1.9       2.5       0.3       0.2       0.3
10 H  px              0.3       0.1       0.1       0.0       0.0       0.0
11 H  s               0.6       0.8       6.1       1.3       1.7       0.0
11 H  pz              0.0       0.0       0.2       0.0       0.0       0.0
11 H  px              0.0       0.1       0.3       0.0       0.1       0.0
12 H  s               0.5       0.6       5.2       1.4       1.5       1.9
12 H  pz              0.0       0.1       0.3       0.1       0.0       0.0
13 H  s               2.7       0.4       1.2       1.3       4.0       4.0
13 H  pz              0.2       0.0       0.1       0.0       0.0       0.1
13 H  py              0.1       0.0       0.0       0.0       0.1       0.0
14 H  s               3.2       1.3       0.8       1.7       2.5       0.0
14 H  py              0.3       0.1       0.0       0.1       0.1       0.0
15 H  s               0.0       1.5       3.0       5.7       0.9       4.1
15 H  pz              0.0       0.1       0.1       0.2       0.1       0.2
16 H  s               0.0       1.6       3.1       4.9       2.0       3.4
16 H  py              0.0       0.1       0.2       0.3       0.0       0.1
17 H  s               1.6       5.0       0.8       0.2       0.5       0.1
17 H  pz              0.0       0.1       0.0       0.0       0.0       0.0
17 H  px              0.1       0.3       0.0       0.0       0.0       0.0
18 H  s               1.4       4.2       1.3       0.6       0.7       1.0
18 H  pz              0.1       0.3       0.1       0.0       0.0       0.0
19 H  s               1.4       4.3       1.4       0.5       0.2       1.4
19 H  py              0.1       0.2       0.1       0.0       0.0       0.0

                     18        19        20        21        22        23   
                  -0.43605  -0.42458  -0.40781  -0.37936  -0.37830  -0.36661
                   2.00000   2.00000   2.00000   2.00000   2.00000   2.00000
                  --------  --------  --------  --------  --------  --------
 0 C  s               0.2       0.1       0.0       0.1       0.0       0.0
 0 C  pz              0.4       3.5      12.6       2.7       4.5       7.0
 0 C  px              1.0       6.9       7.1       6.4       1.2       4.1
 0 C  py              2.0       0.6       0.0       2.2       4.1       6.0
 1 C  s               0.1       0.1       0.1       0.3       0.0       0.0
 1 C  pz              0.1       2.8       7.5       0.0       3.0       2.2
 1 C  px              0.9       7.9       7.3       3.4       0.2       0.1
 1 C  py              1.2       1.2       4.1       1.3       1.9       4.1
 2 C  s               0.2       0.1       0.6       0.1       0.1       0.1
 2 C  pz              0.1       0.4       0.1       1.2       3.1       6.2
 2 C  px              1.4       1.5       2.5       0.1       3.3       2.2
 2 C  py             12.1      10.3       1.9       0.8       2.7       4.5
 2 C  dz2             0.0       0.0       0.0       0.0       0.0       0.1
 2 C  dxz             0.0       0.0       0.1       0.0       0.0       0.0
 2 C  dyz             0.0       0.0       0.1       0.0       0.0       0.1
 2 C  dxy             0.0       0.0       0.0       0.1       0.0       0.0
 3 C  s               0.8       0.4       1.7       0.0       0.0       0.0
 3 C  pz              1.7       3.8       0.9       2.4       0.5       1.3
 3 C  px              1.3       0.0       1.2       0.4       0.4       0.1
 3 C  py              2.2       1.6       1.2       7.0       0.0       0.5
 3 C  dz2             0.1       0.0       0.0       0.1       0.0       0.1
 3 C  dxz             0.1       0.0       0.0       0.0       0.1       0.0
 3 C  dyz             0.1       0.0       0.0       0.0       0.0       0.0
 4 O  s               7.4       3.2       1.7       0.1       0.1       0.6
 4 O  pz             15.6       4.3       9.9       0.6       0.2       3.2
 4 O  px              0.7       0.1       0.9       0.6       1.8       0.0
 4 O  py              2.2       6.7       0.2       9.1       0.1       1.0
 4 O  dz2             0.2       0.1       0.3       0.2       0.0       0.0
 4 O  dyz             0.1       0.2       0.0       0.2       0.0       0.0
 4 O  dx2y2           0.0       0.0       0.0       0.2       0.0       0.0
 4 O  dxy             0.2       0.0       0.0       0.0       0.0       0.0
 5 O  s               1.1       0.8       0.1       0.0       2.0       0.1
 5 O  pz             13.6       5.4       2.3       2.1       0.9       0.0
 5 O  px              1.9       1.7       0.0       2.4       0.0       3.5
 5 O  py              1.2       0.8       0.6       9.7       1.7       0.1
 5 O  dz2             0.2       0.0       0.3       0.1       0.1       0.1
 5 O  dxz             0.1       0.5       0.0       0.3       0.1       0.1
 5 O  dyz             0.0       0.2       0.0       0.0       0.0       0.0
 5 O  dx2y2           0.7       0.2       0.1       0.7       0.1       0.0
 5 O  dxy             0.3       0.4       0.6       0.1       0.2       0.0
 6 C  s               0.3       0.1       0.2       0.0       0.1       0.2
 6 C  pz              0.5       2.1       0.7       0.5       0.1       0.1
 6 C  px              6.2       0.5       0.7       0.6       1.1       0.7
 6 C  py              0.9       5.0       2.4       0.0       0.1       0.0
 6 C  dxz             0.0       0.0       0.0       0.1       0.0       0.1
 6 C  dx2y2           0.0       0.0       0.0       0.1       0.1       0.1
 7 C  s               0.2       0.1       0.1       0.0       0.0       0.0
 7 C  pz              0.2       5.3       0.5       5.3      14.3       7.7
 7 C  px              0.0       1.3       5.2       0.2      15.0      10.3
 7 C  py              5.9       0.9       0.2      15.6       2.4       0.0
 7 C  dz2             0.0       0.0       0.0       0.1       0.0       0.0
 7 C  dxz             0.0       0.0       0.0       0.0       0.1       0.2
 7 C  dx2y2           0.0       0.0       0.0       0.0       0.2       0.1
 8 H  s               0.0       0.1       7.2       0.2       0.0       0.1
 8 H  px              0.0       0.0       0.2       0.0       0.0       0.0
 9 H  s               0.1       0.5       2.1       0.4       4.3       7.2
 9 H  pz              0.0       0.0       0.0       0.0       0.1       0.1
10 H  s               1.4       4.4       0.0       5.2       0.6       1.9
10 H  py              0.0       0.0       0.0       0.0       0.1       0.1
11 H  s               0.1       0.8       5.5       0.8       0.2       0.3
12 H  s               0.0       1.9       2.8       0.0       0.3       0.0
13 H  s               1.0       0.4       0.1       0.2       3.8       7.3
13 H  pz              0.1       0.0       0.0       0.0       0.1       0.1
14 H  s               6.0       3.0       2.3       1.0       0.8       1.0
14 H  py              0.2       0.0       0.1       0.0       0.0       0.0
15 H  s               0.2       2.1       0.0       0.2       0.2       0.3
16 H  s               1.9       0.7       0.3       0.0       0.1       0.2
17 H  s               0.1       0.0       1.6       0.5      13.4       9.6
17 H  px              0.0       0.0       0.0       0.0       0.2       0.1
17 H  py              0.0       0.0       0.0       0.1       0.0       0.0
18 H  s               0.0       3.0       0.5       6.0       2.8       2.4
18 H  pz              0.0       0.1       0.0       0.2       0.0       0.0
18 H  px              0.0       0.0       0.0       0.0       0.2       0.1
19 H  s               2.3       0.3       0.0       6.2       5.5       1.1
19 H  py              0.0       0.0       0.0       0.1       0.2       0.1

                     24        25        26        27        28        29   
                  -0.36122  -0.33448  -0.32365  -0.30930  -0.30799  -0.30672
                   2.00000   2.00000   2.00000   2.00000   2.00000   2.00000
                  --------  --------  --------  --------  --------  --------
 0 C  s               0.0       0.1       0.1       0.3       0.2       0.1
 0 C  pz              4.2       1.4       1.5       5.8       9.6       0.5
 0 C  px              8.4       1.9       9.7       0.1       0.6       7.4
 0 C  py              0.0       6.6       1.0      10.9       7.5       0.0
 0 C  dxz             0.1       0.0       0.2       0.1       0.0       0.2
 0 C  dyz             0.0       0.0       0.0       0.5       0.1       0.0
 0 C  dx2y2           0.0       0.1       0.1       0.0       0.2       0.0
 0 C  dxy             0.0       0.0       0.1       0.0       0.1       0.1
 1 C  s               0.0       0.1       0.1       0.2       0.0       0.2
 1 C  pz              0.0       1.0       0.6      13.2       9.2       1.0
 1 C  px              0.1       0.0       7.6       0.5       1.0      13.4
 1 C  py              0.9       5.2       1.4      11.8       6.7       0.1
 1 C  dz2             0.0       0.0       0.0       0.2       0.0       0.0
 1 C  dxz             0.0       0.0       0.2       0.1       0.0       0.4
 1 C  dyz             0.0       0.0       0.0       0.7       0.0       0.0
 1 C  dx2y2           0.0       0.1       0.1       0.0       0.4       0.1
 1 C  dxy             0.0       0.0       0.1       0.0       0.1       0.1
 2 C  s               0.1       0.1       0.6       0.0       0.4       0.1
 2 C  pz              4.1       0.2       2.1       2.3       4.9       0.2
 2 C  px              3.4       1.0       0.9       2.4       1.6       8.6
 2 C  py              0.0       1.5       0.2       4.1      10.9       0.2
 2 C  dz2             0.0       0.0       0.0       0.2       0.0       0.0
 2 C  dxz             0.1       0.0       0.0       0.1       0.0       0.2
 2 C  dyz             0.0       0.0       0.1       0.2       0.0       0.0
 2 C  dx2y2           0.0       0.0       0.0       0.0       0.4       0.0
 3 C  s               0.2       0.0       0.0       0.0       0.1       0.7
 3 C  pz              2.2       1.3       0.7       0.0       1.3       2.1
 3 C  px              5.3       0.5       1.0       0.2       0.0       1.2
 3 C  py              0.4       3.4       1.3       0.1       1.1       0.8
 3 C  dz2             0.1       0.1       0.2       0.0       0.3       0.0
 3 C  dxz             0.0       0.1       0.0       0.0       0.0       0.1
 3 C  dyz             0.1       0.0       0.1       0.0       0.1       0.3
 3 C  dx2y2           0.1       0.0       0.2       0.0       0.0       0.1
 4 O  s               1.0       0.0       0.5       0.0       0.1       0.5
 4 O  pz              6.3       1.0       4.5       0.2       0.5       5.4
 4 O  px              1.8       1.5       1.4       0.3       0.4       0.7
 4 O  py              1.3       8.1       0.1       0.0       8.6       0.2
 4 O  dz2             0.0       0.1       0.0       0.0       0.1       0.1
 4 O  dxz             0.2       0.0       0.0       0.1       0.0       0.0
 4 O  dyz             0.1       0.1       0.1       0.0       0.0       0.1
 4 O  dx2y2           0.1       0.0       0.0       0.1       0.0       0.1
 4 O  dxy             0.0       0.1       0.0       0.0       0.0       0.0
 5 O  s               0.0       0.0       1.1       0.3       0.1       1.9
 5 O  pz              3.0       1.2      10.4       0.6       0.2      15.6
 5 O  px              1.6       0.0       0.1       0.6       0.4       1.4
 5 O  py              0.1       0.4       3.6       0.6       2.2       1.1
 5 O  dz2             0.1       0.1       0.4       0.0       0.0       0.7
 5 O  dxz             0.2       0.1       0.2       0.2       0.0       0.0
 5 O  dyz             0.0       0.2       0.0       0.0       0.0       0.1
 5 O  dx2y2           0.0       0.1       0.2       0.0       0.0       0.6
 5 O  dxy             0.2       0.7       0.2       0.1       0.2       0.1
 6 C  s               0.1       0.0       0.4       0.0       0.0       0.3
 6 C  pz              3.8       1.4       8.2       0.2       0.1       5.8
 6 C  px              8.3       1.3       0.7       0.3       0.6       0.4
 6 C  py              5.5       8.4       2.3       0.6       2.5       0.0
 6 C  dz2             0.0       0.2       0.2       0.0       0.0       0.2
 6 C  dx2y2           0.0       0.2       0.1       0.0       0.0       0.1
 6 C  dxy             0.1       0.0       0.3       0.0       0.1       0.1
 7 C  s               0.2       0.0       0.5       0.0       0.0       0.2
 7 C  pz              5.2       2.7       5.1       0.1       0.1       2.1
 7 C  px             10.3       2.0       2.9       0.0       0.1       0.2
 7 C  py              4.0      13.0       2.2       0.4       1.3       0.1
 7 C  dz2             0.0       0.3       0.0       0.0       0.0       0.1
 7 C  dx2y2           0.0       0.2       0.0       0.0       0.0       0.0
 8 H  s               6.1       0.0       6.8       1.1       1.0       5.3
 8 H  py              0.0       0.1       0.0       0.1       0.1       0.0
 9 H  s               0.8       0.0       0.0      10.0       1.9       0.1
 9 H  py              0.0       0.1       0.0       0.0       0.2       0.0
10 H  s               1.0       3.5       2.0       0.2       5.6       2.8
10 H  px              0.0       0.0       0.0       0.0       0.1       0.0
10 H  py              0.0       0.0       0.0       0.1       0.0       0.0
11 H  s               0.0       0.2       5.7       1.1       1.3       9.4
11 H  py              0.0       0.0       0.0       0.1       0.1       0.0
12 H  s               0.1       0.0       0.1      17.8       1.3       0.3
12 H  pz              0.0       0.0       0.0       0.2       0.0       0.0
12 H  px              0.0       0.0       0.1       0.0       0.0       0.1
12 H  py              0.0       0.0       0.0       0.0       0.1       0.0
13 H  s               0.7       0.1       1.0       6.3       0.0       0.0
14 H  s               0.4       0.6       0.3       2.6       8.1       0.1
15 H  s               0.9       3.7       3.8       0.0       0.8       3.4
15 H  py              0.1       0.0       0.1       0.0       0.0       0.0
16 H  s               0.6       6.5       1.3       0.7       2.4       0.2
16 H  px              0.1       0.0       0.0       0.0       0.0       0.0
17 H  s               1.8       0.0       0.1       0.1       0.0       0.2
17 H  pz              0.1       0.0       0.0       0.0       0.0       0.0
17 H  py              0.0       0.1       0.0       0.0       0.0       0.0
18 H  s               1.9       6.4       1.7       0.0       0.5       1.1
18 H  pz              0.0       0.1       0.0       0.0       0.0       0.0
19 H  s               0.3       9.1       0.3       0.3       1.1       0.0
19 H  px              0.1       0.0       0.0       0.0       0.0       0.0

                     30        31        32        33        34        35   
                  -0.27158  -0.23421  -0.01507   0.07328   0.09652   0.10562
                   2.00000   2.00000   0.00000   0.00000   0.00000   0.00000
                  --------  --------  --------  --------  --------  --------
 0 C  s               0.0       0.0       0.2       7.4       1.9       7.5
 0 C  pz              0.0       0.0       0.2       0.3       0.0       0.1
 0 C  px              0.0       0.0       0.1       1.3       0.1       2.6
 0 C  py              0.0       0.1       0.2       0.5       0.1       2.3
 0 C  dz2             0.0       0.0       0.0       0.0       0.0       0.2
 0 C  dx2y2           0.0       0.0       0.1       0.1       0.0       0.2
 0 C  dxy             0.0       0.0       0.0       0.1       0.0       0.1
 1 C  s               0.0       0.0       1.6       2.1       0.7      11.0
 1 C  pz              0.1       0.0       0.9       0.3       0.1       0.2
 1 C  px              0.0       0.3       1.3       1.0       0.5       4.5
 1 C  py              0.1       0.1       0.2       0.0       0.7       0.2
 1 C  dx2y2           0.0       0.0       0.1       0.0       0.1       0.1
 2 C  s               0.0       0.5       0.1       7.2       0.6       2.4
 2 C  pz              0.0       3.7       0.0       0.8       0.3       2.4
 2 C  px              0.0       3.3       0.5       1.2       0.1       1.7
 2 C  py              0.1       0.1       0.1       0.5       0.4       0.7
 2 C  dxz             0.0       0.0       0.3       0.0       0.0       0.1
 2 C  dyz             0.0       0.0       0.3       0.0       0.1       0.1
 2 C  dx2y2           0.0       0.0       0.5       0.0       0.1       0.3
 2 C  dxy             0.0       0.0       1.0       0.0       0.0       0.0
[...]
 2 C  pz              1.9       0.0       0.1       0.0       0.0       0.0
 2 C  px              0.3       0.0       0.1       0.0       0.0       0.0
 2 C  py              0.9       0.1       0.1       0.0       0.0       0.0
 2 C  dz2             0.9       0.0       0.0       0.0       0.0       0.0
 2 C  dxz             3.8       0.1       0.2       0.0       0.0       0.0
 2 C  dyz             2.9       0.1       0.2       0.1       0.0       0.0
 2 C  dx2y2           1.1       0.0       0.0       0.0       0.0       0.0
 3 C  s               1.2       0.2       3.3       4.9       0.0       0.0
 3 C  pz              0.5       0.5       1.0       6.4       0.0       0.0
 3 C  px              0.2       0.6       4.4       0.0       0.0       0.0
 3 C  py              0.2       0.4       1.7       1.7       0.0       0.0
 3 C  dz2             0.6       0.2       0.8       3.4       0.0       0.0
 3 C  dxz             8.3       0.7       4.9       0.1       0.0       0.0
 3 C  dyz             1.5       0.1       1.2       2.9       0.0       0.0
 3 C  dx2y2           3.9       0.1       0.4       0.2       0.0       0.0
 3 C  dxy             0.2       0.8       4.7       0.1       0.0       0.0
 4 O  s               1.1       1.1       0.9      18.6       0.0       0.0
 4 O  pz              0.3       0.6       0.4      17.1       0.0       0.0
 4 O  px              4.6       0.2       0.2       0.1       0.0       0.0
 4 O  py              1.3       0.3       0.1       4.7       0.0       0.0
 4 O  dz2             1.1       0.8       0.1      16.0       0.0       0.0
 4 O  dxz            11.9       0.2       1.5       0.2       0.0       0.0
 4 O  dyz             1.2       0.9       0.1      16.1       0.0       0.0
 4 O  dx2y2           0.0       0.2       0.3       1.2       0.0       0.0
 4 O  dxy             4.6       0.0       0.0       0.1       0.0       0.0
 5 O  s               3.2      26.8       5.8       1.1       0.0       0.0
 5 O  pz              5.2       7.5       0.6       0.2       0.0       0.0
 5 O  px              0.2       5.8      26.6       0.7       0.0       0.0
 5 O  py              2.0       0.3       5.0       0.0       0.0       0.0
 5 O  dz2             4.3       1.2       1.2       0.0       0.0       0.0
 5 O  dxz             0.1       5.3      15.2       1.2       0.0       0.0
 5 O  dyz             4.1       0.5       2.7       0.0       0.0       0.0
 5 O  dx2y2           1.1      14.3       0.2       0.9       0.0       0.0
 5 O  dxy             0.0       3.7       9.1       0.0       0.0       0.0
 6 C  s               0.2       1.4       0.7       0.2      18.9       0.1
 6 C  pz              0.0       2.1       0.7       0.1       0.0       0.0
 6 C  px              0.0       5.8       1.5       0.3       0.0       0.0
 6 C  dz2             0.4       0.2       0.1       0.0       0.0       0.0
 6 C  dxz             0.1       6.4       1.4       0.5       0.0       0.0
 6 C  dx2y2           0.1       5.7       1.1       0.2       0.0       0.0
 6 C  dxy             0.1       0.4       0.0       0.0       0.0       0.0
 7 C  s               0.0       0.0       0.0       0.0      67.9       8.4
 7 C  dxz             0.0       0.3       0.0       0.0       0.0       0.0
 7 C  dx2y2           0.1       0.2       0.0       0.0       0.0       0.0
 8 H  s               0.5       0.0       0.0       0.0       0.0       0.0
 8 H  pz              0.6       0.0       0.0       0.0       0.0       0.0
 8 H  px              0.5       0.0       0.0       0.0       0.0       0.0
 8 H  py              0.1       0.0       0.0       0.0       0.0       0.0
 9 H  py              0.1       0.0       0.0       0.0       0.0       0.0
10 H  s               0.2       0.0       0.0       0.0       0.0       0.0
10 H  px              0.2       0.0       0.0       0.0       0.0       0.0
11 H  s               0.9       0.0       0.0       0.0       0.0       0.0
11 H  pz              0.6       0.0       0.0       0.0       0.0       0.0
11 H  px              1.6       0.0       0.0       0.0       0.0       0.0
12 H  s               0.5       0.0       0.0       0.0       0.0       0.0
12 H  pz              0.8       0.0       0.0       0.0       0.0       0.0
12 H  px              0.1       0.0       0.0       0.0       0.0       0.0
12 H  py              0.3       0.0       0.0       0.0       0.0       0.0
13 H  s               2.5       0.1       0.1       0.0       0.0       0.0
13 H  pz              4.6       0.1       0.0       0.0       0.0       0.0
13 H  px              0.5       0.0       0.1       0.0       0.0       0.0
13 H  py              1.5       0.0       0.0       0.0       0.0       0.0
15 H  s               0.0       0.4       0.1       0.0       0.0       0.0
15 H  pz              0.0       0.4       0.0       0.0       0.0       0.0
15 H  px              0.3       0.5       0.1       0.0       0.0       0.0
15 H  py              0.0       0.1       0.0       0.0       0.0       0.0
16 H  s               0.0       0.5       0.0       0.0       0.0       0.0
16 H  py              0.0       1.1       0.1       0.0       0.0       0.0
17 H  px              0.0       0.2       0.0       0.0       0.0       0.0

                    216       217       218       219       220       221   
                  22.00040  22.01716  22.08455  22.30675  43.69543  43.75833
                   0.00000   0.00000   0.00000   0.00000   0.00000   0.00000
                  --------  --------  --------  --------  --------  --------
 0 C  s               5.2       0.0       1.9       0.2       0.0       0.0
 1 C  s               0.3      94.7       0.1       4.5       0.0       0.0
 2 C  s              14.1       0.1      73.6       0.4       0.0       0.0
 3 C  s               2.1       4.7       0.0      92.2       0.0       0.0
 4 O  s               0.0       0.0       0.0       0.2      98.2       1.7
 4 O  pz              0.0       0.0       0.0       0.1       0.0       0.0
 5 O  s               0.0       0.0       0.1       0.1       1.7      98.2
 6 C  s              55.4       0.1      23.9       1.2       0.0       0.0
 7 C  s              22.7       0.0       0.0       0.5       0.0       0.0



                      *****************************
                      * MAYER POPULATION ANALYSIS *
                      *****************************

  NA   - Mulliken gross atomic population
  ZA   - Total nuclear charge
  QA   - Mulliken gross atomic charge
  VA   - Mayer's total valence
  BVA  - Mayer's bonded valence
  FA   - Mayer's free valence

  ATOM       NA         ZA         QA         VA         BVA        FA
  0 C      6.4932     6.0000    -0.4932     3.8300     3.8300    -0.0000
  1 C      6.2173     6.0000    -0.2173     3.6480     3.6480     0.0000
  2 C      6.3000     6.0000    -0.3000     3.7009     3.7009    -0.0000
  3 C      5.6706     6.0000     0.3294     3.7980     3.7980     0.0000
  4 O      8.4195     8.0000    -0.4195     1.9270     1.9270     0.0000
  5 O      8.1569     8.0000    -0.1569     1.9255     1.9255    -0.0000
  6 C      6.1542     6.0000    -0.1542     3.6721     3.6721    -0.0000
  7 C      6.4412     6.0000    -0.4412     3.8376     3.8376    -0.0000
  8 H      0.8444     1.0000     0.1556     0.9629     0.9629    -0.0000
  9 H      0.8536     1.0000     0.1464     0.9635     0.9635     0.0000
 10 H      0.8515     1.0000     0.1485     0.9623     0.9623    -0.0000
 11 H      0.8556     1.0000     0.1444     0.9599     0.9599     0.0000
 12 H      0.8381     1.0000     0.1619     0.9608     0.9608     0.0000
 13 H      0.8358     1.0000     0.1642     0.9633     0.9633    -0.0000
 14 H      0.8346     1.0000     0.1654     0.9571     0.9571    -0.0000
 15 H      0.8392     1.0000     0.1608     0.9520     0.9520    -0.0000
 16 H      0.8462     1.0000     0.1538     0.9510     0.9510    -0.0000
 17 H      0.8529     1.0000     0.1471     0.9637     0.9637     0.0000
 18 H      0.8478     1.0000     0.1522     0.9613     0.9613     0.0000
 19 H      0.8474     1.0000     0.1526     0.9616     0.9616    -0.0000

  Mayer bond orders larger than 0.100000
B(  0-C ,  1-C ) :   0.9047 B(  0-C ,  8-H ) :   0.9730 B(  0-C ,  9-H ) :   0.9818 
B(  0-C , 10-H ) :   0.9688 B(  1-C ,  2-C ) :   0.8875 B(  1-C , 11-H ) :   0.9659 
B(  1-C , 12-H ) :   0.9679 B(  2-C ,  3-C ) :   0.9347 B(  2-C , 13-H ) :   1.0089 
B(  2-C , 14-H ) :   0.9382 B(  3-C ,  4-O ) :   1.8137 B(  3-C ,  5-O ) :   1.0707 
B(  5-O ,  6-C ) :   0.8058 B(  6-C ,  7-C ) :   0.9392 B(  6-C , 15-H ) :   0.9566 
B(  6-C , 16-H ) :   0.9500 B(  7-C , 17-H ) :   0.9683 B(  7-C , 18-H ) :   0.9709 
B(  7-C , 19-H ) :   0.9734 

-------
TIMINGS
-------

Total SCF time: 0 days 0 hours 0 min 27 sec 

Total time                  ....      27.032 sec
Sum of individual times     ....      26.239 sec  ( 97.1%)

SCF preparation             ....       0.224 sec  (  0.8%)
Fock matrix formation       ....      24.366 sec  ( 90.1%)
  Startup                   ....       0.061 sec  (  0.3% of F)
  Split-RI-J                ....       5.122 sec  ( 21.0% of F)
  XC integration            ....      18.261 sec  ( 74.9% of F)
    Basis function eval.    ....       3.222 sec  ( 17.6% of XC)
    Density eval.           ....       5.183 sec  ( 28.4% of XC)
    XC-Functional eval.     ....       2.333 sec  ( 12.8% of XC)
    XC-Potential eval.      ....       5.711 sec  ( 31.3% of XC)
Diagonalization             ....       0.000 sec  (  0.0%)
Density matrix formation    ....       0.305 sec  (  1.1%)
Total Energy calculation    ....       0.046 sec  (  0.2%)
Population analysis         ....       0.152 sec  (  0.6%)
Orbital Transformation      ....       0.085 sec  (  0.3%)
Orbital Orthonormalization  ....       0.000 sec  (  0.0%)
DIIS solution               ....       1.020 sec  (  3.8%)
  MO trafo                  ....       0.000 sec  (  0.0 % of DIIS)
  Orb grad                  ....       0.000 sec  (  0.0 % of DIIS)
  Energy W gradient         ....       0.000 sec  (  0.0 % of DIIS)
  DIIS error                ....       0.026 sec  (  2.5 % of DIIS)
  DIIS work                 ....       0.918 sec  ( 90.0 % of DIIS)
  Form Q                    ....       0.000 sec  (  0.0 % of DIIS)
  Form QpQm                 ....       0.000 sec  (  0.0 % of DIIS)
  Exp/Cayley                ....       0.000 sec  (  0.0 % of DIIS)
  Orb update                ....       0.000 sec  (  0.0 % of DIIS)
  Wake-sleep                ....       0.034 sec  (  3.3 % of DIIS)
SOSCF solution              ....       0.040 sec  (  0.1%)
  MO trafo                  ....       0.040 sec  ( 99.8 % of SOSCF)
  Orb grad                  ....       0.000 sec  (  0.0 % of SOSCF)
  Rot update                ....       0.000 sec  (  0.0 % of SOSCF)
  Step                      ....       0.000 sec  (  0.0 % of SOSCF)
Finished LeanSCF after  27.1 sec

Maximum memory used throughout the entire LEANSCF-calculation: 23.7 MB


-------------------------------------------------------------------------------
                          DFT DISPERSION CORRECTION                            
                                                                               
                                DFTD4 V3.4.0                                   
-------------------------------------------------------------------------------
The R2SCAN3C composite method is recognized
Using three-body term ABC
Active option DFTDOPT                   ...         5   

-------------------------   ----------------
Dispersion correction           -0.005042097
-------------------------   ----------------

------------------   -----------------
gCP correction             0.011646041
------------------   -----------------

-------------------------   --------------------
FINAL SINGLE POINT ENERGY      -386.236633629351
-------------------------   --------------------


------------------------------------------------------------------------------
                              ORCA PROPERTY CALCULATIONS
------------------------------------------------------------------------------

GBWName                                 ... sp_gas.gbw
Number of atoms                         ...     20
Number of basis functions               ...    222
Max core memory                         ...   1024 MB

Electric properties:
Dipole moment                           ... YES
Quadrupole moment                       ...  NO
Static polarizability (Dipole/Dipole)   ...  NO
Static polarizability (Dipole/Quad.)    ...  NO
Static polarizability (Quad./Quad.)     ...  NO
Static polarizability (Velocity)        ...  NO

Atomic electric properties:
Dipole moment                           ...  NO
Quadrupole moment                       ...  NO
Static polarizability                   ...  NO

Choice of electric origin               ... Center of mass
Position of electric origin             ...    -0.000008    -0.000017     0.000008

General magnetic properties:
Magnetizability                         ...  NO

EPR properties:
g-Tensor (aka g-matrix)                 ...  NO
Zero-Field splitting spin-orbit         ...  NO
Zero-field splitting spin-spin          ...  NO
Hyperfine couplings                     ...  NO (   0 nuclei)
Quadrupole couplings                    ...  NO (   0 nuclei)
Contact density                         ...  NO (   0 nuclei)

NMR properties:
Chemical shifts                         ...  NO (   0 nuclei)
Spin-rotation constants                 ...  NO (   0 nuclei)
Spin-spin couplings                     ...  NO (   0 nuclei,    0 pairs)

Choice of magnetic origin               ... GIAO
Position of magnetic origin             ...     0.000000     0.000000     0.000000

Properties with geometric perturbations:
SCF Hessian                             ...  NO
IR spectrum                             ...  NO
VCD spectrum                            ...  NO
X-ray spectroscopy properties:
SCF XES/XAS/RIXS spectra                ...  NO


-------------
DIPOLE MOMENT
-------------

Method             : SCF
Type of density    : Electron Density
Multiplicity       :   1
Irrep              :   0
Energy             :  -386.2432375740183943 Eh
Relativity type    : 
Basis              : AO
                                X                 Y                 Z
Electronic contribution:      1.340923849       4.986833944      -1.182552191
Nuclear contribution   :     -1.098652451      -5.468039298       1.787271977
                        -----------------------------------------
Total Dipole Moment    :      0.242271399      -0.481205354       0.604719786
                        -----------------------------------------
Magnitude (a.u.)       :      0.809901256
Magnitude (Debye)      :      2.058605392



--------------------
Rotational spectrum 
--------------------
 
Rotational constants in cm-1:             0.124689             0.035312             0.032054 
Rotational constants in MHz :          3738.070767          1058.628609           960.947124 

Dipole components along the rotational axes: 
x,y,z [a.u.] :     0.288235    -0.639426     0.404962 
x,y,z [Debye]:     0.732635    -1.625293     1.029333 

 

Dipole moment calculation done in   0.0 sec 

Maximum memory used throughout the entire PROP-calculation: 13.7 MB

--------------------------------
SUGGESTED CITATIONS FOR THIS RUN
--------------------------------

Below you find a list of papers that are relevant to this ORCA run
We neither can nor want to force you to cite these papers, but we appreciate if you do
You receive ORCA, which is the product of decades of hard work by many enthusiastic individuals, for free
The only thing we kindly ask in return is that you cite our papers,
We deeply appreciate it, if you show your appreciation for ORCA by not just citing the generic ORCA reference.

Please note that relegating all ORCA citations to the supporting information does *not* help us.
SI sections are not indexed - citations you put there will not count into any citation statistics
But we need these citations in order to attract the funding resources that allow us to do what we are doing

Therefore, if you are a happy ORCA user, please consider citing a few of the papers listed below in the main body of your paper

In addition to the list printed below, the program has created the file sp_gas.bibtex that contains the list in bibtex format
You can import this file easily into all common literature databanks and citation aid programs


List of essential papers. We consider these as the minimum necessary citations

  1. Neese,F.
     Software update: the ORCA program system, version 5.0
     WIRES Comput. Molec. Sci., 2022 12(1)e1606
     doi.org/10.1002/wcms.1606
  2. Grimme,S.; Hansen,A.; Ehlert,S.; Mewes,J.
     r2SCAN-3c: A 'Swiss army knife' composite electronic-structure method
     J. Chem. Phys., 2021 154 064103
     doi.org/10.1063/5.0040021

List of papers to cite with high priority. The work reported in these papers was absolutely
necessary for this run to complete.
Our perspective: the developers of density functionals and basis sets usually get cited in chemistry papers
Good! But without the algorithms to do something with them, the functionals or basis sets would not do anything.
Hence, in our opinion, the algorithm design and method developments papers are equally worthy of getting cited

  1. Neese,F.
     An improvement of the resolution of the identity approximation for the formation of the Coulomb matrix
     J. Comp. Chem., 2003 24(14)1740-1747
     doi.org/10.1002/jcc.10318
  2. Neese,F.
     The SHARK Integral Generation and Digestion System
     J. Comp. Chem., 2022  1-16
     doi.org/10.1002/jcc.26942
  3. Lehtola,S.; Steigemann,C.; Oliveira,M.; Marques,M.
     Recent developments in Libxc - A comprehensive library of functionals for density functional theory
     Software X, 2018 7 
     doi.org/10.1016/j.softx.2017.11.002
  4. Caldeweyher,E.; Bannwarth,C.; Grimme,S.
     Extension of the D3 dispersion coefficient model
     J. Chem. Phys., 2017 147 034112-XXXX
     doi.org/10.1063/1.4993215
  5. Caldeweyher,E.; Ehlert,S.; Hansen,A.; Neugebauer,H.; Spicher,S.; Bannwarth,C.; Grimme,S.
     A generally applicable atomic-charge dependent London dispersion correction
     J. Chem. Phys., 2019 150 154122-XXXX
     doi.org/10.1063/1.5090222
  6. Caldeweyher,E.; Mewes,J.; Ehlert,S.; Grimme,S.
     Extension and evaluation of the D4 London-dispersion model for periodic systems
     Phys. Chem. Chem. Phys., 2020 22(16)8499-8512
     doi.org/10.1039/D0CP00502A

List of suggested additional citations. These are papers that are important in the 'surrounding' of 
of this run, or papers that preceded the highly important papers. If you like your results we are grateful for a citation.

  1. Neese,F.
     The ORCA program system
     WIRES Comput. Molec. Sci., 2012 2(1)73-78
     doi.org/10.1002/wcms.81
  2. Neese,F.
     Software update: the ORCA program system, version 4.0
     WIRES Comput. Molec. Sci., 2018 8(1)1-6
     doi.org/10.1002/wcms.1327
  3. Neese,F.; Wennmohs,F.; Becker,U.; Riplinger,C.
     The ORCA quantum chemistry program package
     J. Chem. Phys., 2020 152 Art. No. L224108
     doi.org/10.1063/5.0004608

List of optional additional citations

  1. Neese,F.
     Approximate second-order SCF convergence for spin unrestricted wavefunctions
     Chem. Phys. Lett., 2000 325(1-3)93-98
     doi.org/10.1016/s0009-2614(00)00662-x

Timings for individual modules:

Sum of individual times          ...       29.259 sec (=   0.488 min)
Startup calculation              ...        1.600 sec (=   0.027 min)   5.5 %
SCF iterations                   ...       27.526 sec (=   0.459 min)  94.1 %
Property calculations            ...        0.132 sec (=   0.002 min)   0.5 %
                             ****ORCA TERMINATED NORMALLY****
TOTAL RUN TIME: 0 days 0 hours 0 minutes 30 seconds 181 msec
