      -----------------------------------------------------------      
     |                   =====================                   |     
     |                           x T B                           |     
     |                   =====================                   |     
     |                         S. Grimme                         |     
     |          Mulliken Center for Theoretical Chemistry        |     
     |                    University of Bonn                     |     
      -----------------------------------------------------------      

   * xtb version 6.7.1 (edcfbbe) compiled by 'albert@albert-system' on 2024-07-22

   xtb is free software: you can redistribute it and/or modify it under
   the terms of the GNU Lesser General Public License as published by
   the Free Software Foundation, either version 3 of the License, or
   (at your option) any later version.
   
   xtb is distributed in the hope that it will be useful,
   but WITHOUT ANY WARRANTY; without even the implied warranty of
   MERCHANTABILITY or FITNESS FOR A PARTICULAR PURPOSE.  See the
   GNU Lesser General Public License for more details.
   
   Cite this work as:
   * C. Bannwarth, E. Caldeweyher, S. Ehlert, A. Hansen, P. Pracht,
     J. Seibert, S. Spicher, S. Grimme, WIREs Comput. Mol. Sci., 2020, 11,
     e01493. DOI: 10.1002/wcms.1493
   
   for GFN2-xTB:
   * C. Bannwarth, S. Ehlert and S. Grimme., J. Chem. Theory Comput., 2019,
     15, 1652-1671. DOI: 10.1021/acs.jctc.8b01176
   for GFN1-xTB:
   * S. Grimme, C. Bannwarth, P. Shushkov, J. Chem. Theory Comput., 2017,
     13, 1989-2009. DOI: 10.1021/acs.jctc.7b00118
   for GFN0-xTB:
   * P. Pracht, E. Caldeweyher, S. Ehlert, S. Grimme, ChemRxiv, 2019, preprint.
     DOI: 10.26434/chemrxiv.8326202.v1
   for GFN-FF:
   * S. Spicher and S. Grimme, Angew. Chem. Int. Ed., 2020, 59, 15665-15673.
     DOI: 10.1002/anie.202004239
   
   for ALPB and GBSA implicit solvation:
   * S. Ehlert, M. Stahn, S. Spicher, S. Grimme, J. Chem. Theory Comput.,
     2021, 17, 4250-4261. DOI: 10.1021/acs.jctc.1c00471
   
   for ddCOSMO and CPCM-X implicit solvation:
   * M. Stahn, S. Ehlert, S. Grimme, J. Phys. Chem. A,
     2023, XX, XXXX-XXXX. DOI: 10.1021/acs.jpca.3c04382
   
   for DFT-D4:
   * E. Caldeweyher, C. Bannwarth and S. Grimme, J. Chem. Phys., 2017,
     147, 034112. DOI: 10.1063/1.4993215
   * E. Caldeweyher, S. Ehlert, A. Hansen, H. Neugebauer, S. Spicher,
     C. Bannwarth and S. Grimme, J. Chem. Phys., 2019, 150, 154122.
     DOI: 10.1063/1.5090222
   * E. Caldeweyher, J.-M. Mewes, S. Ehlert and S. Grimme, Phys. Chem. Chem. Phys.
     2020, 22, 8499-8512. DOI: 10.1039/D0CP00502A
   
   for sTDA-xTB:
   * S. Grimme and C. Bannwarth, J. Chem. Phys., 2016, 145, 054103.
     DOI: 10.1063/1.4959605
   
   in the mass-spec context:
   * V. Asgeirsson, C. Bauer and S. Grimme, Chem. Sci., 2017, 8, 4879.
     DOI: 10.1039/c7sc00601b
   * J. Koopman and S. Grimme, ACS Omega 2019, 4, 12, 15120-15133.
     DOI: 10.1021/acsomega.9b02011
   
   for metadynamics refer to:
   * S. Grimme, J. Chem. Theory Comput., 2019, 155, 2847-2862
     DOI: 10.1021/acs.jctc.9b00143
   
   for SPH calculations refer to:
   * S. Spicher and S. Grimme, J. Chem. Theory Comput., 2021, 17, 1701-1714
     DOI: 10.1021/acs.jctc.0c01306
   
   for ONIOM refer to:
   * C. Plett, A. Katbashev, S. Ehlert, S. Grimme, M. Bursch,
     Phys. Chem. Chem. Phys., 2023, 25, 17860-17868. DOI: 10.1039/D3CP02178E
   
   for DIPRO refer to:
   * J. Kohn, N. Gildemeister, S. Grimme, D. Fazzi, A. Hansen,
     J. Chem. Phys., 2023, just accepted.
   
   for PTB refer to:
   * S. Grimme, M. Mueller, A. Hansen, J. Chem. Phys., 2023, 158, 124111.
     DOI: 10.1063/5.0137838
   
   with help from (in alphabetical order)
   P. Atkinson, C. Bannwarth, F. Bohle, G. Brandenburg, E. Caldeweyher
   M. Checinski, S. Dohm, S. Ehlert, S. Ehrlich, I. Gerasimov, C. Hölzer
   A. Katbashev, J. Kohn, J. Koopman, C. Lavigne, S. Lehtola, F. März, M. Müller,
   F. Musil, H. Neugebauer, J. Pisarek, C. Plett, P. Pracht, F. Pultar,
   J. Seibert, P. Shushkov, S. Spicher, M. Stahn, M. Steiner, T. Strunk,
   J. Stückrath, T. Rose, and J. Unsleber
   
 * started run on 2025/04/11 at 15:59:02.333     
   ID    Z sym.   atoms
    1    6 C      1-5, 8
    2    8 O      6, 7
    3    1 H      9-20

           -------------------------------------------------
          |                Calculation Setup                |
           -------------------------------------------------

          program call               : /srv/scratch/z5358697/.xtb/bin/xtb solv.coord --gfn2 --sp --chrg 0 --norestart --parallel 1 --alpb water reference -I xtb_sp-xcontrol-inp
          hostname                   : k068
          coordinate file            : solv.coord
          omp threads                :                     1


           -------------------------------------------------
          |                 G F N 2 - x T B                 |
           -------------------------------------------------

        Reference                      10.1021/acs.jctc.8b01176
      * Hamiltonian:
        H0-scaling (s, p, d)           1.850000    2.230000    2.230000
        zeta-weighting                 0.500000
      * Dispersion:
        s8                             2.700000
        a1                             0.520000
        a2                             5.000000
        s9                             5.000000
      * Repulsion:
        kExp                           1.500000    1.000000
        rExp                           1.000000
      * Coulomb:
        alpha                          2.000000
        third order                    shell-resolved
        anisotropic                    true
        a3                             3.000000
        a5                             4.000000
        cn-shift                       1.200000
        cn-exp                         4.000000
        max-rad                        5.000000

      * Solvation model:               ALPB
        Solvent                        water
        Parameter file                 internal GFN2-xTB/ALPB
        Dielectric constant                8.0200E+01
        Reference state                gsolv=reference [X=1]
        Free energy shift                  2.8945E-03 Eh       1.8164E+00 kcal/mol
        Temperature                        2.9815E+02 K
        Density                            1.0000E+00 kg/L
        Solvent mass                       1.8000E+01 g/mol
        Interaction kernel             P16
        Born radius scaling (c1)           1.4744E+00
        Born radii integrator          GBOBC
        Born offset                        0.0000E+00 a0       0.0000E+00 AA
        H-bond correction              true
        Ion screening                  false
        Surface tension                    1.0000E-05 Eh       1.5569E+01 dyn/cm
        Grid points                               974 per atom

          ...................................................
          :                      SETUP                      :
          :.................................................:
          :  # basis functions                  44          :
          :  # atomic orbitals                  44          :
          :  # shells                           28          :
          :  # electrons                        48          :
          :  max. iterations                   250          :
          :  Hamiltonian                  GFN2-xTB          :
          :  restarted?                      false          :
          :  GBSA solvation                   true          :
          :  PC potential                    false          :
          :  electronic temp.          300.0000000     K    :
          :  accuracy                    1.0000000          :
          :  -> integral cutoff          0.2500000E+02      :
          :  -> integral neglect         0.1000000E-07      :
          :  -> SCF convergence          0.1000000E-05 Eh   :
          :  -> wf. convergence          0.1000000E-03 e    :
          :  Broyden damping             0.4000000          :
          :  net charge                          0          :
          :  unpaired electrons                  0          :
          ...................................................

 iter      E             dE          RMSdq      gap      omega  full diag
   1    -27.3679695 -0.273680E+02  0.410E+00    5.66       0.0  T
   2    -27.4285253 -0.605557E-01  0.208E+00    4.86       1.0  T
   3    -27.4300823 -0.155709E-02  0.102E+00    5.15       1.0  T
   4    -27.4314373 -0.135500E-02  0.163E-01    4.91       1.0  T
   5    -27.4316526 -0.215256E-03  0.693E-02    4.96       1.0  T
   6    -27.4316545 -0.194720E-05  0.194E-02    4.95       1.2  T
   7    -27.4316555 -0.905849E-06  0.405E-03    4.95       5.5  T
   8    -27.4316555 -0.200367E-07  0.225E-03    4.95       9.9  T
   9    -27.4316555 -0.738918E-08  0.313E-04    4.95      71.4  T
  10    -27.4316555 -0.188397E-09  0.141E-04    4.95     158.4  T

   *** convergence criteria satisfied after 10 iterations ***

         #    Occupation            Energy/Eh            Energy/eV
      -------------------------------------------------------------
         1        2.0000           -0.7514327             -20.4475
       ...           ...                  ...                  ...
        18        2.0000           -0.4704865             -12.8026
        19        2.0000           -0.4499864             -12.2448
        20        2.0000           -0.4495439             -12.2327
        21        2.0000           -0.4451820             -12.1140
        22        2.0000           -0.4384409             -11.9306
        23        2.0000           -0.4236174             -11.5272
        24        2.0000           -0.4200417             -11.4299 (HOMO)
        25                         -0.2380072              -6.4765 (LUMO)
        26                          0.0000869               0.0024
        27                          0.0672727               1.8306
        28                          0.1088878               2.9630
        29                          0.1236923               3.3658
       ...                                ...                  ...
        44                          0.6055911              16.4790
      -------------------------------------------------------------
                  HL-Gap            0.1820345 Eh            4.9534 eV
             Fermi-level           -0.3290244 Eh           -8.9532 eV

 SCC (total)                   0 d,  0 h,  0 min,  0.016 sec
 SCC setup                      ...        0 min,  0.001 sec (  7.923%)
 Dispersion                     ...        0 min,  0.000 sec (  0.739%)
 classical contributions        ...        0 min,  0.000 sec (  0.156%)
 integral evaluation            ...        0 min,  0.002 sec (  9.798%)
 iterations                     ...        0 min,  0.008 sec ( 50.256%)
 molecular gradient             ...        0 min,  0.005 sec ( 30.079%)
 printout                       ...        0 min,  0.000 sec (  0.975%)

         :::::::::::::::::::::::::::::::::::::::::::::::::::::
         ::                     SUMMARY                     ::
         :::::::::::::::::::::::::::::::::::::::::::::::::::::
         :: total energy             -27.116745404451 Eh    ::
         :: total w/o Gsasa/hb       -27.118524247732 Eh    ::
         :: gradient norm              0.000094447485 Eh/a0 ::
         :: HOMO-LUMO gap              4.953409659130 eV    ::
         ::.................................................::
         :: SCC energy               -27.431658827696 Eh    ::
         :: -> isotropic ES            0.058593181274 Eh    ::
         :: -> anisotropic ES          0.001283410522 Eh    ::
         :: -> anisotropic XC          0.008338829010 Eh    ::
         :: -> dispersion             -0.011225920391 Eh    ::
         :: -> Gsolv                  -0.007507761409 Eh    ::
         ::    -> Gelec               -0.009286604690 Eh    ::
         ::    -> Gsasa                0.001384399618 Eh    ::
         ::    -> Ghb                 -0.002500105497 Eh    ::
         ::    -> Gshift               0.002894549160 Eh    ::
         :: repulsion energy           0.314913423246 Eh    ::
         :: add. restraining           0.000000000000 Eh    ::
         :: total charge               0.000000000000 e     ::
         :::::::::::::::::::::::::::::::::::::::::::::::::::::

           -------------------------------------------------
          |                Property Printout                |
           -------------------------------------------------

    * Orbital Energies and Occupations

         #    Occupation            Energy/Eh            Energy/eV
      -------------------------------------------------------------
         1        2.0000           -0.7514327             -20.4475
       ...           ...                  ...                  ...
        12        2.0000           -0.5262375             -14.3197
        13        2.0000           -0.5143252             -13.9955
        14        2.0000           -0.5051296             -13.7453
        15        2.0000           -0.4947849             -13.4638
        16        2.0000           -0.4840151             -13.1707
        17        2.0000           -0.4736716             -12.8893
        18        2.0000           -0.4704865             -12.8026
        19        2.0000           -0.4499864             -12.2448
        20        2.0000           -0.4495439             -12.2327
        21        2.0000           -0.4451820             -12.1140
        22        2.0000           -0.4384409             -11.9306
        23        2.0000           -0.4236174             -11.5272
        24        2.0000           -0.4200417             -11.4299 (HOMO)
        25                         -0.2380072              -6.4765 (LUMO)
        26                          0.0000869               0.0024
        27                          0.0672727               1.8306
        28                          0.1088878               2.9630
        29                          0.1236923               3.3658
        30                          0.1396677               3.8006
        31                          0.1487669               4.0482
        32                          0.1538206               4.1857
        33                          0.1649943               4.4897
        34                          0.1836103               4.9963
        35                          0.1899118               5.1678
       ...                                ...                  ...
        44                          0.6055911              16.4790
      -------------------------------------------------------------
                  HL-Gap            0.1820345 Eh            4.9534 eV
             Fermi-level           -0.3290244 Eh           -8.9532 eV

     #   Z          covCN         q      C6AA      α(0)
     1   6 C        3.752    -0.115    22.759     6.803
     2   6 C        3.801    -0.061    21.664     6.627
     3   6 C        3.803    -0.062    21.693     6.631
     4   6 C        3.804    -0.100    22.399     6.738
     5   6 C        2.711     0.365    20.817     7.468
     6   8 O        0.856    -0.495    23.680     6.524
     7   8 O        1.704    -0.259    18.300     5.776
     8   6 C        3.644     0.003    20.868     6.566
     9   1 H        0.925     0.041     2.433     2.439
    10   1 H        0.925     0.039     2.459     2.452
    11   1 H        0.925     0.043     2.413     2.429
    12   1 H        0.924     0.040     2.455     2.450
    13   1 H        0.924     0.038     2.478     2.462
    14   1 H        0.924     0.055     2.255     2.348
    15   1 H        0.924     0.042     2.423     2.434
    16   1 H        0.924     0.075     2.034     2.230
    17   1 H        0.924     0.090     1.880     2.144
    18   1 H        0.924     0.077     2.013     2.219
    19   1 H        0.925     0.088     1.895     2.153
    20   1 H        0.925     0.097     1.816     2.107

 Mol. C6AA /au·bohr⁶  :       3000.030699
 Mol. C8AA /au·bohr⁸  :      63884.026122
 Mol. α(0) /au        :         81.001280


Wiberg/Mayer (AO) data.
largest (>0.10) Wiberg bond orders for each atom

 ---------------------------------------------------------------------------
     #   Z sym  total        # sym  WBO       # sym  WBO       # sym  WBO
 ---------------------------------------------------------------------------
     1   6 C    3.995 --     2 C    1.019    10 H    0.988     9 H    0.987
                            11 H    0.987
     2   6 C    3.996 --     1 C    1.019     3 C    1.007    13 H    0.978
                            12 H    0.978
     3   6 C    3.992 --     2 C    1.007     4 C    0.996    15 H    0.978
                            14 H    0.975
     4   6 C    3.989 --     3 C    0.996     5 C    0.981    16 H    0.968
                            17 H    0.939
     5   6 C    3.905 --     6 O    1.684     7 O    1.173     4 C    0.981
     6   8 O    1.967 --     5 C    1.684     7 O    0.172
     7   8 O    2.327 --     5 C    1.173     8 C    0.937     6 O    0.172
     8   6 C    3.901 --    18 H    0.976    20 H    0.974    19 H    0.973
                             7 O    0.937
     9   1 H    0.998 --     1 C    0.987
    10   1 H    0.998 --     1 C    0.988
    11   1 H    0.998 --     1 C    0.987
    12   1 H    0.998 --     2 C    0.978
    13   1 H    0.999 --     2 C    0.978
    14   1 H    0.997 --     3 C    0.975
    15   1 H    0.998 --     3 C    0.978
    16   1 H    0.994 --     4 C    0.968
    17   1 H    0.992 --     4 C    0.939
    18   1 H    0.994 --     8 C    0.976
    19   1 H    0.992 --     8 C    0.973
    20   1 H    0.991 --     8 C    0.974
 ---------------------------------------------------------------------------

Topologies differ in total number of bonds
Writing topology from bond orders to xtbtopo.mol

molecular dipole:
                 x           y           z       tot (Debye)
 q only:       -0.531      -1.157       0.086
   full:       -0.501      -1.140       0.057       3.168
molecular quadrupole (traceless):
                xx          xy          yy          xz          yz          zz
 q only:        4.005      -9.759      -4.367       2.600      -0.639       0.362
  q+dip:        1.558     -10.463      -4.367       2.297       0.653       2.809
   full:        2.226     -10.464      -5.015       2.175       0.282       2.788


           -------------------------------------------------
          | TOTAL ENERGY              -27.116745404451 Eh   |
          | GRADIENT NORM               0.000094447485 Eh/α |
          | HOMO-LUMO GAP               4.953409659130 eV   |
           -------------------------------------------------

------------------------------------------------------------------------
 * finished run on 2025/04/11 at 15:59:02.387     
------------------------------------------------------------------------
 total:
 * wall-time:     0 d,  0 h,  0 min,  0.053 sec
 *  cpu-time:     0 d,  0 h,  0 min,  0.022 sec
 * ratio c/w:     0.424 speedup
 SCF:
 * wall-time:     0 d,  0 h,  0 min,  0.016 sec
 *  cpu-time:     0 d,  0 h,  0 min,  0.015 sec
 * ratio c/w:     0.903 speedup

