      -----------------------------------------------------------      
     |                   =====================                   |     
     |                           x T B                           |     
     |                   =====================                   |     
     |                         S. Grimme                         |     
     |          Mulliken Center for Theoretical Chemistry        |     
     |                    University of Bonn                     |     
      -----------------------------------------------------------      

   * xtb version 6.7.1 (edcfbbe) compiled by 'albert@albert-system' on 2024-07-22

   xtb is free software: you can redistribute it and/or modify it under
   the terms of the GNU Lesser General Public License as published by
   the Free Software Foundation, either version 3 of the License, or
   (at your option) any later version.
   
   xtb is distributed in the hope that it will be useful,
   but WITHOUT ANY WARRANTY; without even the implied warranty of
   MERCHANTABILITY or FITNESS FOR A PARTICULAR PURPOSE.  See the
   GNU Lesser General Public License for more details.
   
   Cite this work as:
   * C. Bannwarth, E. Caldeweyher, S. Ehlert, A. Hansen, P. Pracht,
     J. Seibert, S. Spicher, S. Grimme, WIREs Comput. Mol. Sci., 2020, 11,
     e01493. DOI: 10.1002/wcms.1493
   
   for GFN2-xTB:
   * C. Bannwarth, S. Ehlert and S. Grimme., J. Chem. Theory Comput., 2019,
     15, 1652-1671. DOI: 10.1021/acs.jctc.8b01176
   for GFN1-xTB:
   * S. Grimme, C. Bannwarth, P. Shushkov, J. Chem. Theory Comput., 2017,
     13, 1989-2009. DOI: 10.1021/acs.jctc.7b00118
   for GFN0-xTB:
   * P. Pracht, E. Caldeweyher, S. Ehlert, S. Grimme, ChemRxiv, 2019, preprint.
     DOI: 10.26434/chemrxiv.8326202.v1
   for GFN-FF:
   * S. Spicher and S. Grimme, Angew. Chem. Int. Ed., 2020, 59, 15665-15673.
     DOI: 10.1002/anie.202004239
   
   for ALPB and GBSA implicit solvation:
   * S. Ehlert, M. Stahn, S. Spicher, S. Grimme, J. Chem. Theory Comput.,
     2021, 17, 4250-4261. DOI: 10.1021/acs.jctc.1c00471
   
   for ddCOSMO and CPCM-X implicit solvation:
   * M. Stahn, S. Ehlert, S. Grimme, J. Phys. Chem. A,
     2023, XX, XXXX-XXXX. DOI: 10.1021/acs.jpca.3c04382
   
   for DFT-D4:
   * E. Caldeweyher, C. Bannwarth and S. Grimme, J. Chem. Phys., 2017,
     147, 034112. DOI: 10.1063/1.4993215
   * E. Caldeweyher, S. Ehlert, A. Hansen, H. Neugebauer, S. Spicher,
     C. Bannwarth and S. Grimme, J. Chem. Phys., 2019, 150, 154122.
     DOI: 10.1063/1.5090222
   * E. Caldeweyher, J.-M. Mewes, S. Ehlert and S. Grimme, Phys. Chem. Chem. Phys.
     2020, 22, 8499-8512. DOI: 10.1039/D0CP00502A
   
   for sTDA-xTB:
   * S. Grimme and C. Bannwarth, J. Chem. Phys., 2016, 145, 054103.
     DOI: 10.1063/1.4959605
   
   in the mass-spec context:
   * V. Asgeirsson, C. Bauer and S. Grimme, Chem. Sci., 2017, 8, 4879.
     DOI: 10.1039/c7sc00601b
   * J. Koopman and S. Grimme, ACS Omega 2019, 4, 12, 15120-15133.
     DOI: 10.1021/acsomega.9b02011
   
   for metadynamics refer to:
   * S. Grimme, J. Chem. Theory Comput., 2019, 155, 2847-2862
     DOI: 10.1021/acs.jctc.9b00143
   
   for SPH calculations refer to:
   * S. Spicher and S. Grimme, J. Chem. Theory Comput., 2021, 17, 1701-1714
     DOI: 10.1021/acs.jctc.0c01306
   
   for ONIOM refer to:
   * C. Plett, A. Katbashev, S. Ehlert, S. Grimme, M. Bursch,
     Phys. Chem. Chem. Phys., 2023, 25, 17860-17868. DOI: 10.1039/D3CP02178E
   
   for DIPRO refer to:
   * J. Kohn, N. Gildemeister, S. Grimme, D. Fazzi, A. Hansen,
     J. Chem. Phys., 2023, just accepted.
   
   for PTB refer to:
   * S. Grimme, M. Mueller, A. Hansen, J. Chem. Phys., 2023, 158, 124111.
     DOI: 10.1063/5.0137838
   
   with help from (in alphabetical order)
   P. Atkinson, C. Bannwarth, F. Bohle, G. Brandenburg, E. Caldeweyher
   M. Checinski, S. Dohm, S. Ehlert, S. Ehrlich, I. Gerasimov, C. Hölzer
   A. Katbashev, J. Kohn, J. Koopman, C. Lavigne, S. Lehtola, F. März, M. Müller,
   F. Musil, H. Neugebauer, J. Pisarek, C. Plett, P. Pracht, F. Pultar,
   J. Seibert, P. Shushkov, S. Spicher, M. Stahn, M. Steiner, T. Strunk,
   J. Stückrath, T. Rose, and J. Unsleber
   
 * started run on 2025/04/11 at 15:55:28.682     
   ID    Z sym.   atoms
    1    6 C      1, 3, 5, 7
    2    8 O      2, 4, 6
    3    1 H      8-17

           -------------------------------------------------
          |                Calculation Setup                |
           -------------------------------------------------

          program call               : /srv/scratch/z5358697/.xtb/bin/xtb solv.coord --gfn2 --sp --chrg 0 --norestart --parallel 1 --alpb water reference -I xtb_sp-xcontrol-inp
          hostname                   : k063
          coordinate file            : solv.coord
          omp threads                :                     1


           -------------------------------------------------
          |                 G F N 2 - x T B                 |
           -------------------------------------------------

        Reference                      10.1021/acs.jctc.8b01176
      * Hamiltonian:
        H0-scaling (s, p, d)           1.850000    2.230000    2.230000
        zeta-weighting                 0.500000
      * Dispersion:
        s8                             2.700000
        a1                             0.520000
        a2                             5.000000
        s9                             5.000000
      * Repulsion:
        kExp                           1.500000    1.000000
        rExp                           1.000000
      * Coulomb:
        alpha                          2.000000
        third order                    shell-resolved
        anisotropic                    true
        a3                             3.000000
        a5                             4.000000
        cn-shift                       1.200000
        cn-exp                         4.000000
        max-rad                        5.000000

      * Solvation model:               ALPB
        Solvent                        water
        Parameter file                 internal GFN2-xTB/ALPB
        Dielectric constant                8.0200E+01
        Reference state                gsolv=reference [X=1]
        Free energy shift                  2.8945E-03 Eh       1.8164E+00 kcal/mol
        Temperature                        2.9815E+02 K
        Density                            1.0000E+00 kg/L
        Solvent mass                       1.8000E+01 g/mol
        Interaction kernel             P16
        Born radius scaling (c1)           1.4744E+00
        Born radii integrator          GBOBC
        Born offset                        0.0000E+00 a0       0.0000E+00 AA
        H-bond correction              true
        Ion screening                  false
        Surface tension                    1.0000E-05 Eh       1.5569E+01 dyn/cm
        Grid points                               974 per atom

          ...................................................
          :                      SETUP                      :
          :.................................................:
          :  # basis functions                  38          :
          :  # atomic orbitals                  38          :
          :  # shells                           24          :
          :  # electrons                        44          :
          :  max. iterations                   250          :
          :  Hamiltonian                  GFN2-xTB          :
          :  restarted?                      false          :
          :  GBSA solvation                   true          :
          :  PC potential                    false          :
          :  electronic temp.          300.0000000     K    :
          :  accuracy                    1.0000000          :
          :  -> integral cutoff          0.2500000E+02      :
          :  -> integral neglect         0.1000000E-07      :
          :  -> SCF convergence          0.1000000E-05 Eh   :
          :  -> wf. convergence          0.1000000E-03 e    :
          :  Broyden damping             0.4000000          :
          :  net charge                          0          :
          :  unpaired electrons                  0          :
          ...................................................

 iter      E             dE          RMSdq      gap      omega  full diag
   1    -26.0096456 -0.260096E+02  0.523E+00   11.61       0.0  T
   2    -26.0650526 -0.554070E-01  0.266E+00   11.20       1.0  T
   3    -26.0661494 -0.109677E-02  0.901E-01   11.30       1.0  T
   4    -26.0665536 -0.404226E-03  0.164E-01   11.37       1.0  T
   5    -26.0666015 -0.479139E-04  0.938E-02   11.38       1.0  T
   6    -26.0666081 -0.658205E-05  0.119E-02   11.39       2.0  T
   7    -26.0666084 -0.316154E-06  0.323E-03   11.39       7.5  T
   8    -26.0666085 -0.119729E-07  0.136E-03   11.39      17.9  T
   9    -26.0666085 -0.261074E-08  0.170E-04   11.39     142.5  T
  10    -26.0666085  0.171568E-09  0.160E-04   11.39     152.0  T

   *** convergence criteria satisfied after 10 iterations ***

         #    Occupation            Energy/Eh            Energy/eV
      -------------------------------------------------------------
         1        2.0000           -0.7393180             -20.1179
       ...           ...                  ...                  ...
        16        2.0000           -0.5003579             -13.6154
        17        2.0000           -0.4791299             -13.0378
        18        2.0000           -0.4706941             -12.8082
        19        2.0000           -0.4706840             -12.8080
        20        2.0000           -0.4324397             -11.7673
        21        2.0000           -0.4324166             -11.7667
        22        2.0000           -0.4277400             -11.6394 (HOMO)
        23                         -0.0090016              -0.2449 (LUMO)
        24                          0.0216390               0.5888
        25                          0.0216963               0.5904
        26                          0.0889109               2.4194
        27                          0.1312452               3.5714
       ...                                ...                  ...
        38                          0.2685843               7.3086
      -------------------------------------------------------------
                  HL-Gap            0.4187383 Eh           11.3945 eV
             Fermi-level           -0.2183708 Eh           -5.9422 eV

 SCC (total)                   0 d,  0 h,  0 min,  0.015 sec
 SCC setup                      ...        0 min,  0.003 sec ( 16.551%)
 Dispersion                     ...        0 min,  0.000 sec (  0.721%)
 classical contributions        ...        0 min,  0.000 sec (  0.190%)
 integral evaluation            ...        0 min,  0.002 sec ( 12.532%)
 iterations                     ...        0 min,  0.006 sec ( 41.167%)
 molecular gradient             ...        0 min,  0.004 sec ( 27.764%)
 printout                       ...        0 min,  0.000 sec (  0.944%)

         :::::::::::::::::::::::::::::::::::::::::::::::::::::
         ::                     SUMMARY                     ::
         :::::::::::::::::::::::::::::::::::::::::::::::::::::
         :: total energy             -25.855798722058 Eh    ::
         :: total w/o Gsasa/hb       -25.857293504752 Eh    ::
         :: gradient norm              0.000026271782 Eh/a0 ::
         :: HOMO-LUMO gap             11.394450168571 eV    ::
         ::.................................................::
         :: SCC energy               -26.066573570237 Eh    ::
         :: -> isotropic ES            0.074862636644 Eh    ::
         :: -> anisotropic ES         -0.008995137167 Eh    ::
         :: -> anisotropic XC         -0.000497468362 Eh    ::
         :: -> dispersion             -0.009245305541 Eh    ::
         :: -> Gsolv                  -0.009567999639 Eh    ::
         ::    -> Gelec               -0.011062782334 Eh    ::
         ::    -> Gsasa                0.000960956580 Eh    ::
         ::    -> Ghb                 -0.002360723046 Eh    ::
         ::    -> Gshift               0.002894549160 Eh    ::
         :: repulsion energy           0.210774848180 Eh    ::
         :: add. restraining           0.000000000000 Eh    ::
         :: total charge               0.000000000000 e     ::
         :::::::::::::::::::::::::::::::::::::::::::::::::::::

           -------------------------------------------------
          |                Property Printout                |
           -------------------------------------------------

    * Orbital Energies and Occupations

         #    Occupation            Energy/Eh            Energy/eV
      -------------------------------------------------------------
         1        2.0000           -0.7393180             -20.1179
       ...           ...                  ...                  ...
        10        2.0000           -0.5830328             -15.8651
        11        2.0000           -0.5439981             -14.8029
        12        2.0000           -0.5439919             -14.8028
        13        2.0000           -0.5271333             -14.3440
        14        2.0000           -0.5271211             -14.3437
        15        2.0000           -0.5255754             -14.3016
        16        2.0000           -0.5003579             -13.6154
        17        2.0000           -0.4791299             -13.0378
        18        2.0000           -0.4706941             -12.8082
        19        2.0000           -0.4706840             -12.8080
        20        2.0000           -0.4324397             -11.7673
        21        2.0000           -0.4324166             -11.7667
        22        2.0000           -0.4277400             -11.6394 (HOMO)
        23                         -0.0090016              -0.2449 (LUMO)
        24                          0.0216390               0.5888
        25                          0.0216963               0.5904
        26                          0.0889109               2.4194
        27                          0.1312452               3.5714
        28                          0.1312574               3.5717
        29                          0.1465289               3.9873
        30                          0.1509682               4.1081
        31                          0.1510066               4.1091
        32                          0.1647903               4.4842
        33                          0.2041190               5.5544
       ...                                ...                  ...
        38                          0.2685843               7.3086
      -------------------------------------------------------------
                  HL-Gap            0.4187383 Eh           11.3945 eV
             Fermi-level           -0.2183708 Eh           -5.9422 eV

     #   Z          covCN         q      C6AA      α(0)
     1   6 C        3.649     0.019    20.582     6.517
     2   8 O        1.701    -0.362    20.118     6.056
     3   6 C        3.557     0.405    15.505     5.747
     4   8 O        1.701    -0.362    20.117     6.056
     5   6 C        3.649     0.019    20.582     6.517
     6   8 O        1.701    -0.362    20.117     6.056
     7   6 C        3.649     0.019    20.582     6.517
     8   1 H        0.924     0.066     2.135     2.285
     9   1 H        0.924     0.056     2.249     2.345
    10   1 H        0.925     0.100     1.788     2.091
    11   1 H        0.918    -0.036     3.777     3.039
    12   1 H        0.924     0.066     2.135     2.285
    13   1 H        0.924     0.056     2.249     2.345
    14   1 H        0.925     0.100     1.788     2.091
    15   1 H        0.924     0.056     2.249     2.345
    16   1 H        0.925     0.100     1.788     2.091
    17   1 H        0.924     0.066     2.135     2.285

 Mol. C6AA /au·bohr⁶  :       2089.578388
 Mol. C8AA /au·bohr⁸  :      42394.432745
 Mol. α(0) /au        :         66.668580


Wiberg/Mayer (AO) data.
largest (>0.10) Wiberg bond orders for each atom

 ---------------------------------------------------------------------------
     #   Z sym  total        # sym  WBO       # sym  WBO       # sym  WBO
 ---------------------------------------------------------------------------
     1   6 C    3.911 --     8 H    0.980     9 H    0.978    10 H    0.976
                             2 O    0.952
     2   8 O    2.065 --     3 C    0.984     1 C    0.952
     3   6 C    3.926 --     4 O    0.984     6 O    0.984     2 O    0.984
                            11 H    0.920
     4   8 O    2.065 --     3 C    0.984     5 C    0.952
     5   6 C    3.911 --    12 H    0.980    13 H    0.978    14 H    0.976
                             4 O    0.952
     6   8 O    2.065 --     3 C    0.984     7 C    0.952
     7   6 C    3.911 --    17 H    0.980    15 H    0.978    16 H    0.976
                             6 O    0.952
     8   1 H    0.996 --     1 C    0.980
     9   1 H    0.997 --     1 C    0.978
    10   1 H    0.990 --     1 C    0.976
    11   1 H    0.999 --     3 C    0.920
    12   1 H    0.996 --     5 C    0.980
    13   1 H    0.997 --     5 C    0.978
    14   1 H    0.990 --     5 C    0.976
    15   1 H    0.997 --     7 C    0.978
    16   1 H    0.990 --     7 C    0.976
    17   1 H    0.996 --     7 C    0.980
 ---------------------------------------------------------------------------

Topologies differ in total number of bonds
Writing topology from bond orders to xtbtopo.mol

molecular dipole:
                 x           y           z       tot (Debye)
 q only:        0.072       0.044      -0.919
   full:        0.092       0.056      -1.178       3.008
molecular quadrupole (traceless):
                xx          xy          yy          xz          yz          zz
 q only:        3.142      -0.037       3.161       0.746       0.434      -6.303
  q+dip:        1.399      -0.018       1.404       0.333       0.191      -2.803
   full:        2.012      -0.025       2.022       0.479       0.276      -4.034


           -------------------------------------------------
          | TOTAL ENERGY              -25.855798722058 Eh   |
          | GRADIENT NORM               0.000026271782 Eh/α |
          | HOMO-LUMO GAP              11.394450168571 eV   |
           -------------------------------------------------

------------------------------------------------------------------------
 * finished run on 2025/04/11 at 15:55:28.745     
------------------------------------------------------------------------
 total:
 * wall-time:     0 d,  0 h,  0 min,  0.062 sec
 *  cpu-time:     0 d,  0 h,  0 min,  0.026 sec
 * ratio c/w:     0.422 speedup
 SCF:
 * wall-time:     0 d,  0 h,  0 min,  0.015 sec
 *  cpu-time:     0 d,  0 h,  0 min,  0.015 sec
 * ratio c/w:     0.990 speedup

