
                                 *****************
                                 * O   R   C   A *
                                 *****************

                                            #,                                       
                                            ###                                      
                                            ####                                     
                                            #####                                    
                                            ######                                   
                                           ########,                                 
                                     ,,################,,,,,                         
                               ,,#################################,,                 
                          ,,##########################################,,             
                       ,#########################################, ''#####,          
                    ,#############################################,,   '####,        
                  ,##################################################,,,,####,       
                ,###########''''           ''''###############################       
              ,#####''   ,,,,##########,,,,          '''####'''          '####       
            ,##' ,,,,###########################,,,                        '##       
           ' ,,###''''                  '''############,,,                           
         ,,##''                                '''############,,,,        ,,,,,,###''
      ,#''                                            '''#######################'''  
     '                                                          ''''####''''         
             ,#######,   #######,   ,#######,      ##                                
            ,#'     '#,  ##    ##  ,#'     '#,    #''#        ,####,   ,####,        
            ##       ##  ##   ,#'  ##            #'  '#       #'       #'  '#        
            ##       ##  #######   ##           ,######,      #####,   #    #        
            '#,     ,#'  ##    ##  '#,     ,#' ,#      #,     #,   #   #,  ,#        
             '#######'   ##     ##  '#######'  #'      '#     '####' # '####'        



                #########################################################
                #                        -***-                          #
                #          Department of theory and spectroscopy        #
                #                                                       #
                #                      Frank Neese                      #
                #                                                       #
                #     Directorship, Architecture, Infrastructure        #
                #                    SHARK, DRIVERS                     #
                #        Core code/Algorithms in most modules           #
                #                                                       #
                #        Max Planck Institute fuer Kohlenforschung      #
                #                Kaiser Wilhelm Platz 1                 #
                #                 D-45470 Muelheim/Ruhr                 #
                #                      Germany                          #
                #                                                       #
                #                  All rights reserved                  #
                #                        -***-                          #
                #########################################################


                         Program Version 6.0.0  -   RELEASE  -


 With contributions from (in alphabetic order):
   Daniel Aravena         : Magnetic Suceptibility
   Michael Atanasov       : Ab Initio Ligand Field Theory (pilot matlab implementation)
   Alexander A. Auer      : GIAO ZORA, VPT2 properties, NMR spectrum
   Ute Becker             : All parallelization in ORCA, NUMFREQ, NUMCALC
   Giovanni Bistoni       : ED, misc. LED, open-shell LED, HFLD
   Martin Brehm           : Molecular dynamics
   Dmytro Bykov           : pre 5.0 version of the SCF Hessian
   Marcos Casanova-Páez   : Triplet and SCS-CIS(D). UHF-(DLPNO)-IP/EA/STEOM-CCSD. UHF-CVS-IP/STEOM-CCSD
   Vijay G. Chilkuri      : MRCI spin determinant printing, contributions to CSF-ICE
   Pauline Colinet        : FMM embedding
   Dipayan Datta          : RHF DLPNO-CCSD density
   Achintya Kumar Dutta   : EOM-CC, STEOM-CC
   Nicolas Foglia         : Exact transition moments, OPA infrastructure, MCD improvements
   Dmitry Ganyushin       : Spin-Orbit,Spin-Spin,Magnetic field MRCI
   Miquel Garcia          : C-PCM and meta-GGA Hessian, CCSD/C-PCM, Gaussian charge scheme
   Tiago L. C. Gouveia    : GS-ROHF, GS-ROCIS
   Yang Guo               : DLPNO-NEVPT2, F12-NEVPT2, CIM, IAO-localization
   Andreas Hansen         : Spin unrestricted coupled pair/coupled cluster methods
   Ingolf Harden          : AUTO-CI MPn and infrastructure 
   Benjamin Helmich-Paris : MC-RPA, TRAH-(SCF,CASSCF), AVAS, COSX integrals, SCF dyn. polar.
   Lee Huntington         : MR-EOM, pCC
   Robert Izsak           : Overlap fitted RIJCOSX, COSX-SCS-MP3, EOM
   Riya Kayal             : Wick's Theorem for AUTO-CI, AUTO-CI UHF-CCSDT
   Emily Kempfer          : AUTO-CI, RHF CISDT and CCSDT
   Christian Kollmar      : KDIIS, OOCD, Brueckner-CCSD(T), CCSD density, CASPT2, CASPT2-K, improved NEVPT2
   Axel Koslowski         : Symmetry handling
   Simone Kossmann        : Meta GGA functionals, TD-DFT gradient, OOMP2, (MP2 Hessian; deprecated post 5.0)
   Lucas Lang             : DCDCAS
   Marvin Lechner         : AUTO-CI (C++ implementation), FIC-MRCC
   Spencer Leger          : CASSCF response
   Dagmar Lenk            : GEPOL surface, SMD, ORCA-2-JSON
   Dimitrios Liakos       : Extrapolation schemes; Compound Job, initial MDCI parallelization
   Dimitrios Manganas     : Further ROCIS development; embedding schemes. LFT, Crystal Embedding
   Dimitrios Pantazis     : SARC Basis sets
   Anastasios Papadopoulos: AUTO-CI, single reference methods and gradients
   Taras Petrenko         : pre 6.0 DFT Hessian and TD-DFT gradient, (ASA, deprecated), ECA, 1-Electron XAS/XES, NRVS
   Peter Pinski           : DLPNO-MP2, DLPNO-MP2 Gradient
   Christoph Reimann      : Effective Core Potentials
   Marius Retegan         : Local ZFS, SOC
   Christoph Riplinger    : Optimizer, TS searches, QM/MM, DLPNO-CCSD(T), (RO)-DLPNO pert. Triples
   Michael Roemelt        : Original ROCIS implementation
   Masaaki Saitow         : Open-shell DLPNO-CCSD energy and density
   Barbara Sandhoefer     : DKH picture change effects
   Kantharuban Sivalingam : CASSCF convergence/infrastructure, NEVPT2 and variants, FIC-MRCI
   Bernardo de Souza      : ESD, SOC TD-DFT
   Georgi Stoychev        : AutoAux, RI-MP2 NMR, DLPNO-MP2 response, X2C
   Van Anh Tran           : RI-MP2 g-tensors
   Willem Van den Heuvel  : Paramagnetic NMR
   Zikuan Wang            : NOTCH, Electric field optimization 
   Frank Wennmohs         : Technical directorship and infrastructure
   Hang Xu                : AUTO-CI-Response properties 


 We gratefully acknowledge several colleagues who have allowed us to
 interface, adapt or use parts of their codes:
   Stefan Grimme, W. Hujo, H. Kruse, P. Pracht,  : VdW corrections, initial TS optimization,
                  C. Bannwarth, S. Ehlert,         DFT functionals, gCP, sTDA/sTD-DF
                  L. Wittmann, M. Mueller
   Ed Valeev, F. Pavosevic, A. Kumar             : LibInt (2-el integral package), F12 methods
   Garnet Chan, S. Sharma, J. Yang, R. Olivares  : DMRG
   Ulf Ekstrom                                   : XCFun DFT Library
   Mihaly Kallay                                 : mrcc  (arbitrary order and MRCC methods)
   Frank Weinhold                                : gennbo (NPA and NBO analysis)
   Simon Mueller                                 : openCOSMO-RS
   Christopher J. Cramer and Donald G. Truhlar   : smd solvation model
   Lars Goerigk                                  : TD-DFT with DH, B97 family of functionals
   V. Asgeirsson, H. Jonsson                     : NEB implementation
   FAccTs GmbH                                   : IRC, NEB, NEB-TS, DLPNO-Multilevel, CI-OPT
                                                   MM, QMMM, 2- and 3-layer-ONIOM, Crystal-QMMM,
                                                   LR-CPCM, SF, NACMEs, symmetry and pop. for TD-DFT,
                                                   nearIR, NL-DFT gradient (VV10), updates on ESD,
                                                   ML-optimized integration grids, MBIS, APM,
                                                   GOAT, DOCKER, SOLVATOR, interface openCOSMO-RS
   S Lehtola, MJT Oliveira, MAL Marques          : LibXC Library
   Liviu Ungur et al                             : ANISO software


 Your calculation uses the libint2 library for the computation of 2-el integrals
 For citations please refer to: http://libint.valeyev.net

 Your ORCA version has been built with support for libXC version: 6.2.2
 For citations please refer to: https://libxc.gitlab.io

 This ORCA versions uses:
   CBLAS   interface :  Fast vector & matrix operations
   LAPACKE interface :  Fast linear algebra routines
   SCALAPACK package :  Parallel linear algebra routines
   Shared memory     :  Shared parallel matrices
   BLAS/LAPACK       :  OpenBLAS 0.3.27  USE64BITINT DYNAMIC_ARCH NO_AFFINITY SkylakeX SINGLE_THREADED
        Core in use  :  SkylakeX
   Copyright (c) 2011-2014, The OpenBLAS Project


Your calculation utilizes the geometrical counterpoise correction gCP
Please cite in your paper:
H.Kruse, S. Grimme J.Chem.Phys., 136, (2012), 154101 
   

Your calculation utilizes the atom-pairwise dispersion correction
based on EEQ partial charges (D4)


================================================================================

----- Orbital basis set information -----
Your calculation utilizes the basis: def2-SV(P)
   F. Weigend and R. Ahlrichs, Phys. Chem. Chem. Phys. 7, 3297 (2005).

----- AuxJ basis set information -----
Your calculation utilizes the auxiliary basis: def2/J
   F. Weigend, Phys. Chem. Chem. Phys. 8, 1057 (2006).

================================================================================
                                        WARNINGS
                       Please study these warnings very carefully!
================================================================================


================================================================================
                                       INPUT FILE
================================================================================
NAME = sp.inp
|  1> ! pbe def2-sv(p) def2/J RI DEFGRID1 loosescf d4 GCP(DFT/SV(P)) printgap
|  2> %output
|  3>     printlevel normal
|  4> end
|  5> * xyz 0 1
|  6> C 2.2389173761 0.6335105383 -1.0672131241
|  7> C 1.3867693905 -0.3567560551 -0.2906264182
|  8> C 2.1978482281 -1.1359174265 0.7318817188
|  9> S 0.0236129967 0.5518295265 0.5705710391
| 10> C -1.4653834379 -0.3504088974 -0.0479798958
| 11> C -2.6049436864 -0.0929811464 0.924244303
| 12> C -1.807613939 0.1012233399 -1.4577582541
| 13> H 1.6292712832 1.1890110597 -1.7758728935
| 14> H 2.70332318 1.3421234979 -0.3852851754
| 15> H 3.0193226321 0.1059236251 -1.6112782901
| 16> H 0.8889785339 -1.04381871 -0.9781521951
| 17> H 1.5591075481 -1.8198091357 1.2862538514
| 18> H 2.6633265214 -0.4522329714 1.4381252959
| 19> H 2.9757981442 -1.7092118796 0.2321872097
| 20> H -1.1955140655 -1.4099401729 -0.0349463541
| 21> H -2.8360668385 0.9692767123 0.9563753289
| 22> H -3.4915208833 -0.6371285761 0.6074050891
| 23> H -2.3308719421 -0.4151840195 1.9257781324
| 24> H -2.6720081205 -0.4489018948 -1.8235729661
| 25> H -0.9757439792 -0.0707756973 -2.1375701357
| 26> H -2.0401516775 1.1637555465 -1.4595476011
| 27> *
| 28> 
| 29>                          ****END OF INPUT****
================================================================================

                       ****************************
                       * Single Point Calculation *
                       ****************************

---------------------------------
CARTESIAN COORDINATES (ANGSTROEM)
---------------------------------
  C      2.238917    0.633511   -1.067213
  C      1.386769   -0.356756   -0.290626
  C      2.197848   -1.135917    0.731882
  S      0.023613    0.551830    0.570571
  C     -1.465383   -0.350409   -0.047980
  C     -2.604944   -0.092981    0.924244
  C     -1.807614    0.101223   -1.457758
  H      1.629271    1.189011   -1.775873
  H      2.703323    1.342123   -0.385285
  H      3.019323    0.105924   -1.611278
  H      0.888979   -1.043819   -0.978152
  H      1.559108   -1.819809    1.286254
  H      2.663327   -0.452233    1.438125
  H      2.975798   -1.709212    0.232187
  H     -1.195514   -1.409940   -0.034946
  H     -2.836067    0.969277    0.956375
  H     -3.491521   -0.637129    0.607405
  H     -2.330872   -0.415184    1.925778
  H     -2.672008   -0.448902   -1.823573
  H     -0.975744   -0.070776   -2.137570
  H     -2.040152    1.163756   -1.459548

----------------------------
CARTESIAN COORDINATES (A.U.)
----------------------------
  NO LB      ZA    FRAG     MASS         X           Y           Z
   0 C     6.0000    0    12.011    4.230941    1.197161   -2.016741
   1 C     6.0000    0    12.011    2.620614   -0.674171   -0.549204
   2 C     6.0000    0    12.011    4.153331   -2.146573    1.383056
   3 S    16.0000    0    32.060    0.044622    1.042807    1.078223
   4 C     6.0000    0    12.011   -2.769173   -0.662177   -0.090669
   5 C     6.0000    0    12.011   -4.922630   -0.175709    1.746569
   6 C     6.0000    0    12.011   -3.415895    0.191284   -2.754764
   7 H     1.0000    0     1.008    3.078877    2.246905   -3.355913
   8 H     1.0000    0     1.008    5.108540    2.536246   -0.728083
   9 H     1.0000    0     1.008    5.705693    0.200167   -3.044875
  10 H     1.0000    0     1.008    1.679926   -1.972531   -1.848440
  11 H     1.0000    0     1.008    2.946286   -3.438941    2.430668
  12 H     1.0000    0     1.008    5.032958   -0.854596    2.717663
  13 H     1.0000    0     1.008    5.623444   -3.229942    0.438770
  14 H     1.0000    0     1.008   -2.259194   -2.664401   -0.066039
  15 H     1.0000    0     1.008   -5.359390    1.831668    1.807287
  16 H     1.0000    0     1.008   -6.598018   -1.203999    1.147829
  17 H     1.0000    0     1.008   -4.404710   -0.784584    3.639193
  18 H     1.0000    0     1.008   -5.049364   -0.848302   -3.446053
  19 H     1.0000    0     1.008   -1.843889   -0.133747   -4.039422
  20 H     1.0000    0     1.008   -3.855328    2.199179   -2.758145

--------------------------------
INTERNAL COORDINATES (ANGSTROEM)
--------------------------------
 C      0   0   0     0.000000000000     0.00000000     0.00000000
 C      1   0   0     1.519825985811     0.00000000     0.00000000
 C      2   1   0     1.520021122786   112.24310633     0.00000000
 S      2   1   3     1.850779342199   109.32097848   121.53877865
 C      4   2   1     1.847633571593   101.42355712   125.21846795
 C      5   4   2     1.519896871396   107.90100901   159.23310574
 C      5   4   2     1.519397384881   110.30371920   281.84206709
 H      1   2   3     1.087404182735   110.57941814   181.12198187
 H      1   2   3     1.087580251948   110.09393471   300.84709834
 H      1   2   3     1.087836025983   109.98575072    60.80139555
 H      2   1   3     1.092035952968   110.10991501   236.92012192
 H      3   2   1     1.087669981016   110.59813910   178.76419996
 H      3   2   1     1.087600324510   110.05753102    59.01735101
 H      3   2   1     1.087918748961   110.04207794   299.03395979
 H      5   4   2     1.093437641172   105.68134873    41.62158408
 H      6   5   4     1.087585432337   110.09986759    61.87829833
 H      6   5   4     1.087429371857   109.88591891   181.83628731
 H      6   5   4     1.087198244981   110.49101572   302.15781325
 H      7   5   4     1.087950126789   109.91578901   178.80099229
 H      7   5   4     1.087996090609   111.13352620    58.66646144
 H      7   5   4     1.087681797058   109.88007364   298.59911758

---------------------------
INTERNAL COORDINATES (A.U.)
---------------------------
 C      0   0   0     0.000000000000     0.00000000     0.00000000
 C      1   0   0     2.872054884400     0.00000000     0.00000000
 C      2   1   0     2.872423639841   112.24310633     0.00000000
 S      2   1   3     3.497466091074   109.32097848   121.53877865
 C      4   2   1     3.491521446150   101.42355712   125.21846795
 C      5   4   2     2.872188838742   107.90100901   159.23310574
 C      5   4   2     2.871244946021   110.30371920   281.84206709
 H      1   2   3     2.054896102250   110.57941814   181.12198187
 H      1   2   3     2.055228824843   110.09393471   300.84709834
 H      1   2   3     2.055712167722   109.98575072    60.80139555
 H      2   1   3     2.063648879505   110.10991501   236.92012192
 H      3   2   1     2.055398388207   110.59813910   178.76419996
 H      3   2   1     2.055266756487   110.05753102    59.01735101
 H      3   2   1     2.055868491494   110.04207794   299.03395979
 H      5   4   2     2.066297686336   105.68134873    41.62158408
 H      6   5   4     2.055238614360   110.09986759    61.87829833
 H      6   5   4     2.054943702791   109.88591891   181.83628731
 H      6   5   4     2.054506936294   110.49101572   302.15781325
 H      7   5   4     2.055927786996   109.91578901   178.80099229
 H      7   5   4     2.056014646027   111.13352620    58.66646144
 H      7   5   4     2.055420717291   109.88007364   298.59911758

---------------------
BASIS SET INFORMATION
---------------------
There are 3 groups of distinct atoms

 Group   1 Type C   : 7s4p1d contracted to 3s2p1d pattern {511/31/1}
 Group   2 Type S   : 10s7p1d contracted to 4s3p1d pattern {5311/511/1}
 Group   3 Type H   : 4s contracted to 2s pattern {31}

Atom   0C    basis set group =>   1
Atom   1C    basis set group =>   1
Atom   2C    basis set group =>   1
Atom   3S    basis set group =>   2
Atom   4C    basis set group =>   1
Atom   5C    basis set group =>   1
Atom   6C    basis set group =>   1
Atom   7H    basis set group =>   3
Atom   8H    basis set group =>   3
Atom   9H    basis set group =>   3
Atom  10H    basis set group =>   3
Atom  11H    basis set group =>   3
Atom  12H    basis set group =>   3
Atom  13H    basis set group =>   3
Atom  14H    basis set group =>   3
Atom  15H    basis set group =>   3
Atom  16H    basis set group =>   3
Atom  17H    basis set group =>   3
Atom  18H    basis set group =>   3
Atom  19H    basis set group =>   3
Atom  20H    basis set group =>   3
---------------------------------
AUXILIARY/J BASIS SET INFORMATION
---------------------------------
There are 3 groups of distinct atoms

 Group   1 Type C   : 12s5p4d2f1g contracted to 6s4p3d1f1g pattern {711111/2111/211/2/1}
 Group   2 Type S   : 14s5p5d2f1g contracted to 8s4p3d1f1g pattern {71111111/2111/311/2/1}
 Group   3 Type H   : 5s2p1d contracted to 3s1p1d pattern {311/2/1}

Atom   0C    basis set group =>   1
Atom   1C    basis set group =>   1
Atom   2C    basis set group =>   1
Atom   3S    basis set group =>   2
Atom   4C    basis set group =>   1
Atom   5C    basis set group =>   1
Atom   6C    basis set group =>   1
Atom   7H    basis set group =>   3
Atom   8H    basis set group =>   3
Atom   9H    basis set group =>   3
Atom  10H    basis set group =>   3
Atom  11H    basis set group =>   3
Atom  12H    basis set group =>   3
Atom  13H    basis set group =>   3
Atom  14H    basis set group =>   3
Atom  15H    basis set group =>   3
Atom  16H    basis set group =>   3
Atom  17H    basis set group =>   3
Atom  18H    basis set group =>   3
Atom  19H    basis set group =>   3
Atom  20H    basis set group =>   3
------------------------------------------------------------------------------
                             ORCA STARTUP CALCULATIONS
                           -- RI-GTO INTEGRALS CHOSEN --
------------------------------------------------------------------------------
------------------------------------------------------------------------------
                   ___                                                        
                  /   \      - P O W E R E D   B Y -                         
                 /     \                                                     
                 |  |  |   _    _      __       _____    __    __             
                 |  |  |  | |  | |    /  \     |  _  \  |  |  /  |          
                  \  \/   | |  | |   /    \    | | | |  |  | /  /          
                 / \  \   | |__| |  /  /\  \   | |_| |  |  |/  /          
                |  |  |   |  __  | /  /__\  \  |    /   |      \           
                |  |  |   | |  | | |   __   |  |    \   |  |\   \          
                \     /   | |  | | |  |  |  |  | |\  \  |  | \   \       
                 \___/    |_|  |_| |__|  |__|  |_| \__\ |__|  \__/        
                                                                              
                      - O R C A' S   B I G   F R I E N D -                    
                                      &                                       
                       - I N T E G R A L  F E E D E R -                       
                                                                              
 v1 FN, 2020, v2 2021, v3 2022-2024                                           
------------------------------------------------------------------------------


----------------------
SHARK INTEGRAL PACKAGE
----------------------

Number of atoms                             ...     21
Number of basis functions                   ...    130
Number of shells                            ...     72
Maximum angular momentum                    ...      2
Integral batch strategy                     ... SHARK/LIBINT Hybrid
RI-J (if used) integral strategy            ... SPLIT-RIJ (Revised 2003 algorithm where possible)
Printlevel                                  ...      1
Contraction scheme used                     ... SEGMENTED contraction
Prescreening option                         ... SCHWARTZ
   Thresh                                   ... 1.000e-09
   Tcut                                     ... 1.000e-10
   Tpresel                                  ... 1.000e-10 
Coulomb Range Separation                    ... NOT USED
Exchange Range Separation                   ... NOT USED
Multipole approximations                    ... NOT USED
Finite Nucleus Model                        ... NOT USED
CABS basis                                  ... NOT available
Auxiliary Coulomb fitting basis             ... AVAILABLE
   # of basis functions in Aux-J            ...    499
   # of shells in Aux-J                     ...    177
   Maximum angular momentum in Aux-J        ...      4
Auxiliary J/K fitting basis                 ... NOT available
Auxiliary Correlation fitting basis         ... NOT available
Auxiliary 'external' fitting basis          ... NOT available

Checking pre-screening integrals            ... done (  0.0 sec) Dimension = 72
Check shell pair data                       ... done (  0.0 sec)
Shell pair information
Shell pair cut-off parameter TPreSel        ...   1.0e-10
Total number of shell pairs                 ...      2628
Shell pairs after pre-screening             ...      2462
Total number of primitive shell pairs       ...     10874
Primitive shell pairs kept                  ...      7081
          la=0 lb=0:   1181 shell pairs
          la=1 lb=0:    719 shell pairs
          la=1 lb=1:    119 shell pairs
          la=2 lb=0:    317 shell pairs
          la=2 lb=1:    101 shell pairs
          la=2 lb=2:     25 shell pairs

Calculating one electron integrals          ... done (  0.0 sec)
Calculating RI/J V-Matrix + Cholesky decomp.... done (  0.1 sec)
Calculating Nuclear repulsion               ... done (  0.0 sec) ENN=    397.805738551594 Eh

Diagonalization of the overlap matrix:
Smallest eigenvalue                        ... 2.543e-03
Time for diagonalization                   ...    0.002 sec
Threshold for overlap eigenvalues          ... 1.000e-07
Number of eigenvalues below threshold      ... 0
Time for construction of square roots      ...    0.019 sec
Total time needed                          ...    0.032 sec

-------------------
DFT GRID GENERATION
-------------------

General Integration Accuracy     IntAcc      ... 4.159
Radial Grid Type                 RadialGrid  ... OptM3 with GC (2021)
Angular Grid (max. ang.)         AngularGrid ... 3 (Lebedev-194)
Angular grid pruning method      GridPruning ... 4 (adaptive)
Weight generation scheme         WeightScheme... mBecke (2022)
Basis function cutoff            BFCut       ... 1.0000e-10
Integration weight cutoff        WCut        ... 1.0000e-14
Partially contracted basis set               ... off
Rotationally invariant grid construction     ... off
Angular grids for H and He will be reduced by one unit

Total number of grid points                  ...    43314
Total number of batches                      ...      686
Average number of points per batch           ...       63
Average number of grid points per atom       ...     2063
Initializing property integral containers    ... done (  0.0 sec)

SHARK setup successfully completed in   0.7 seconds

Maximum memory used throughout the entire STARTUP-calculation: 21.6 MB
-------------------------------------------------------------------------------
                                 ORCA GUESS
                   Start orbitals & Density for SCF / CASSCF
-------------------------------------------------------------------------------

------------
SCF SETTINGS
------------
Hamiltonian:
 Density Functional     Method          .... DFT(GTOs)
 Exchange Functional    Exchange        .... PBE
   PBE kappa parameter   XKappa         ....  0.804000
   PBE mue parameter    XMuePBE         ....  0.219520
 Correlation Functional Correlation     .... PBE
   PBE beta parameter  CBetaPBE         ....  0.066725
 LDA part of GGA corr.  LDAOpt          .... PW91-LDA
 Gradients option       PostSCFGGA      .... off
   NL short-range parameter             ....  6.400000
 RI-approximation to the Coulomb term is turned on
   Number of AuxJ basis functions       .... 499


General Settings:
 Integral files         IntName         .... sp
 Hartree-Fock type      HFTyp           .... RHF
 Total Charge           Charge          ....    0
 Multiplicity           Mult            ....    1
 Number of Electrons    NEL             ....   66
 Basis Dimension        Dim             ....  130
 Nuclear Repulsion      ENuc            ....    397.8057385516 Eh

Convergence Acceleration:
 AO-DIIS                CNVDIIS         .... on
   Start iteration      DIISMaxIt       ....    12
   Startup error        DIISStart       ....  0.200000
   # of expansion vecs  DIISMaxEq       ....     5
   Bias factor          DIISBfac        ....   1.050
   Max. coefficient     DIISMaxC        ....  10.000
 MO-DIIS                CNVKDIIS        .... off
 Trust-Rad. Augm. Hess. CNVTRAH         .... auto
   Auto Start mean grad. ratio tolernc. ....  1.125000
   Auto Start start iteration           ....    50
   Auto Start num. interpolation iter.  ....    10
   Max. Number of Micro iterations      ....    24
   Max. Number of Macro iterations      .... Maxiter - #DIIS iter
   Number of Davidson start vectors     ....     2
   Converg. threshold    (grad. norm)   ....   1.000e-04
   Grad. Scal. Fac. for Micro threshold ....   0.100
   Minimum threshold for Micro iter.    ....   1.000e-02
   NR start threshold (gradient norm)   ....   1.000e-04
   Initial trust radius                 ....   0.400
   Minimum AH scaling param. (alpha)    ....   1.000
   Maximum AH scaling param. (alpha)    .... 1000.000
   Quad. conv. algorithm                .... NR
   White noise on init. David. guess    .... on
   Maximum white noise                  ....   0.010
   Pseudo random numbers                .... off
   Inactive MOs                         .... canonical
   Orbital update algorithm             .... Taylor
   Preconditioner                       .... Diag
   Full preconditioner red. dimension   ....   250
 SOSCF                  CNVSOSCF        .... on
   Start iteration      SOSCFMaxIt      ....   150
   Startup grad/error   SOSCFStart      ....  0.003300
   Hessian update       SOSCFHessUp     .... L-BFGS
 Level Shifting         CNVShift        .... on
   Level shift para.    LevelShift      ....    0.2500
   Turn off err/grad.   ShiftErr        ....    0.0010
 Zerner damping         CNVZerner       .... off
 Static damping         CNVDamp         .... on
   Fraction old density DampFac         ....    0.7000
   Max. Damping (<1)    DampMax         ....    0.9800
   Min. Damping (>=0)   DampMin         ....    0.0000
   Turn off err/grad.   DampErr         ....    0.1000

SCF Procedure:
 Maximum # iterations   MaxIter         ....   125
 SCF integral mode      SCFMode         .... Direct
   Integral package                     .... SHARK and LIBINT hybrid scheme
 Reset frequency        DirectResetFreq ....    20
 Integral Threshold     Thresh          ....  1.000e-09 Eh
 Primitive CutOff       TCut            ....  1.000e-10 Eh

Convergence Tolerance:
 Convergence Check Mode ConvCheckMode   .... Total+1el-Energy
 Convergence forced     ConvForced      .... 0
 Energy Change          TolE            ....  1.000e-05 Eh
 1-El. energy change                    ....  1.000e-02 Eh
 Orbital Gradient       TolG            ....  1.000e-04
 Orbital Rotation angle TolX            ....  1.000e-04
 DIIS Error             TolErr          ....  5.000e-04

------------------------------
INITIAL GUESS: MODEL POTENTIAL
------------------------------
Loading Hartree-Fock densities                     ... done
Calculating cut-offs                               ... done
Initializing the effective Hamiltonian             ... done
Setting up the integral package (SHARK)            ... done
Starting the Coulomb interaction                   ... done (   0.1 sec)
Making the grid                                    ... done (   0.2 sec)
Mapping shells                                     ... done
Starting the XC term evaluation                    ... done (   0.1 sec)
  promolecular density results
     # of electrons  =     65.995213619
     EX              =    -59.718968091
     EC              =     -2.239467463
     EX+EC           =    -61.958435554
Transforming the Hamiltonian                       ... done (   0.0 sec)
Diagonalizing the Hamiltonian                      ... done (   0.0 sec)
Back transforming the eigenvectors                 ... done (   0.0 sec)
Now organizing SCF variables                       ... done
                      ------------------
                      INITIAL GUESS DONE (   0.5 sec)
                      ------------------
             **** ENERGY FILE WAS UPDATED (sp.en.tmp) ****
Finished Guess after   0.7 sec
Maximum memory used throughout the entire GUESS-calculation: 15.6 MB

-------------------------------------------------------------------------------------------
                                      ORCA LEAN-SCF
                              memory conserving SCF solver
-------------------------------------------------------------------------------------------

----------------------------------------D-I-I-S--------------------------------------------
Iteration    Energy (Eh)           Delta-E    RMSDP     MaxDP     DIISErr   Damp  Time(sec)
-------------------------------------------------------------------------------------------
               ***  Starting incremental Fock matrix formation  ***
    1    -634.2031601784146915     0.00e+00  4.20e-03  8.46e-02  1.58e-01  0.700   0.8
    2    -634.3084108378768633    -1.05e-01  3.00e-03  4.84e-02  7.46e-02  0.700   0.9
                               ***Turning on AO-DIIS***
    3    -634.3443721319160886    -3.60e-02  1.29e-03  2.10e-02  2.05e-02  0.700   0.9
    4    -634.3652720717991542    -2.09e-02  2.03e-03  3.45e-02  8.66e-03  0.000   0.8
    5    -634.4130717192228985    -4.78e-02  5.21e-04  8.72e-03  7.92e-03  0.000   0.8
                              *** Initializing SOSCF ***
---------------------------------------S-O-S-C-F--------------------------------------
Iteration    Energy (Eh)           Delta-E    RMSDP     MaxDP     MaxGrad    Time(sec)
--------------------------------------------------------------------------------------
    6    -634.4136984544331881    -6.27e-04  1.85e-04  1.94e-03  1.94e-03     0.8
               *** Restarting incremental Fock matrix formation ***
    7    -634.4137474677427235    -4.90e-05  1.46e-04  2.19e-03  2.76e-04     0.8
    8    -634.4137461934897146     1.27e-06  5.40e-05  1.21e-03  2.74e-04     0.7
                 **** Energy Check signals convergence ****

               *****************************************************
               *                     SUCCESS                       *
               *           SCF CONVERGED AFTER   8 CYCLES          *
               *****************************************************

             **** ENERGY FILE WAS UPDATED (sp.en.tmp) ****

----------------
TOTAL SCF ENERGY
----------------

Total Energy       :       -634.41374619348971 Eh          -17263.27568 eV

Components:
Nuclear Repulsion  :        397.80573855159355 Eh           10824.84447 eV
Electronic Energy  :      -1032.21948474508326 Eh          -28088.12015 eV
One Electron Energy:      -1657.04583502998366 Eh          -45090.50953 eV
Two Electron Energy:        624.82635028490040 Eh           17002.38938 eV

Virial components:
Potential Energy   :      -1265.68295026866281 Eh          -34440.98402 eV
Kinetic Energy     :        631.26920407517321 Eh           17177.70834 eV
Virial Ratio       :          2.00498130131807

DFT components:
N(Alpha)           :       33.000314174289 electrons
N(Beta)            :       33.000314174289 electrons
N(Total)           :       66.000628348577 electrons
E(X)               :      -60.703190415551 Eh       
E(C)               :       -2.250938110519 Eh       
E(XC)              :      -62.954128526070 Eh       

---------------
SCF CONVERGENCE
---------------

  Last Energy change         ...   -1.2743e-06  Tolerance :   1.0000e-05
  Last MAX-Density change    ...    1.2142e-03  Tolerance :   1.0000e-03
  Last RMS-Density change    ...    5.4042e-05  Tolerance :   1.0000e-04
  Last DIIS Error            ...    1.9375e-03  Tolerance :   5.0000e-04
  Last Orbital Gradient      ...    2.7418e-04  Tolerance :   1.0000e-04
  Last Orbital Rotation      ...    3.6117e-04  Tolerance :   1.0000e-04


----------------
ORBITAL ENERGIES
----------------

  NO   OCC          E(Eh)            E(eV) 
   0   2.0000     -88.002027     -2394.6569 
   1   2.0000      -9.922588      -270.0073 
   2   2.0000      -9.921406      -269.9752 
   3   2.0000      -9.879334      -268.8304 
   4   2.0000      -9.877714      -268.7863 
   5   2.0000      -9.876938      -268.7651 
   6   2.0000      -9.876363      -268.7495 
   7   2.0000      -7.645978      -208.0576 
   8   2.0000      -5.674484      -154.4106 
   9   2.0000      -5.670815      -154.3107 
  10   2.0000      -5.662256      -154.0778 
  11   2.0000      -0.748305       -20.3624 
  12   2.0000      -0.713816       -19.4239 
  13   2.0000      -0.617790       -16.8109 
  14   2.0000      -0.615309       -16.7434 
  15   2.0000      -0.613549       -16.6955 
  16   2.0000      -0.515389       -14.0244 
  17   2.0000      -0.494476       -13.4554 
  18   2.0000      -0.427394       -11.6300 
  19   2.0000      -0.412879       -11.2350 
  20   2.0000      -0.392353       -10.6765 
  21   2.0000      -0.374527       -10.1914 
  22   2.0000      -0.367172        -9.9913 
  23   2.0000      -0.362653        -9.8683 
  24   2.0000      -0.344821        -9.3831 
  25   2.0000      -0.343576        -9.3492 
  26   2.0000      -0.314601        -8.5607 
  27   2.0000      -0.308402        -8.3921 
  28   2.0000      -0.304427        -8.2839 
  29   2.0000      -0.301558        -8.2058 
  30   2.0000      -0.280673        -7.6375 
  31   2.0000      -0.253263        -6.8916 
  32   2.0000      -0.174214        -4.7406 
  33   0.0000       0.011241         0.3059 
  34   0.0000       0.027691         0.7535 
  35   0.0000       0.043110         1.1731 
  36   0.0000       0.068147         1.8544 
  37   0.0000       0.069335         1.8867 
  38   0.0000       0.074228         2.0198 
  39   0.0000       0.097708         2.6588 
  40   0.0000       0.102371         2.7857 
  41   0.0000       0.109457         2.9785 
  42   0.0000       0.117127         3.1872 
  43   0.0000       0.121418         3.3040 
*Only the first 10 virtual orbitals were printed.

                    ********************************
                    * MULLIKEN POPULATION ANALYSIS *
                    ********************************

-----------------------
MULLIKEN ATOMIC CHARGES
-----------------------
   0 C :   -0.209677
   1 C :   -0.304531
   2 C :   -0.196642
   3 S :   -0.043582
   4 C :   -0.305769
   5 C :   -0.226176
   6 C :   -0.200982
   7 H :    0.108445
   8 H :    0.105085
   9 H :    0.100365
  10 H :    0.115304
  11 H :    0.103435
  12 H :    0.103768
  13 H :    0.098433
  14 H :    0.115960
  15 H :    0.108424
  16 H :    0.107295
  17 H :    0.112600
  18 H :    0.097153
  19 H :    0.108205
  20 H :    0.102887
Sum of atomic charges:   -0.0000000

--------------------------------
MULLIKEN REDUCED ORBITAL CHARGES
--------------------------------
  0 C s       :     3.071653  s :     3.071653
      pz      :     1.040254  p :     3.109035
      px      :     1.031003
      py      :     1.037778
      dz2     :     0.001770  d :     0.028989
      dxz     :     0.008138
      dyz     :     0.008591
      dx2y2   :     0.002561
      dxy     :     0.007929

  1 C s       :     3.199505  s :     3.199505
      pz      :     1.041195  p :     3.059389
      px      :     0.980710
      py      :     1.037484
      dz2     :     0.006002  d :     0.045637
      dxz     :     0.011396
      dyz     :     0.010779
      dx2y2   :     0.005915
      dxy     :     0.011545

  2 C s       :     3.063951  s :     3.063951
      pz      :     1.037012  p :     3.103671
      px      :     1.029092
      py      :     1.037566
      dz2     :     0.002405  d :     0.029020
      dxz     :     0.007782
      dyz     :     0.008520
      dx2y2   :     0.001847
      dxy     :     0.008466

  3 S s       :     5.896854  s :     5.896854
      pz      :     3.628932  p :    10.072877
      px      :     2.940192
      py      :     3.503753
      dz2     :     0.007976  d :     0.073851
      dxz     :     0.019514
      dyz     :     0.009662
      dx2y2   :     0.012524
      dxy     :     0.024174

  4 C s       :     3.192283  s :     3.192283
      pz      :     1.041933  p :     3.067328
      px      :     0.975708
      py      :     1.049687
      dz2     :     0.011753  d :     0.046158
      dxz     :     0.011186
      dyz     :     0.005668
      dx2y2   :     0.009475
      dxy     :     0.008075

  5 C s       :     3.076945  s :     3.076945
      pz      :     1.042162  p :     3.120382
      px      :     1.008991
      py      :     1.069229
      dz2     :     0.008544  d :     0.028849
      dxz     :     0.005150
      dyz     :     0.002824
      dx2y2   :     0.006463
      dxy     :     0.005868

  6 C s       :     3.062706  s :     3.062706
      pz      :     0.992651  p :     3.109260
      px      :     1.049371
      py      :     1.067238
      dz2     :     0.006063  d :     0.029016
      dxz     :     0.008621
      dyz     :     0.003580
      dx2y2   :     0.006180
      dxy     :     0.004571

  7 H s       :     0.891555  s :     0.891555

  8 H s       :     0.894915  s :     0.894915

  9 H s       :     0.899635  s :     0.899635

 10 H s       :     0.884696  s :     0.884696

 11 H s       :     0.896565  s :     0.896565

 12 H s       :     0.896232  s :     0.896232

 13 H s       :     0.901567  s :     0.901567

 14 H s       :     0.884040  s :     0.884040

 15 H s       :     0.891576  s :     0.891576

 16 H s       :     0.892705  s :     0.892705

 17 H s       :     0.887400  s :     0.887400

 18 H s       :     0.902847  s :     0.902847

 19 H s       :     0.891795  s :     0.891795

 20 H s       :     0.897113  s :     0.897113


------------------------
MULLIKEN OVERLAP CHARGES
------------------------
B(  0-C ,  1-C ) :   0.8199 B(  0-C ,  2-C ) :  -0.1597 B(  0-C ,  3-S ) :  -0.1555 
B(  0-C ,  7-H ) :   0.7180 B(  0-C ,  8-H ) :   0.7528 B(  0-C ,  9-H ) :   0.7047 
B(  0-C , 10-H ) :  -0.0508 B(  1-C ,  2-C ) :   0.8213 B(  1-C ,  3-S ) :   0.5271 
B(  1-C ,  8-H ) :  -0.0522 B(  1-C , 10-H ) :   0.6813 B(  1-C , 12-H ) :  -0.0511 
B(  2-C ,  3-S ) :  -0.1672 B(  2-C , 10-H ) :  -0.0585 B(  2-C , 11-H ) :   0.7141 
B(  2-C , 12-H ) :   0.7472 B(  2-C , 13-H ) :   0.6911 B(  3-S ,  4-C ) :   0.5691 
B(  3-S ,  5-C ) :  -0.1460 B(  3-S ,  6-C ) :  -0.1790 B(  3-S , 10-H ) :  -0.0615 
B(  3-S , 14-H ) :  -0.0705 B(  4-C ,  5-C ) :   0.8338 B(  4-C ,  6-C ) :   0.7603 
B(  4-C , 14-H ) :   0.6975 B(  5-C ,  6-C ) :  -0.1269 B(  5-C , 14-H ) :  -0.0503 
B(  5-C , 15-H ) :   0.7506 B(  5-C , 16-H ) :   0.7354 B(  5-C , 17-H ) :   0.7251 
B(  6-C , 14-H ) :  -0.0816 B(  6-C , 18-H ) :   0.6674 B(  6-C , 19-H ) :   0.7390 
B(  6-C , 20-H ) :   0.7232 B( 15-H , 17-H ) :  -0.0503 


                     *******************************
                     * LOEWDIN POPULATION ANALYSIS *
                     *******************************

----------------------
LOEWDIN ATOMIC CHARGES
----------------------
   0 C :   -0.345514
   1 C :   -0.246036
   2 C :   -0.345443
   3 S :    0.200184
   4 C :   -0.245189
   5 C :   -0.345799
   6 C :   -0.348151
   7 H :    0.119774
   8 H :    0.120845
   9 H :    0.118977
  10 H :    0.118992
  11 H :    0.118969
  12 H :    0.120423
  13 H :    0.117569
  14 H :    0.116958
  15 H :    0.121973
  16 H :    0.123373
  17 H :    0.122255
  18 H :    0.117672
  19 H :    0.117182
  20 H :    0.120986

-------------------------------
LOEWDIN REDUCED ORBITAL CHARGES
-------------------------------
  0 C s       :     2.952893  s :     2.952893
      pz      :     1.108680  p :     3.320592
      px      :     1.110675
      py      :     1.101236
      dz2     :     0.003458  d :     0.072029
      dxz     :     0.020686
      dyz     :     0.021955
      dx2y2   :     0.005801
      dxy     :     0.020129

  1 C s       :     2.938620  s :     2.938620
      pz      :     1.078227  p :     3.202995
      px      :     1.047907
      py      :     1.076861
      dz2     :     0.011009  d :     0.104422
      dxz     :     0.027626
      dyz     :     0.026956
      dx2y2   :     0.010825
      dxy     :     0.028006

  2 C s       :     2.954468  s :     2.954468
      pz      :     1.099567  p :     3.318838
      px      :     1.110865
      py      :     1.108407
      dz2     :     0.005309  d :     0.072137
      dxz     :     0.019739
      dyz     :     0.021883
      dx2y2   :     0.003799
      dxy     :     0.021406

  3 S s       :     5.591619  s :     5.591619
      pz      :     3.627524  p :    10.117427
      px      :     2.949217
      py      :     3.540687
      dz2     :     0.009898  d :     0.090770
      dxz     :     0.024084
      dyz     :     0.011153
      dx2y2   :     0.015565
      dxy     :     0.030070

  4 C s       :     2.938632  s :     2.938632
      pz      :     1.081107  p :     3.200736
      px      :     1.032427
      py      :     1.087203
      dz2     :     0.027810  d :     0.105820
      dxz     :     0.027315
      dyz     :     0.011966
      dx2y2   :     0.021398
      dxy     :     0.017331

  5 C s       :     2.949787  s :     2.949787
      pz      :     1.100393  p :     3.324547
      px      :     1.093862
      py      :     1.130291
      dz2     :     0.020185  d :     0.071465
      dxz     :     0.014877
      dyz     :     0.006430
      dx2y2   :     0.016431
      dxy     :     0.013543

  6 C s       :     2.954776  s :     2.954776
      pz      :     1.073232  p :     3.321157
      px      :     1.120144
      py      :     1.127780
      dz2     :     0.016755  d :     0.072219
      dxz     :     0.021244
      dyz     :     0.008340
      dx2y2   :     0.014980
      dxy     :     0.010900

  7 H s       :     0.880226  s :     0.880226

  8 H s       :     0.879155  s :     0.879155

  9 H s       :     0.881023  s :     0.881023

 10 H s       :     0.881008  s :     0.881008

 11 H s       :     0.881031  s :     0.881031

 12 H s       :     0.879577  s :     0.879577

 13 H s       :     0.882431  s :     0.882431

 14 H s       :     0.883042  s :     0.883042

 15 H s       :     0.878027  s :     0.878027

 16 H s       :     0.876627  s :     0.876627

 17 H s       :     0.877745  s :     0.877745

 18 H s       :     0.882328  s :     0.882328

 19 H s       :     0.882818  s :     0.882818

 20 H s       :     0.879014  s :     0.879014


---------------------------------
LOEWDIN BOND ORDERS (THRESH 0.050000)
---------------------------------
B(  0-C ,  1-C ) :   1.1244 B(  0-C ,  2-C ) :   0.0567 B(  0-C ,  3-S ) :   0.0665 
B(  0-C ,  7-H ) :   0.9359 B(  0-C ,  8-H ) :   0.9356 B(  0-C ,  9-H ) :   0.9294 
B(  1-C ,  2-C ) :   1.1244 B(  1-C ,  3-S ) :   1.0810 B(  1-C , 10-H ) :   0.8850 
B(  2-C ,  3-S ) :   0.0714 B(  2-C , 11-H ) :   0.9363 B(  2-C , 12-H ) :   0.9358 
B(  2-C , 13-H ) :   0.9290 B(  3-S ,  4-C ) :   1.0960 B(  3-S ,  5-C ) :   0.0585 
B(  3-S ,  6-C ) :   0.0729 B(  4-C ,  5-C ) :   1.1227 B(  4-C ,  6-C ) :   1.1214 
B(  4-C , 14-H ) :   0.8885 B(  5-C ,  6-C ) :   0.0568 B(  5-C , 15-H ) :   0.9348 
B(  5-C , 16-H ) :   0.9300 B(  5-C , 17-H ) :   0.9351 B(  6-C , 18-H ) :   0.9269 
B(  6-C , 19-H ) :   0.9341 B(  6-C , 20-H ) :   0.9346 

------------------------------------------
LOEWDIN REDUCED ORBITAL POPULATIONS PER MO
-------------------------------------------
THRESHOLD FOR PRINTING IS 0.1%%
                      0         1         2         3         4         5   
                 -88.00203  -9.92259  -9.92141  -9.87933  -9.87771  -9.87694
                   2.00000   2.00000   2.00000   2.00000   2.00000   2.00000
                  --------  --------  --------  --------  --------  --------
 0 C  s               0.0       0.0       0.0       0.0       0.0      99.7
 1 C  s               0.0       0.1      99.6       0.0       0.0       0.0
 3 S  s             100.0       0.0       0.0       0.0       0.0       0.0
 4 C  s               0.0      99.6       0.1       0.0       0.0       0.0
 5 C  s               0.0       0.0       0.0      99.7       0.0       0.0
 6 C  s               0.0       0.0       0.0       0.0      99.7       0.0

                      6         7         8         9        10        11   
                  -9.87636  -7.64598  -5.67448  -5.67081  -5.66226  -0.74831
                   2.00000   2.00000   2.00000   2.00000   2.00000   2.00000
                  --------  --------  --------  --------  --------  --------
 0 C  s               0.0       0.0       0.0       0.0       0.0       4.9
 0 C  pz              0.0       0.0       0.0       0.0       0.0       0.6
 0 C  px              0.0       0.0       0.0       0.0       0.0       0.6
 0 C  py              0.0       0.0       0.0       0.0       0.0       0.6
 1 C  s               0.0       0.0       0.0       0.0       0.0      15.5
 1 C  pz              0.0       0.0       0.0       0.0       0.0       0.3
 1 C  px              0.0       0.1       0.0       0.0       0.0       0.2
 1 C  py              0.0       0.0       0.0       0.0       0.0       0.3
 2 C  s              99.7       0.0       0.0       0.0       0.0       4.9
 2 C  pz              0.0       0.0       0.0       0.0       0.0       0.7
 2 C  px              0.0       0.0       0.0       0.0       0.0       0.6
 2 C  py              0.0       0.0       0.0       0.0       0.0       0.6
 3 S  s               0.0      99.7       0.0       0.0       0.0      17.2
 3 S  pz              0.0       0.0       1.0      39.6      59.4       0.9
 3 S  px              0.0       0.0      99.0       0.5       0.5       0.0
 3 S  py              0.0       0.0       0.0      59.9      40.0       1.3
 4 C  s               0.0       0.0       0.0       0.0       0.0      16.6
 4 C  px              0.0       0.1       0.0       0.0       0.0       0.3
 4 C  py              0.0       0.0       0.0       0.0       0.0       0.6
 5 C  s               0.0       0.0       0.0       0.0       0.0       5.5
 5 C  pz              0.0       0.0       0.0       0.0       0.0       0.7
 5 C  px              0.0       0.0       0.0       0.0       0.0       1.3
 6 C  s               0.0       0.0       0.0       0.0       0.0       5.6
 6 C  pz              0.0       0.0       0.0       0.0       0.0       1.7
 6 C  px              0.0       0.0       0.0       0.0       0.0       0.2
 6 C  py              0.0       0.0       0.0       0.0       0.0       0.1
 7 H  s               0.0       0.0       0.0       0.0       0.0       0.9
 8 H  s               0.0       0.0       0.0       0.0       0.0       0.9
 9 H  s               0.0       0.0       0.0       0.0       0.0       0.8
10 H  s               0.0       0.0       0.0       0.0       0.0       3.3
11 H  s               0.1       0.0       0.0       0.0       0.0       0.9
12 H  s               0.1       0.0       0.0       0.0       0.0       0.9
13 H  s               0.1       0.0       0.0       0.0       0.0       0.8
14 H  s               0.0       0.0       0.0       0.0       0.0       3.2
15 H  s               0.0       0.0       0.0       0.0       0.0       1.0
16 H  s               0.0       0.0       0.0       0.0       0.0       0.9
17 H  s               0.0       0.0       0.0       0.0       0.0       1.0
18 H  s               0.0       0.0       0.0       0.0       0.0       0.9
19 H  s               0.0       0.0       0.0       0.0       0.0       1.1
20 H  s               0.0       0.0       0.0       0.0       0.0       1.1

                     12        13        14        15        16        17   
                  -0.71382  -0.61779  -0.61531  -0.61355  -0.51539  -0.49448
                   2.00000   2.00000   2.00000   2.00000   2.00000   2.00000
                  --------  --------  --------  --------  --------  --------
 0 C  s               8.8       2.1      25.7       0.1       3.6       0.9
 0 C  pz              0.6       0.0       0.3       0.0       0.7       0.0
 0 C  px              0.4       0.0       0.1       0.4       3.2       0.9
 0 C  py              0.8       0.0       0.1       0.2       1.8       3.5
 1 C  s              15.3       0.0       0.0       0.0       8.5       5.7
 1 C  pz              0.0       1.3       7.5       0.3       0.2       4.8
 1 C  px              1.2       0.2       3.2       7.0       3.1       0.2
 1 C  py              0.0       1.2       3.2       4.6       0.1       5.5
 1 C  dxz             0.0       0.0       0.0       0.2       0.0       0.1
 1 C  dyz             0.0       0.0       0.0       0.1       0.1       0.0
 1 C  dxy             0.0       0.0       0.3       0.0       0.0       0.1
 2 C  s               8.7       4.5       6.7      17.0       3.0       1.3
 2 C  pz              0.9       0.0       0.3       0.0       1.8       3.7
 2 C  px              0.3       0.0       0.2       0.4       2.6       1.1
 2 C  py              0.6       0.0       0.1       0.2       0.7       0.0
 3 S  s               0.0       0.1       8.7      24.8       0.0      12.7
 3 S  pz              0.0       0.3       0.0       0.2       0.2       0.8
 3 S  px              3.5       0.0       0.0       0.0       5.2       0.0
 3 S  py              0.0       0.0       0.3       0.2       0.0       2.3
 3 S  dxz             0.1       0.0       0.0       0.0       0.2       0.0
 3 S  dxy             0.2       0.0       0.0       0.0       0.4       0.0
 4 C  s              13.9       0.0       0.0       0.0       9.2       5.3
 4 C  pz              0.0      12.2       0.3       3.7       0.3       0.2
 4 C  px              1.1       1.8       4.3       6.1       1.9       0.0
 4 C  py              0.2       0.1       0.1       0.2       1.2       9.4
 4 C  dz2             0.0       0.1       0.0       0.1       0.0       0.0
 4 C  dxz             0.0       0.2       0.1       0.0       0.0       0.0
 5 C  s               8.7      19.9       6.8       0.6       4.0       0.6
 5 C  pz              0.8       0.4       0.0       0.2       1.3       1.1
 5 C  px              0.8       0.0       0.2       0.3       4.7       0.8
 5 C  py              0.0       0.0       0.0       0.0       0.5       2.1
 5 C  dxz             0.0       0.0       0.0       0.0       0.1       0.0
 6 C  s               7.6      18.7       0.0      10.2       2.4       1.5
 6 C  pz              1.5       0.4       0.0       0.2       3.5       1.9
 6 C  px              0.0       0.1       0.2       0.3       0.6       0.2
 6 C  py              0.1       0.0       0.0       0.0       0.7       2.8
 7 H  s               1.5       0.7       6.7       0.1       1.4       0.7
 8 H  s               1.7       0.5       6.4       0.0       2.5       2.0
 9 H  s               1.7       0.5       7.1       0.0       2.5       0.2
10 H  s               2.5       0.0       0.0       0.0       4.7       9.1
11 H  s               1.5       1.3       2.4       4.1       1.3       0.7
12 H  s               1.7       1.1       1.6       4.2       2.1       2.3
13 H  s               1.7       1.2       1.4       5.1       2.1       0.4
14 H  s               2.3       0.0       0.0       0.0       5.1       8.1
15 H  s               1.7       4.9       1.7       0.1       2.8       1.8
16 H  s               1.7       5.0       2.0       0.3       2.8       0.2
17 H  s               1.5       5.8       1.6       0.0       1.6       0.5
18 H  s               1.5       4.6       0.0       3.3       1.6       0.6
19 H  s               1.2       5.8       0.0       2.3       1.5       0.5
20 H  s               1.5       4.5       0.0       2.5       1.8       2.5

                     18        19        20        21        22        23   
                  -0.42739  -0.41288  -0.39235  -0.37453  -0.36717  -0.36265
                   2.00000   2.00000   2.00000   2.00000   2.00000   2.00000
                  --------  --------  --------  --------  --------  --------
 0 C  s               0.0       0.3       0.1       0.1       0.1       0.0
 0 C  pz              5.8       7.9       4.8       2.3       1.0       0.0
 0 C  px              0.2       0.0       4.6       8.1       1.0      21.4
 0 C  py              2.5       2.2       5.3       0.3       5.5       0.3
 0 C  dyz             0.0       0.0       0.0       0.1       0.0       0.2
 1 C  s               0.0       1.3       0.1       0.0       0.3       0.2
 1 C  pz              8.8       0.9       0.2       1.6       5.1       3.1
 1 C  px              0.0       6.4       8.3       0.0       0.2       0.0
 1 C  py              7.8       1.2       0.0       5.3       1.4       3.5
 2 C  s               0.1       0.2       0.2       0.1       0.0       0.1
 2 C  pz              2.1       2.2       5.3       1.3       2.5       1.8
 2 C  px              0.5       0.3       2.6       7.6      21.2       1.9
 2 C  py              6.0       7.1       5.4       1.2       1.9       0.0
 2 C  dyz             0.0       0.0       0.0       0.1       0.2       0.0
 3 S  s               0.0       0.1       0.0       2.2       6.5       0.7
 3 S  pz              0.1       0.0       1.0       4.8       0.0       0.0
 3 S  px             10.4       0.0       1.6       0.0       0.0       0.0
 3 S  py              0.1       0.7       0.0       0.1       3.1       0.1
 3 S  dxz             0.1       0.0       0.0       0.0       0.0       0.2
 3 S  dx2y2           0.0       0.2       0.0       0.0       0.0       0.1
 3 S  dxy             0.1       0.0       0.1       0.0       0.0       0.0
 4 C  s               0.0       1.2       0.1       0.2       0.2       0.1
 4 C  pz              0.5       0.1       2.9       5.6       0.2       8.5
 4 C  px              1.6       5.1       3.8       2.0       0.2       1.7
 4 C  py             13.3       7.2       0.9       0.2       0.3       0.0
 5 C  s               0.0       0.4       0.0       0.2       0.0       0.0
 5 C  pz              0.3       9.6      11.1       0.7       1.9       0.8
 5 C  px              1.5       1.3       3.4       2.4       4.7      17.6
 5 C  py              6.9       3.0       0.6       1.6       3.3       1.2
 5 C  dxz             0.0       0.2       0.0       0.0       0.0       0.1
 6 C  s               0.0       0.2       0.3       0.1       0.0       0.0
 6 C  pz              0.3      10.0       7.6       1.4       0.0       1.3
 6 C  px              1.4       2.6       1.8      23.1       2.7       4.8
 6 C  py              5.7       1.8       0.0       0.0       3.6       2.5
 6 C  dxy             0.0       0.0       0.0       0.1       0.1       0.0
 7 H  s               0.2       4.1       6.7       0.3       0.0       3.8
 8 H  s               1.8       0.0       0.1       0.0       3.9       1.4
 9 H  s               2.1       0.5       0.7       5.3       0.5       6.9
10 H  s               3.9       1.3       0.6       0.0       0.0       0.0
11 H  s               0.1       4.1       6.2       1.1       3.2       0.0
12 H  s               1.4       0.1       0.0       3.7       0.0       1.3
13 H  s               2.6       0.3       0.2       0.4      12.4       0.1
14 H  s               3.5       2.1       0.6       0.0       0.0       0.0
15 H  s               1.9       0.2       0.3       1.8       1.0       2.2
16 H  s               2.4       0.9       1.6       0.1       5.2       5.6
17 H  s               0.0       5.2       6.3       0.0       0.9       2.1
18 H  s               2.2       0.3       0.0       9.4       3.0       1.0
19 H  s               0.0       6.2       3.8       3.8       0.4       0.5
20 H  s               1.5       0.5       0.0       0.7       1.3       2.3

                     24        25        26        27        28        29   
                  -0.34482  -0.34358  -0.31460  -0.30840  -0.30443  -0.30156
                   2.00000   2.00000   2.00000   2.00000   2.00000   2.00000
                  --------  --------  --------  --------  --------  --------
 0 C  s               0.0       0.0       0.0       0.0       0.1       0.2
 0 C  pz              0.8      13.4       0.3       0.9      14.3       0.0
 0 C  px              0.3       0.2       2.5       0.3       2.2       2.3
 0 C  py              0.6      14.0       2.2       2.8       4.2       7.6
 0 C  dxz             0.0       0.2       0.0       0.1       0.1       0.1
 0 C  dyz             0.0       0.0       0.1       0.0       0.3       0.1
 0 C  dxy             0.0       0.2       0.0       0.0       0.3       0.0
 1 C  pz              0.1       0.1       0.7       0.7      11.7       0.5
 1 C  px              0.0       0.0       5.2       0.0       0.8       3.6
 1 C  py              0.1       0.1       0.9       2.0       2.6       7.6
 1 C  dz2             0.0       0.3       0.0       0.0       0.0       0.0
 1 C  dxz             0.0       0.0       0.0       0.1       0.1       0.3
 1 C  dyz             0.0       0.0       0.2       0.0       0.1       0.2
 1 C  dxy             0.0       0.0       0.0       0.0       0.4       0.0
 2 C  s               0.0       0.0       0.1       0.0       0.3       0.0
 2 C  pz              1.3      12.9       0.8       1.5      14.8       0.3
 2 C  px              0.0       0.1       8.4       0.2       0.0       2.0
 2 C  py              1.0      13.8       1.7       2.7       5.3       5.3
 2 C  dxz             0.0       0.1       0.0       0.1       0.1       0.2
 2 C  dyz             0.0       0.0       0.3       0.0       0.0       0.2
 2 C  dxy             0.0       0.2       0.0       0.0       0.3       0.0
 3 S  s               0.0       0.0       0.5       0.0       0.0       0.0
 3 S  pz              0.5       0.1       1.0       1.3       0.2       0.1
 3 S  px              0.0       0.0       0.0       0.4       0.5       1.7
 3 S  py              0.0       0.2       3.9       0.2       0.1       0.0
 3 S  dyz             0.0       0.0       0.1       0.0       0.0       0.0
 3 S  dx2y2           0.0       0.0       0.2       0.0       0.0       0.0
 4 C  s               0.0       0.0       0.1       0.0       0.0       0.0
 4 C  pz              0.3       0.0       0.0      12.8       3.0       0.1
 4 C  px              0.0       0.0       5.4       0.3       0.2       1.2
 4 C  py              0.0       0.0       4.0       0.4       0.1       9.2
 4 C  dz2             0.0       0.0       0.3       0.2       0.0       0.2
 4 C  dxz             0.0       0.0       0.1       0.2       0.0       0.0
 4 C  dyz             0.3       0.0       0.0       0.1       0.0       0.0
 4 C  dx2y2           0.0       0.0       0.0       0.0       0.0       0.2
 4 C  dxy             0.0       0.0       0.1       0.0       0.0       0.1
 5 C  s               0.0       0.0       0.1       0.1       0.0       0.1
 5 C  pz              0.5       0.2       0.5      20.5       3.6       0.1
 5 C  px              1.7       0.2       3.1       0.0       0.2       1.3
 5 C  py             24.2       1.4       4.0       0.8       0.1       6.2
 5 C  dz2             0.0       0.0       0.1       0.5       0.0       0.1
 5 C  dyz             0.0       0.0       0.0       0.1       0.0       0.0
 5 C  dx2y2           0.2       0.0       0.1       0.0       0.0       0.1
 5 C  dxy             0.1       0.0       0.0       0.0       0.0       0.1
 6 C  s               0.0       0.0       0.1       0.3       0.1       0.0
 6 C  pz              0.7       0.1       0.0      16.4       3.2       0.7
 6 C  px              1.8       0.2       9.8       2.5       0.1       0.0
 6 C  py             25.2       1.6       6.0       0.3       0.1       5.0
 6 C  dz2             0.0       0.0       0.2       0.0       0.0       0.1
 6 C  dxz             0.0       0.0       0.2       0.4       0.0       0.0
 6 C  dx2y2           0.2       0.0       0.1       0.0       0.0       0.1
 6 C  dxy             0.1       0.0       0.0       0.0       0.0       0.1
 7 H  s               0.1       0.0       0.3       2.4      12.9       0.1
 8 H  s               0.8      11.0       2.7       0.0       2.9       4.3
 9 H  s               0.1       8.2       0.0       0.6       0.1       0.3
10 H  s               0.0       0.0       3.5       0.2       2.2       7.4
11 H  s               0.0       0.0       3.1       2.3       7.2       3.4
12 H  s               1.1      10.8       4.7       0.2       0.5       5.2
13 H  s               0.5       7.7       0.4       0.0       0.7       0.2
14 H  s               0.0       0.0       5.0       0.2       0.2       9.0
15 H  s              10.9       0.6       3.7       0.7       0.1       5.8
16 H  s               7.3       0.6       0.0       1.0       0.2       0.2
17 H  s               0.1       0.0       0.2      13.4       1.6       1.4
18 H  s               7.7       0.6       0.8       0.2       0.1       0.7
19 H  s               0.0       0.0       5.4       8.9       1.3       0.1
20 H  s              11.2       0.6       6.3       0.0       0.2       4.1

                     30        31        32        33        34        35   
                  -0.28067  -0.25326  -0.17421   0.01124   0.02769   0.04311
                   2.00000   2.00000   2.00000   0.00000   0.00000   0.00000
                  --------  --------  --------  --------  --------  --------
 0 C  s               0.3       0.0       0.5       2.0       2.5       0.3
 0 C  pz              1.4       0.2       0.3       0.1       0.8       0.6
 0 C  px              5.9       0.1       0.9       0.6       0.2       0.5
 0 C  py              0.0       0.4       0.1       0.2       0.1       1.6
 0 C  dxz             0.1       0.1       0.0       0.0       0.0       0.7
 0 C  dyz             0.1       0.0       0.0       0.0       0.0       0.0
 0 C  dx2y2           0.1       0.1       0.0       0.1       0.0       0.1
 0 C  dxy             0.0       0.0       0.0       0.0       0.2       0.0
 1 C  s               0.0       0.3       0.0       4.9       2.0       4.0
 1 C  pz              1.1       4.0       0.7       0.9       2.7       3.9
 1 C  px             10.9       1.5       0.0       5.8       0.1       4.4
 1 C  py              0.8       5.0       0.4       1.1       2.8       3.5
 1 C  dz2             0.0       0.0       0.1       0.0       0.0       0.1
 1 C  dxz             0.1       0.1       0.2       0.1       0.1       0.3
 1 C  dyz             0.3       0.1       0.0       0.5       0.1       0.0
 1 C  dx2y2           0.0       0.1       0.0       0.1       0.0       0.6
 1 C  dxy             0.1       0.1       0.2       0.1       0.1       0.4
 2 C  s               0.2       0.0       0.7       1.6       3.3       0.0
 2 C  pz              0.0       0.3       0.3       0.2       0.1       1.0
 2 C  px              4.3       0.2       1.0       0.5       0.1       0.2
 2 C  py              1.1       0.4       0.4       0.1       0.9       0.5
 2 C  dz2             0.1       0.1       0.0       0.1       0.1       0.2
 2 C  dxz             0.0       0.0       0.0       0.0       0.2       0.1
 2 C  dyz             0.1       0.0       0.0       0.0       0.0       0.0
 2 C  dxy             0.1       0.1       0.0       0.1       0.0       0.5
 3 S  s               0.0       6.4       0.0       0.0       1.2       5.7
 3 S  pz              0.1      19.9      49.9       0.1       0.2       6.9
 3 S  px             23.5       0.1       0.4      27.4       0.1       0.0
 3 S  py              0.0      31.1      33.5       0.1       0.1      11.5
 3 S  dz2             0.0       0.1       0.0       0.2       0.0       1.9
 3 S  dxz             0.3       0.0       0.0       4.0       0.0       0.1
 3 S  dyz             0.0       0.1       0.0       0.0       0.2       1.9
 3 S  dx2y2           0.0       0.2       0.0       0.1       0.4       3.1
 3 S  dxy             0.5       0.0       0.0       6.6       0.2       0.0
 4 C  s               0.0       0.3       0.0       5.1       2.8       2.9
 4 C  pz              0.1       2.1       0.8       1.2       0.1       0.7
 4 C  px             12.1       2.3       0.0       7.1       0.0       6.2
 4 C  py              1.1       5.0       0.5       2.1       4.2       3.4
 4 C  dz2             0.1       0.0       0.3       0.0       0.0       0.1
 4 C  dxz             0.3       0.0       0.2       0.2       0.0       0.1
 4 C  dyz             0.0       0.0       0.0       0.1       0.0       0.0
 4 C  dx2y2           0.0       0.4       0.1       0.1       0.2       0.8
 4 C  dxy             0.2       0.0       0.1       0.3       0.0       0.2
 5 C  s               0.4       0.2       0.1       2.6       3.3       0.1
 5 C  pz              0.3       0.3       0.0       0.1       0.2       1.3
 5 C  px              8.7       0.1       0.3       0.6       0.6       0.2
 5 C  py              0.4       0.2       0.0       0.2       0.1       0.2
 5 C  dz2             0.1       0.0       0.0       0.0       0.0       0.3
 5 C  dx2y2           0.1       0.1       0.0       0.1       0.0       0.3
 5 C  dxy             0.1       0.0       0.0       0.0       0.2       0.3
 6 C  s               0.0       0.0       0.9       0.2       5.1       0.7
 6 C  pz              0.1       1.0       1.6       0.1       2.0       0.7
 6 C  px              2.6       0.5       0.4       0.2       0.0       0.5
 6 C  py              0.3       0.4       0.0       0.4       0.1       0.3
 6 C  dxz             0.2       0.0       0.0       0.3       0.0       0.3
 6 C  dyz             0.0       0.1       0.0       0.0       0.2       0.0
 6 C  dx2y2           0.0       0.1       0.0       0.1       0.0       0.0
 7 H  s               0.8       0.0       0.2       0.3       2.9       6.2
 8 H  s               0.0       0.8       0.1       3.7       0.5       0.5
 9 H  s               4.7       0.8       0.6       0.9       3.8       1.7
10 H  s               0.2       5.0       0.1       2.9      11.1       0.9
11 H  s               0.9       0.0       0.2       0.3       4.3       2.9
12 H  s               0.0       0.9       0.1       3.2       0.6       0.1
13 H  s               4.0       1.1       0.7       0.6       4.5       1.5
14 H  s               0.0       3.5       1.1       1.1      12.2       0.5
15 H  s               0.2       0.5       0.1       3.4       1.0       0.3
16 H  s               5.3       0.3       0.1       1.0       4.8       4.5
17 H  s               0.2       0.1       0.2       1.3       2.6       1.8
18 H  s               3.0       1.6       0.8       0.4       5.3       0.2
19 H  s               1.2       0.0       0.1       0.1       6.4       3.3
20 H  s               0.1       0.9       0.3       1.4       1.8       0.9

                     36        37        38        39        40        41   
                   0.06815   0.06933   0.07423   0.09771   0.10237   0.10946
                   0.00000   0.00000   0.00000   0.00000   0.00000   0.00000
                  --------  --------  --------  --------  --------  --------
 0 C  s               0.2      10.2       0.1       6.3       0.3       0.0
 0 C  pz              0.2       0.5       2.2       0.1       0.1       3.2
 0 C  px              0.9       2.5       0.4       0.1       0.1       0.8
 0 C  py              0.4       0.2       0.1       0.4       2.3       4.6
 0 C  dz2             0.0       0.0       0.1       0.0       0.0       0.3
 0 C  dxy             0.1       0.0       0.0       0.1       0.0       0.1
 1 C  s               0.2       0.8       0.7       0.4       0.9       0.8
 1 C  pz              0.5       0.0       2.2       0.5       0.0       1.9
 1 C  px              0.2       1.3       0.1       0.4       1.7       1.2
 1 C  py              0.3       0.0       3.0       0.3       0.0       1.0
 1 C  dxz             0.0       0.0       0.4       0.3       0.0       0.0
 1 C  dyz             0.0       0.0       0.0       0.0       0.2       0.0
 1 C  dxy             0.1       0.0       0.1       0.3       0.0       0.1
 2 C  s               6.3       1.2       3.8       4.7       0.5       0.3
 2 C  pz              0.4       0.1       1.9       0.2       0.8       3.5
 2 C  px              0.0       4.1       0.1       0.7       0.1       0.7
 2 C  py              1.9       0.0       0.2       0.3       0.7       3.6
 2 C  dz2             0.0       0.0       0.1       0.0       0.0       0.2
 2 C  dxz             0.0       0.0       0.1       0.0       0.0       0.2
 3 S  s               0.1       0.3       0.3       0.1       0.0       1.7
 3 S  pz              0.6       0.2       1.1       0.1       0.4       0.8
 3 S  px              3.6       3.7       1.2       0.1       2.5       0.3
 3 S  py              0.2       0.1       0.0       0.1       0.0       1.4
 3 S  dz2             0.0       0.0       0.0       0.1       0.3       0.7
 3 S  dxz             0.3       0.5       0.1       0.7       0.1       0.0
 3 S  dyz             0.1       0.0       0.1       0.0       0.1       1.1
 3 S  dx2y2           0.1       0.0       0.1       0.0       0.0       0.4
 3 S  dxy             0.6       0.2       0.0       0.1       1.2       0.1
 4 C  s               1.6       1.4       0.2       0.0       1.1       0.4
 4 C  pz              0.0       0.0       0.2       0.3       1.1       0.0
 4 C  px              1.5       0.2       0.0       0.1       0.8       0.5
 4 C  py              0.3       4.9       0.2       0.1       0.0       1.1
 4 C  dxz             0.1       0.1       0.0       0.4       0.2       0.0
 4 C  dyz             0.0       0.0       0.1       0.1       0.1       0.0
 4 C  dxy             0.0       0.3       0.0       0.2       0.0       0.1
 5 C  s               2.1       0.1       7.1       2.3       8.5       0.1
 5 C  pz              0.2       0.3       0.5       0.5       2.8       0.2
 5 C  px              2.3       0.2       1.6       0.2       0.7       1.2
 5 C  py              0.1       1.1       0.2       4.9       2.7       1.3
 5 C  dyz             0.0       0.1       0.0       0.0       0.1       0.1
 5 C  dx2y2           0.0       0.0       0.0       0.2       0.0       0.0
 5 C  dxy             0.0       0.1       0.0       0.0       0.2       0.0
 6 C  s               8.6       0.0       1.0       2.9       1.6       0.2
 6 C  pz              1.3       0.0       0.5       0.2       0.6       0.2
 6 C  px              1.2       0.1       4.7       1.8       2.4       4.2
 6 C  py              0.1       1.4       0.1       4.5       1.8       1.7
 6 C  dz2             0.0       0.0       0.0       0.1       0.0       0.1
 6 C  dxz             0.1       0.0       0.0       0.2       0.1       0.0
 6 C  dyz             0.0       0.2       0.0       0.0       0.0       0.0
 6 C  dx2y2           0.0       0.1       0.0       0.3       0.0       0.0
 6 C  dxy             0.0       0.0       0.2       0.0       0.2       0.3
 7 H  s               1.6       3.7       2.7       4.0       1.7       0.3
 8 H  s               0.5       9.0       2.7       6.0       3.8       8.3
 9 H  s               1.5      15.6       0.6       3.0       1.0      11.7
10 H  s               0.4       2.2      11.5       1.2       3.8       0.3
11 H  s               9.6       1.3       3.5       0.7       0.0       0.5
12 H  s               1.4       2.8      10.6       2.2       5.0      10.2
13 H  s               6.4       8.6       0.2       7.6       0.1       7.5
14 H  s               6.9      12.6       0.9       0.8       2.1       0.3
15 H  s               3.7       2.6       4.9       3.7      17.9       1.9
16 H  s               7.2       0.3       8.1       3.9       0.1       3.4
17 H  s               0.0       0.4       5.3       9.1      13.3       0.5
18 H  s              13.2       1.6       1.9       1.0      12.6       7.8
19 H  s               3.3       0.0      10.9       1.5       0.4       4.0
20 H  s               7.4       2.1       0.2      19.4       0.3       2.0

                     42        43        44        45        46        47   
                   0.11713   0.12142   0.12914   0.14203   0.14727   0.15110
                   0.00000   0.00000   0.00000   0.00000   0.00000   0.00000
                  --------  --------  --------  --------  --------  --------
 0 C  s               0.9       3.3       0.8       0.1       0.0       0.3
 0 C  pz              2.5       0.2       0.2       3.0       6.4       3.3
 0 C  px              7.8       0.9       2.6       0.2       0.1       0.8
 0 C  py              0.3       0.2       1.0       2.2       1.4       2.1
 0 C  dxz             0.0       0.0       0.2       0.2       0.1       0.1
 0 C  dyz             1.3       0.0       0.0       0.0       0.0       0.1
 0 C  dx2y2           0.0       0.0       0.0       0.0       0.1       0.1
 0 C  dxy             0.0       0.0       0.0       0.4       0.5       0.1
 1 C  s               4.9       0.3       0.5       0.2       0.0       1.0
 1 C  pz              0.2       0.2       0.7       0.1       0.2       1.4
 1 C  px              0.0       0.4       0.4       0.1       0.6       0.7
 1 C  py              0.2       0.7       0.1       0.1       0.0       3.5
 1 C  dz2             0.2       0.0       0.0       0.7       0.6       0.0
 1 C  dxz             0.1       0.1       0.2       0.0       0.0       1.0
 1 C  dyz             0.7       0.1       0.0       0.0       0.1       0.1
 1 C  dx2y2           0.3       0.0       0.0       0.2       0.2       0.0
 1 C  dxy             0.1       0.2       0.0       0.0       0.1       0.3
 2 C  s               2.8       2.1       1.2       0.1       0.0       0.0
 2 C  pz              0.3       0.6       0.2       2.8       2.4       7.4
 2 C  px              7.0       3.6       1.2       0.1       0.0       0.7
 2 C  py              1.9       0.1       0.6       4.1       5.2       3.7
 2 C  dz2             0.0       0.0       0.0       0.0       0.0       0.2
 2 C  dxz             0.0       0.0       0.0       0.3       0.3       0.4
 2 C  dyz             1.2       0.1       0.0       0.0       0.1       0.0
 2 C  dxy             0.0       0.2       0.0       0.3       0.2       0.6
 3 S  s               0.8       0.1       0.6       0.1       0.2       0.0
 3 S  pz              0.8       0.0       0.7       0.1       0.6       0.1
 3 S  px              0.6       0.1       0.1       0.0       0.0       0.9
 3 S  py              1.5       0.7       0.2       0.1       0.1       0.2
 3 S  dz2             0.1       0.0       0.1       0.0       0.1       0.4
 3 S  dxz             0.0       0.1       0.0       0.6       0.0       0.7
 3 S  dyz             0.5       0.2       0.2       0.0       0.1       0.3
 3 S  dx2y2           0.0       0.1       0.0       0.0       0.0       0.2
 3 S  dxy             0.0       0.0       0.1       0.3       0.0       0.1
 4 C  s               1.5       4.0       0.0       0.0       0.1       0.3
 4 C  pz              0.2       0.6       0.8       0.2       0.4       0.1
 4 C  px              1.7       0.0       1.5       0.0       0.1       0.5
 4 C  py              0.1       0.5       0.9       0.6       0.1       6.9
 4 C  dz2             0.1       1.0       0.2       0.1       0.0       0.1
 4 C  dxz             0.0       0.0       0.5       0.0       0.0       0.0
 4 C  dyz             0.0       0.0       0.1       0.7       0.7       0.0
 4 C  dx2y2           0.0       0.0       0.1       0.1       0.0       0.3
 5 C  s               0.0       0.4       1.7       0.0       0.0       0.2
 5 C  pz              0.0       2.9       7.9       0.1       0.0       0.4
 5 C  px              0.0       2.6       3.5       1.4       0.9       0.8
 5 C  py              0.0       2.9       0.0       7.2       5.9       0.3
 5 C  dz2             0.1       0.8       0.2       0.0       0.0       0.0
 5 C  dxz             0.0       0.0       0.2       0.2       0.0       0.2
 5 C  dyz             0.0       0.0       0.4       0.0       0.0       0.2
 5 C  dx2y2           0.1       0.1       0.0       0.2       0.2       0.0
 5 C  dxy             0.0       0.1       0.0       0.2       0.2       0.0
 6 C  s               0.1       3.1       2.8       0.0       0.1       0.2
 6 C  pz              0.0       0.9       1.1       0.4       1.2       1.5
 6 C  px              0.1       1.2       3.0       0.2       0.3       0.2
 6 C  py              0.5       2.8       0.9       5.0       4.2       1.6
 6 C  dz2             0.0       0.5       0.0       0.1       0.0       0.2
 6 C  dxz             0.1       0.0       0.3       0.0       0.0       0.0
 6 C  dyz             0.0       0.2       0.0       0.1       0.1       0.2
 6 C  dx2y2           0.0       0.2       0.0       0.3       0.3       0.1
 6 C  dxy             0.0       0.0       0.0       0.3       0.2       0.0
[...]
 4 C  dx2y2          19.1      16.9       0.0       0.1       5.4       3.7
 4 C  dxy            13.0      14.5       1.0       0.2       3.5       8.2
 5 C  s               0.0       0.0       0.0       0.0       0.1       0.2
 5 C  px              0.1       0.1       0.1       0.0       0.2       0.1
 5 C  py              0.0       0.0       0.2       0.1       0.0       0.0
 5 C  dz2             0.0       0.3       0.2       0.0      11.4      12.9
 5 C  dxz             0.9       0.0       0.8       0.3       1.1       0.9
 5 C  dyz             3.0       3.2       0.2       0.1       0.5       1.3
 5 C  dx2y2           0.9       0.4      10.0       3.4       0.1       0.2
 5 C  dxy             1.1       1.1      10.1       3.5       0.8       0.6
 6 C  s               0.1       0.0       0.0       0.0       0.1       0.0
 6 C  pz              0.0       0.0       0.0       0.0       0.2       0.1
 6 C  px              0.1       0.0       0.0       0.0       0.0       0.2
 6 C  py              0.0       0.1       0.1       0.0       0.1       0.0
 6 C  dz2             1.0       0.0       0.5       0.1       9.5       7.8
 6 C  dxz             0.6       0.3       2.9       1.6       2.9      13.2
 6 C  dyz             3.8       1.6       4.6       1.7       0.1       0.1
 6 C  dx2y2           0.4       0.2       9.0       2.6       1.9       0.1
 6 C  dxy             0.1       0.7       5.1       1.7       0.2       0.4
 7 H  s               0.0       0.0       0.1       0.0       0.7       0.6
 8 H  s               0.0       0.0       0.2       1.6       0.4       0.3
 9 H  s               0.0       0.0       0.8       1.2       0.5       0.3
10 H  s               2.3       3.1       0.0       0.0       0.2       0.1
11 H  s               0.1       0.0       0.0       0.1       0.7       0.7
12 H  s               0.1       0.0       0.8       1.1       0.5       0.2
13 H  s               0.0       0.0       0.3       1.7       0.4       0.4
14 H  s               2.5       2.7       0.0       0.0       0.2       0.1
15 H  s               0.0       0.0       1.2       0.5       0.1       0.6
16 H  s               0.0       0.0       1.4       0.4       0.7       0.2
17 H  s               0.0       0.0       0.0       0.0       0.7       0.7
18 H  s               0.0       0.0       1.3       0.5       0.1       1.1
19 H  s               0.0       0.0       0.0       0.0       0.4       1.3
20 H  s               0.0       0.1       1.3       0.3       0.8       0.2

                    126       127       128       129   
                   2.44649   2.47044   2.56730   2.57057
                   0.00000   0.00000   0.00000   0.00000
                  --------  --------  --------  --------
 0 C  s               0.2       0.3       1.6       0.0
 0 C  pz              0.1       0.3       1.0       0.0
 0 C  px              0.4       0.5       0.6       0.0
 0 C  py              0.2       0.3       1.5       0.0
 0 C  dz2             1.1       0.6       0.0       0.0
 0 C  dxz             2.9       2.3       5.3       0.0
 0 C  dyz             0.4       1.4       6.2       0.2
 0 C  dx2y2           0.8       0.2       0.8       0.0
 0 C  dxy             5.5       5.6       6.3       0.0
 1 C  s               1.3       1.4       0.0       0.0
 1 C  pz              0.0       0.0       2.9       0.0
 1 C  px              0.7       1.4       0.0       0.0
 1 C  py              0.0       0.0       2.8       0.1
 1 C  dz2             1.0       0.7       1.4       0.2
 1 C  dxz             0.0       0.1      21.6       0.5
 1 C  dyz            18.9      21.1       0.0       0.1
 1 C  dx2y2           2.9       1.5       0.3       0.3
 1 C  dxy             0.0       0.5      20.9       0.2
 2 C  s               0.3       0.3       1.6       0.0
 2 C  pz              0.3       0.3       1.6       0.0
 2 C  px              0.4       0.4       0.6       0.0
 2 C  py              0.2       0.2       1.1       0.0
 2 C  dz2             0.0       0.0       1.0       0.0
 2 C  dxz             6.3       4.8       6.0       0.2
 2 C  dyz             0.6       1.2       7.3       0.0
 2 C  dx2y2           1.4       0.7       0.2       0.0
 2 C  dxy             2.7       2.0       4.7       0.2
 3 S  s               0.5       0.0       0.0       0.0
 3 S  px              0.0       0.8       0.0       0.0
 3 S  py              0.1       0.0       0.0       0.0
 3 S  dxz             0.0       0.5       0.0       0.0
 3 S  dyz             0.1       0.0       0.0       0.0
 3 S  dxy             0.0       0.5       0.0       0.0
 4 C  s               1.3       1.4       0.0       0.0
 4 C  pz              0.0       0.2       0.1       4.9
 4 C  px              0.6       1.0       0.0       0.8
 4 C  py              0.2       0.2       0.0       0.0
 4 C  dz2            16.0      16.9       0.1       6.3
 4 C  dxz             5.6       3.9       0.4      25.2
 4 C  dyz             0.5       1.2       0.1       7.0
 4 C  dx2y2           0.6       0.6       0.1       5.5
 4 C  dxy             0.1       0.5       0.0       0.4
 5 C  s               0.3       0.3       0.0       1.8
 5 C  pz              0.2       0.1       0.0       1.9
 5 C  px              0.6       0.6       0.0       1.6
 5 C  dz2             1.2       0.7       0.0       0.7
 5 C  dxz             4.2       3.1       0.2      15.5
 5 C  dyz             0.5       0.3       0.0       0.8
 5 C  dx2y2           3.4       2.5       0.0       3.3
 5 C  dxy             1.4       1.1       0.0       0.4
 6 C  s               0.3       0.3       0.1       1.5
 6 C  pz              0.6       1.0       0.1       2.6
 6 C  px              0.1       0.2       0.0       0.1
 6 C  py              0.1       0.1       0.0       0.2
 6 C  dz2             1.8       4.1       0.4      11.5
 6 C  dxz             5.5       3.7       0.0       1.6
 6 C  dyz             2.5       3.0       0.1       3.0
 6 C  dx2y2           0.0       0.0       0.0       0.1
 6 C  dxy             0.7       0.9       0.1       0.0
 7 H  s               0.2       0.1       0.3       0.0
 9 H  s               0.0       0.1       0.1       0.0
10 H  s               0.6       0.6       0.0       0.0
11 H  s               0.2       0.1       0.2       0.0
12 H  s               0.0       0.0       0.1       0.0
14 H  s               0.5       0.6       0.0       0.0
15 H  s               0.0       0.0       0.0       0.1
17 H  s               0.2       0.1       0.0       0.2
18 H  s               0.0       0.2       0.0       0.0
19 H  s               0.2       0.1       0.0       0.2


                      *****************************
                      * MAYER POPULATION ANALYSIS *
                      *****************************

  NA   - Mulliken gross atomic population
  ZA   - Total nuclear charge
  QA   - Mulliken gross atomic charge
  VA   - Mayer's total valence
  BVA  - Mayer's bonded valence
  FA   - Mayer's free valence

  ATOM       NA         ZA         QA         VA         BVA        FA
  0 C      6.2097     6.0000    -0.2097     3.9039     3.9039     0.0000
  1 C      6.3045     6.0000    -0.3045     4.1456     4.1456    -0.0000
  2 C      6.1966     6.0000    -0.1966     3.8946     3.8946    -0.0000
  3 S     16.0436    16.0000    -0.0436     2.1223     2.1223     0.0000
  4 C      6.3058     6.0000    -0.3058     4.1757     4.1757    -0.0000
  5 C      6.2262     6.0000    -0.2262     3.9303     3.9303    -0.0000
  6 C      6.2010     6.0000    -0.2010     3.8706     3.8706    -0.0000
  7 H      0.8916     1.0000     0.1084     0.9716     0.9716    -0.0000
  8 H      0.8949     1.0000     0.1051     0.9654     0.9654     0.0000
  9 H      0.8996     1.0000     0.1004     0.9560     0.9560     0.0000
 10 H      0.8847     1.0000     0.1153     0.9422     0.9422     0.0000
 11 H      0.8966     1.0000     0.1034     0.9701     0.9701     0.0000
 12 H      0.8962     1.0000     0.1038     0.9688     0.9688    -0.0000
 13 H      0.9016     1.0000     0.0984     0.9559     0.9559     0.0000
 14 H      0.8840     1.0000     0.1160     0.9310     0.9310     0.0000
 15 H      0.8916     1.0000     0.1084     0.9636     0.9636     0.0000
 16 H      0.8927     1.0000     0.1073     0.9570     0.9570     0.0000
 17 H      0.8874     1.0000     0.1126     0.9665     0.9665    -0.0000
 18 H      0.9028     1.0000     0.0972     0.9569     0.9569    -0.0000
 19 H      0.8918     1.0000     0.1082     0.9655     0.9655    -0.0000
 20 H      0.8971     1.0000     0.1029     0.9771     0.9771     0.0000

  Mayer bond orders larger than 0.100000
B(  0-C ,  1-C ) :   1.0895 B(  0-C ,  7-H ) :   0.9485 B(  0-C ,  8-H ) :   0.9494 
B(  0-C ,  9-H ) :   0.9428 B(  1-C ,  2-C ) :   1.0866 B(  1-C ,  3-S ) :   1.0004 
B(  1-C , 10-H ) :   0.8937 B(  2-C , 11-H ) :   0.9487 B(  2-C , 12-H ) :   0.9497 
B(  2-C , 13-H ) :   0.9404 B(  3-S ,  4-C ) :   1.0246 B(  4-C ,  5-C ) :   1.1010 
B(  4-C ,  6-C ) :   1.0733 B(  4-C , 14-H ) :   0.9011 B(  5-C , 15-H ) :   0.9473 
B(  5-C , 16-H ) :   0.9466 B(  5-C , 17-H ) :   0.9473 B(  6-C , 18-H ) :   0.9365 
B(  6-C , 19-H ) :   0.9458 B(  6-C , 20-H ) :   0.9471 

-------
TIMINGS
-------

Total SCF time: 0 days 0 hours 0 min 6 sec 

Total time                  ....       6.966 sec
Sum of individual times     ....       6.440 sec  ( 92.5%)

SCF preparation             ....       0.193 sec  (  2.8%)
Fock matrix formation       ....       5.521 sec  ( 79.3%)
  Startup                   ....       0.058 sec  (  1.0% of F)
  Split-RI-J                ....       1.795 sec  ( 32.5% of F)
  XC integration            ....       3.171 sec  ( 57.4% of F)
    Basis function eval.    ....       1.066 sec  ( 33.6% of XC)
    Density eval.           ....       0.375 sec  ( 11.8% of XC)
    XC-Functional eval.     ....       0.277 sec  (  8.7% of XC)
    XC-Potential eval.      ....       0.609 sec  ( 19.2% of XC)
Diagonalization             ....       0.000 sec  (  0.0%)
Density matrix formation    ....       0.177 sec  (  2.5%)
Total Energy calculation    ....       0.028 sec  (  0.4%)
Population analysis         ....       0.066 sec  (  1.0%)
Orbital Transformation      ....       0.055 sec  (  0.8%)
Orbital Orthonormalization  ....       0.000 sec  (  0.0%)
DIIS solution               ....       0.331 sec  (  4.7%)
  MO trafo                  ....       0.000 sec  (  0.0 % of DIIS)
  Orb grad                  ....       0.000 sec  (  0.0 % of DIIS)
  Energy W gradient         ....       0.000 sec  (  0.0 % of DIIS)
  DIIS error                ....       0.002 sec  (  0.7 % of DIIS)
  DIIS work                 ....       0.286 sec  ( 86.6 % of DIIS)
  Form Q                    ....       0.000 sec  (  0.0 % of DIIS)
  Form QpQm                 ....       0.000 sec  (  0.0 % of DIIS)
  Exp/Cayley                ....       0.000 sec  (  0.0 % of DIIS)
  Orb update                ....       0.000 sec  (  0.0 % of DIIS)
  Wake-sleep                ....       0.016 sec  (  4.8 % of DIIS)
SOSCF solution              ....       0.068 sec  (  1.0%)
  MO trafo                  ....       0.037 sec  ( 54.2 % of SOSCF)
  Orb grad                  ....       0.002 sec  (  2.6 % of SOSCF)
  Rot update                ....       0.015 sec  ( 22.4 % of SOSCF)
  Step                      ....       0.014 sec  ( 20.7 % of SOSCF)
Finished LeanSCF after   7.0 sec

Maximum memory used throughout the entire LEANSCF-calculation: 12.8 MB


-------------------------------------------------------------------------------
                          DFT DISPERSION CORRECTION                            
                                                                               
                                DFTD4 V3.4.0                                   
-------------------------------------------------------------------------------
The PBE functional is recognized
Active option DFTDOPT                   ...         5   

-------------------------   ----------------
Dispersion correction           -0.018426155
-------------------------   ----------------

------------------   -----------------
gCP correction             0.085307107
------------------   -----------------

-------------------------   --------------------
FINAL SINGLE POINT ENERGY      -634.346865241237
-------------------------   --------------------


------------------------------------------------------------------------------
                              ORCA PROPERTY CALCULATIONS
------------------------------------------------------------------------------

GBWName                                 ... sp.gbw
Number of atoms                         ...     21
Number of basis functions               ...    130
Max core memory                         ...   1024 MB

Electric properties:
Dipole moment                           ... YES
Quadrupole moment                       ...  NO
Static polarizability (Dipole/Dipole)   ...  NO
Static polarizability (Dipole/Quad.)    ...  NO
Static polarizability (Quad./Quad.)     ...  NO
Static polarizability (Velocity)        ...  NO

Atomic electric properties:
Dipole moment                           ...  NO
Quadrupole moment                       ...  NO
Static polarizability                   ...  NO

Choice of electric origin               ... Center of mass
Position of electric origin             ...    -0.000000    -0.000005    -0.000006

General magnetic properties:
Magnetizability                         ...  NO

EPR properties:
g-Tensor (aka g-matrix)                 ...  NO
Zero-Field splitting spin-orbit         ...  NO
Zero-field splitting spin-spin          ...  NO
Hyperfine couplings                     ...  NO (   0 nuclei)
Quadrupole couplings                    ...  NO (   0 nuclei)
Contact density                         ...  NO (   0 nuclei)

NMR properties:
Chemical shifts                         ...  NO (   0 nuclei)
Spin-rotation constants                 ...  NO (   0 nuclei)
Spin-spin couplings                     ...  NO (   0 nuclei,    0 pairs)

Choice of magnetic origin               ... GIAO
Position of magnetic origin             ...     0.000000     0.000000     0.000000

Properties with geometric perturbations:
SCF Hessian                             ...  NO
IR spectrum                             ...  NO
VCD spectrum                            ...  NO
X-ray spectroscopy properties:
SCF XES/XAS/RIXS spectra                ...  NO


-------------
DIPOLE MOMENT
-------------

Method             : SCF
Type of density    : Electron Density
Multiplicity       :   1
Irrep              :   0
Energy             :  -634.4137461934897146 Eh
Relativity type    : 
Basis              : AO
                                X                 Y                 Z
Electronic contribution:      0.036186509       2.576120125       3.168654482
Nuclear contribution   :     -0.097079751      -3.052734259      -3.544113738
                        -----------------------------------------
Total Dipole Moment    :     -0.060893242      -0.476614134      -0.375459256
                        -----------------------------------------
Magnitude (a.u.)       :      0.609785759
Magnitude (Debye)      :      1.549952223



--------------------
Rotational spectrum 
--------------------
 
Rotational constants in cm-1:             0.119322             0.041051             0.036233 
Rotational constants in MHz :          3577.195305          1230.685051          1086.223073 

Dipole components along the rotational axes: 
x,y,z [a.u.] :    -0.023258     0.209970    -0.572023 
x,y,z [Debye]:    -0.059118     0.533702    -1.453967 

 

Dipole moment calculation done in   0.0 sec 

Maximum memory used throughout the entire PROP-calculation: 7.9 MB

--------------------------------
SUGGESTED CITATIONS FOR THIS RUN
--------------------------------

Below you find a list of papers that are relevant to this ORCA run
We neither can nor want to force you to cite these papers, but we appreciate if you do
You receive ORCA, which is the product of decades of hard work by many enthusiastic individuals, for free
The only thing we kindly ask in return is that you cite our papers,
We deeply appreciate it, if you show your appreciation for ORCA by not just citing the generic ORCA reference.

Please note that relegating all ORCA citations to the supporting information does *not* help us.
SI sections are not indexed - citations you put there will not count into any citation statistics
But we need these citations in order to attract the funding resources that allow us to do what we are doing

Therefore, if you are a happy ORCA user, please consider citing a few of the papers listed below in the main body of your paper

In addition to the list printed below, the program has created the file sp.bibtex that contains the list in bibtex format
You can import this file easily into all common literature databanks and citation aid programs


List of essential papers. We consider these as the minimum necessary citations

  1. Neese,F.
     Software update: the ORCA program system, version 5.0
     WIRES Comput. Molec. Sci., 2022 12(1)e1606
     doi.org/10.1002/wcms.1606

List of papers to cite with high priority. The work reported in these papers was absolutely
necessary for this run to complete.
Our perspective: the developers of density functionals and basis sets usually get cited in chemistry papers
Good! But without the algorithms to do something with them, the functionals or basis sets would not do anything.
Hence, in our opinion, the algorithm design and method developments papers are equally worthy of getting cited

  1. Neese,F.
     An improvement of the resolution of the identity approximation for the formation of the Coulomb matrix
     J. Comp. Chem., 2003 24(14)1740-1747
     doi.org/10.1002/jcc.10318
  2. Neese,F.
     The SHARK Integral Generation and Digestion System
     J. Comp. Chem., 2022  1-16
     doi.org/10.1002/jcc.26942
  3. Caldeweyher,E.; Bannwarth,C.; Grimme,S.
     Extension of the D3 dispersion coefficient model
     J. Chem. Phys., 2017 147 034112-XXXX
     doi.org/10.1063/1.4993215
  4. Caldeweyher,E.; Ehlert,S.; Hansen,A.; Neugebauer,H.; Spicher,S.; Bannwarth,C.; Grimme,S.
     A generally applicable atomic-charge dependent London dispersion correction
     J. Chem. Phys., 2019 150 154122-XXXX
     doi.org/10.1063/1.5090222
  5. Caldeweyher,E.; Mewes,J.; Ehlert,S.; Grimme,S.
     Extension and evaluation of the D4 London-dispersion model for periodic systems
     Phys. Chem. Chem. Phys., 2020 22(16)8499-8512
     doi.org/10.1039/D0CP00502A

List of suggested additional citations. These are papers that are important in the 'surrounding' of 
of this run, or papers that preceded the highly important papers. If you like your results we are grateful for a citation.

  1. Neese,F.
     The ORCA program system
     WIRES Comput. Molec. Sci., 2012 2(1)73-78
     doi.org/10.1002/wcms.81
  2. Neese,F.
     Software update: the ORCA program system, version 4.0
     WIRES Comput. Molec. Sci., 2018 8(1)1-6
     doi.org/10.1002/wcms.1327
  3. Neese,F.; Wennmohs,F.; Becker,U.; Riplinger,C.
     The ORCA quantum chemistry program package
     J. Chem. Phys., 2020 152 Art. No. L224108
     doi.org/10.1063/5.0004608

List of optional additional citations

  1. Neese,F.
     Approximate second-order SCF convergence for spin unrestricted wavefunctions
     Chem. Phys. Lett., 2000 325(1-3)93-98
     doi.org/10.1016/s0009-2614(00)00662-x

Timings for individual modules:

Sum of individual times          ...        8.662 sec (=   0.144 min)
Startup calculation              ...        0.755 sec (=   0.013 min)   8.7 %
SCF iterations                   ...        7.797 sec (=   0.130 min)  90.0 %
Property calculations            ...        0.110 sec (=   0.002 min)   1.3 %
                             ****ORCA TERMINATED NORMALLY****
TOTAL RUN TIME: 0 days 0 hours 0 minutes 9 seconds 343 msec
