      -----------------------------------------------------------      
     |                   =====================                   |     
     |                           x T B                           |     
     |                   =====================                   |     
     |                         S. Grimme                         |     
     |          Mulliken Center for Theoretical Chemistry        |     
     |                    University of Bonn                     |     
      -----------------------------------------------------------      

   * xtb version 6.7.1 (edcfbbe) compiled by 'albert@albert-system' on 2024-07-22

   xtb is free software: you can redistribute it and/or modify it under
   the terms of the GNU Lesser General Public License as published by
   the Free Software Foundation, either version 3 of the License, or
   (at your option) any later version.
   
   xtb is distributed in the hope that it will be useful,
   but WITHOUT ANY WARRANTY; without even the implied warranty of
   MERCHANTABILITY or FITNESS FOR A PARTICULAR PURPOSE.  See the
   GNU Lesser General Public License for more details.
   
   Cite this work as:
   * C. Bannwarth, E. Caldeweyher, S. Ehlert, A. Hansen, P. Pracht,
     J. Seibert, S. Spicher, S. Grimme, WIREs Comput. Mol. Sci., 2020, 11,
     e01493. DOI: 10.1002/wcms.1493
   
   for GFN2-xTB:
   * C. Bannwarth, S. Ehlert and S. Grimme., J. Chem. Theory Comput., 2019,
     15, 1652-1671. DOI: 10.1021/acs.jctc.8b01176
   for GFN1-xTB:
   * S. Grimme, C. Bannwarth, P. Shushkov, J. Chem. Theory Comput., 2017,
     13, 1989-2009. DOI: 10.1021/acs.jctc.7b00118
   for GFN0-xTB:
   * P. Pracht, E. Caldeweyher, S. Ehlert, S. Grimme, ChemRxiv, 2019, preprint.
     DOI: 10.26434/chemrxiv.8326202.v1
   for GFN-FF:
   * S. Spicher and S. Grimme, Angew. Chem. Int. Ed., 2020, 59, 15665-15673.
     DOI: 10.1002/anie.202004239
   
   for ALPB and GBSA implicit solvation:
   * S. Ehlert, M. Stahn, S. Spicher, S. Grimme, J. Chem. Theory Comput.,
     2021, 17, 4250-4261. DOI: 10.1021/acs.jctc.1c00471
   
   for ddCOSMO and CPCM-X implicit solvation:
   * M. Stahn, S. Ehlert, S. Grimme, J. Phys. Chem. A,
     2023, XX, XXXX-XXXX. DOI: 10.1021/acs.jpca.3c04382
   
   for DFT-D4:
   * E. Caldeweyher, C. Bannwarth and S. Grimme, J. Chem. Phys., 2017,
     147, 034112. DOI: 10.1063/1.4993215
   * E. Caldeweyher, S. Ehlert, A. Hansen, H. Neugebauer, S. Spicher,
     C. Bannwarth and S. Grimme, J. Chem. Phys., 2019, 150, 154122.
     DOI: 10.1063/1.5090222
   * E. Caldeweyher, J.-M. Mewes, S. Ehlert and S. Grimme, Phys. Chem. Chem. Phys.
     2020, 22, 8499-8512. DOI: 10.1039/D0CP00502A
   
   for sTDA-xTB:
   * S. Grimme and C. Bannwarth, J. Chem. Phys., 2016, 145, 054103.
     DOI: 10.1063/1.4959605
   
   in the mass-spec context:
   * V. Asgeirsson, C. Bauer and S. Grimme, Chem. Sci., 2017, 8, 4879.
     DOI: 10.1039/c7sc00601b
   * J. Koopman and S. Grimme, ACS Omega 2019, 4, 12, 15120-15133.
     DOI: 10.1021/acsomega.9b02011
   
   for metadynamics refer to:
   * S. Grimme, J. Chem. Theory Comput., 2019, 155, 2847-2862
     DOI: 10.1021/acs.jctc.9b00143
   
   for SPH calculations refer to:
   * S. Spicher and S. Grimme, J. Chem. Theory Comput., 2021, 17, 1701-1714
     DOI: 10.1021/acs.jctc.0c01306
   
   for ONIOM refer to:
   * C. Plett, A. Katbashev, S. Ehlert, S. Grimme, M. Bursch,
     Phys. Chem. Chem. Phys., 2023, 25, 17860-17868. DOI: 10.1039/D3CP02178E
   
   for DIPRO refer to:
   * J. Kohn, N. Gildemeister, S. Grimme, D. Fazzi, A. Hansen,
     J. Chem. Phys., 2023, just accepted.
   
   for PTB refer to:
   * S. Grimme, M. Mueller, A. Hansen, J. Chem. Phys., 2023, 158, 124111.
     DOI: 10.1063/5.0137838
   
   with help from (in alphabetical order)
   P. Atkinson, C. Bannwarth, F. Bohle, G. Brandenburg, E. Caldeweyher
   M. Checinski, S. Dohm, S. Ehlert, S. Ehrlich, I. Gerasimov, C. Hölzer
   A. Katbashev, J. Kohn, J. Koopman, C. Lavigne, S. Lehtola, F. März, M. Müller,
   F. Musil, H. Neugebauer, J. Pisarek, C. Plett, P. Pracht, F. Pultar,
   J. Seibert, P. Shushkov, S. Spicher, M. Stahn, M. Steiner, T. Strunk,
   J. Stückrath, T. Rose, and J. Unsleber
   
 * started run on 2025/04/11 at 15:53:53.489     
   ID    Z sym.   atoms
    1    6 C      1-4, 7, 8
    2    8 O      5, 6
    3    1 H      9-20

           -------------------------------------------------
          |                Calculation Setup                |
           -------------------------------------------------

          program call               : /srv/scratch/z5358697/.xtb/bin/xtb gas.coord --gfn2 --sp --chrg 0 --norestart --parallel 1
          hostname                   : k061
          coordinate file            : gas.coord
          omp threads                :                     1


           -------------------------------------------------
          |                 G F N 2 - x T B                 |
           -------------------------------------------------

        Reference                      10.1021/acs.jctc.8b01176
      * Hamiltonian:
        H0-scaling (s, p, d)           1.850000    2.230000    2.230000
        zeta-weighting                 0.500000
      * Dispersion:
        s8                             2.700000
        a1                             0.520000
        a2                             5.000000
        s9                             5.000000
      * Repulsion:
        kExp                           1.500000    1.000000
        rExp                           1.000000
      * Coulomb:
        alpha                          2.000000
        third order                    shell-resolved
        anisotropic                    true
        a3                             3.000000
        a5                             4.000000
        cn-shift                       1.200000
        cn-exp                         4.000000
        max-rad                        5.000000


          ...................................................
          :                      SETUP                      :
          :.................................................:
          :  # basis functions                  44          :
          :  # atomic orbitals                  44          :
          :  # shells                           28          :
          :  # electrons                        48          :
          :  max. iterations                   250          :
          :  Hamiltonian                  GFN2-xTB          :
          :  restarted?                      false          :
          :  GBSA solvation                  false          :
          :  PC potential                    false          :
          :  electronic temp.          300.0000000     K    :
          :  accuracy                    1.0000000          :
          :  -> integral cutoff          0.2500000E+02      :
          :  -> integral neglect         0.1000000E-07      :
          :  -> SCF convergence          0.1000000E-05 Eh   :
          :  -> wf. convergence          0.1000000E-03 e    :
          :  Broyden damping             0.4000000          :
          :  net charge                          0          :
          :  unpaired electrons                  0          :
          ...................................................

 iter      E             dE          RMSdq      gap      omega  full diag
   1    -27.3563625 -0.273564E+02  0.389E+00    5.94       0.0  T
   2    -27.4267262 -0.703637E-01  0.202E+00    4.70       1.0  T
   3    -27.4300330 -0.330676E-02  0.114E+00    5.19       1.0  T
   4    -27.4323625 -0.232952E-02  0.172E-01    4.90       1.0  T
   5    -27.4326293 -0.266765E-03  0.722E-02    4.97       1.0  T
   6    -27.4326346 -0.532558E-05  0.250E-02    4.96       1.0  T
   7    -27.4326360 -0.138976E-05  0.741E-03    4.96       3.0  T
   8    -27.4326361 -0.127556E-06  0.185E-03    4.96      12.1  T
   9    -27.4326361 -0.698057E-08  0.899E-04    4.96      24.9  T
  10    -27.4326361 -0.242076E-08  0.237E-04    4.96      94.2  T

   *** convergence criteria satisfied after 10 iterations ***

         #    Occupation            Energy/Eh            Energy/eV
      -------------------------------------------------------------
         1        2.0000           -0.7407245             -20.1561
       ...           ...                  ...                  ...
        18        2.0000           -0.4735540             -12.8861
        19        2.0000           -0.4512610             -12.2794
        20        2.0000           -0.4496035             -12.2343
        21        2.0000           -0.4474370             -12.1754
        22        2.0000           -0.4442913             -12.0898
        23        2.0000           -0.4390593             -11.9474
        24        2.0000           -0.4078712             -11.0987 (HOMO)
        25                         -0.2254373              -6.1345 (LUMO)
        26                         -0.0015296              -0.0416
        27                          0.0939035               2.5552
        28                          0.1084916               2.9522
        29                          0.1187428               3.2312
       ...                                ...                  ...
        44                          0.6311337              17.1740
      -------------------------------------------------------------
                  HL-Gap            0.1824339 Eh            4.9643 eV
             Fermi-level           -0.3166543 Eh           -8.6166 eV

 SCC (total)                   0 d,  0 h,  0 min,  0.036 sec
 SCC setup                      ...        0 min,  0.001 sec (  1.405%)
 Dispersion                     ...        0 min,  0.000 sec (  0.852%)
 classical contributions        ...        0 min,  0.000 sec (  0.195%)
 integral evaluation            ...        0 min,  0.006 sec ( 15.351%)
 iterations                     ...        0 min,  0.022 sec ( 60.327%)
 molecular gradient             ...        0 min,  0.008 sec ( 21.407%)
 printout                       ...        0 min,  0.000 sec (  0.384%)

         :::::::::::::::::::::::::::::::::::::::::::::::::::::
         ::                     SUMMARY                     ::
         :::::::::::::::::::::::::::::::::::::::::::::::::::::
         :: total energy             -27.116295183049 Eh    ::
         :: gradient norm              0.026099016545 Eh/a0 ::
         :: HOMO-LUMO gap              4.964278364083 eV    ::
         ::.................................................::
         :: SCC energy               -27.432564489025 Eh    ::
         :: -> isotropic ES            0.048067746378 Eh    ::
         :: -> anisotropic ES          0.002735695160 Eh    ::
         :: -> anisotropic XC          0.007720914908 Eh    ::
         :: -> dispersion             -0.012227631404 Eh    ::
         :: repulsion energy           0.316269305976 Eh    ::
         :: add. restraining           0.000000000000 Eh    ::
         :: total charge              -0.000000000000 e     ::
         :::::::::::::::::::::::::::::::::::::::::::::::::::::

           -------------------------------------------------
          |                Property Printout                |
           -------------------------------------------------

    * Orbital Energies and Occupations

         #    Occupation            Energy/Eh            Energy/eV
      -------------------------------------------------------------
         1        2.0000           -0.7407245             -20.1561
       ...           ...                  ...                  ...
        12        2.0000           -0.5186327             -14.1127
        13        2.0000           -0.5143760             -13.9969
        14        2.0000           -0.5010602             -13.6345
        15        2.0000           -0.4990378             -13.5795
        16        2.0000           -0.4873462             -13.2614
        17        2.0000           -0.4799084             -13.0590
        18        2.0000           -0.4735540             -12.8861
        19        2.0000           -0.4512610             -12.2794
        20        2.0000           -0.4496035             -12.2343
        21        2.0000           -0.4474370             -12.1754
        22        2.0000           -0.4442913             -12.0898
        23        2.0000           -0.4390593             -11.9474
        24        2.0000           -0.4078712             -11.0987 (HOMO)
        25                         -0.2254373              -6.1345 (LUMO)
        26                         -0.0015296              -0.0416
        27                          0.0939035               2.5552
        28                          0.1084916               2.9522
        29                          0.1187428               3.2312
        30                          0.1241989               3.3796
        31                          0.1455990               3.9620
        32                          0.1501788               4.0866
        33                          0.1547206               4.2102
        34                          0.1615569               4.3962
        35                          0.1753419               4.7713
       ...                                ...                  ...
        44                          0.6311337              17.1740
      -------------------------------------------------------------
                  HL-Gap            0.1824339 Eh            4.9643 eV
             Fermi-level           -0.3166543 Eh           -8.6166 eV

     #   Z          covCN         q      C6AA      α(0)
     1   6 C        3.752    -0.103    22.537     6.770
     2   6 C        3.802    -0.049    21.460     6.595
     3   6 C        3.804    -0.091    22.229     6.712
     4   6 C        2.713     0.361    20.882     7.480
     5   8 O        0.856    -0.425    22.177     6.314
     6   8 O        1.703    -0.266    18.406     5.792
     7   6 C        3.693     0.077    19.458     6.311
     8   6 C        3.750    -0.112    22.714     6.797
     9   1 H        0.925     0.039     2.459     2.452
    10   1 H        0.925     0.039     2.463     2.454
    11   1 H        0.925     0.037     2.494     2.470
    12   1 H        0.924     0.051     2.306     2.375
    13   1 H        0.924     0.041     2.438     2.442
    14   1 H        0.924     0.065     2.138     2.286
    15   1 H        0.925     0.059     2.208     2.324
    16   1 H        0.924     0.056     2.247     2.344
    17   1 H        0.924     0.059     2.210     2.325
    18   1 H        0.925     0.050     2.318     2.381
    19   1 H        0.925     0.060     2.202     2.321
    20   1 H        0.925     0.052     2.290     2.367

 Mol. C6AA /au·bohr⁶  :       3019.735795
 Mol. C8AA /au·bohr⁸  :      64024.535933
 Mol. α(0) /au        :         81.312192


Wiberg/Mayer (AO) data.
largest (>0.10) Wiberg bond orders for each atom

 ---------------------------------------------------------------------------
     #   Z sym  total        # sym  WBO       # sym  WBO       # sym  WBO
 ---------------------------------------------------------------------------
     1   6 C    3.997 --     2 C    1.021    10 H    0.987    11 H    0.987
                             9 H    0.987
     2   6 C    3.994 --     1 C    1.021     3 C    0.987    13 H    0.977
                            12 H    0.977
     3   6 C    3.994 --     2 C    0.987    15 H    0.975     4 C    0.973
                            14 H    0.958
     4   6 C    3.914 --     5 O    1.737     6 O    1.148     3 C    0.973
     5   8 O    2.019 --     4 C    1.737     6 O    0.174
     6   8 O    2.315 --     4 C    1.148     7 C    0.932     5 O    0.174
     7   6 C    3.927 --     8 C    1.014    16 H    0.973    17 H    0.970
                             6 O    0.932
     8   6 C    3.992 --     7 C    1.014    20 H    0.986    19 H    0.985
                            18 H    0.983
     9   1 H    0.998 --     1 C    0.987
    10   1 H    0.998 --     1 C    0.987
    11   1 H    0.999 --     1 C    0.987
    12   1 H    0.997 --     2 C    0.977
    13   1 H    0.998 --     2 C    0.977
    14   1 H    0.996 --     3 C    0.958
    15   1 H    0.996 --     3 C    0.975
    16   1 H    0.997 --     7 C    0.973
    17   1 H    0.996 --     7 C    0.970
    18   1 H    0.997 --     8 C    0.983
    19   1 H    0.996 --     8 C    0.985
    20   1 H    0.997 --     8 C    0.986
 ---------------------------------------------------------------------------

Topologies differ in total number of bonds
Writing topology from bond orders to xtbtopo.mol

molecular dipole:
                 x           y           z       tot (Debye)
 q only:        0.063      -0.514      -0.622
   full:        0.078      -0.476      -0.739       2.242
molecular quadrupole (traceless):
                xx          xy          yy          xz          yz          zz
 q only:        7.026      -1.783      -2.036      -0.031      -3.155      -4.991
  q+dip:        6.531      -1.424      -1.901      -0.142      -3.220      -4.630
   full:        6.676      -1.375      -1.248      -0.204      -3.889      -5.428


           -------------------------------------------------
          | TOTAL ENERGY              -27.116295183049 Eh   |
          | GRADIENT NORM               0.026099016545 Eh/α |
          | HOMO-LUMO GAP               4.964278364083 eV   |
           -------------------------------------------------

------------------------------------------------------------------------
 * finished run on 2025/04/11 at 15:53:53.600     
------------------------------------------------------------------------
 total:
 * wall-time:     0 d,  0 h,  0 min,  0.110 sec
 *  cpu-time:     0 d,  0 h,  0 min,  0.037 sec
 * ratio c/w:     0.336 speedup
 SCF:
 * wall-time:     0 d,  0 h,  0 min,  0.036 sec
 *  cpu-time:     0 d,  0 h,  0 min,  0.026 sec
 * ratio c/w:     0.733 speedup

