20
 energy: -386.243209691025 gnorm: 0.001845953670 xtb: 6.7.1 (edcfbbe)
C           -2.61945516230076       -1.24122477623496       -0.11969200148561
C           -2.52437122792884        0.27602767353472        0.01287146290012
C           -1.24667852805133        0.71827630695518        0.73796096371762
C           -0.01714659530927        0.32023779317892       -0.03167979713850
O            0.16299943215633        0.57212876492781       -1.21295850831524
O            0.86923953019798       -0.35025041594150        0.72901346422257
C            2.12116891564418       -0.76239241765590        0.08992933190149
C            3.12728578708521        0.36712044469976        0.09127100358319
H           -1.78379539972371       -1.64243472218388       -0.70521037292704
H           -2.60075885749427       -1.72294633723565        0.86414597729277
H           -3.54652403981176       -1.53480220703522       -0.62189198071513
H           -3.38189806083089        0.65784107335747        0.57658057841947
H           -2.55726793728145        0.74516734518821       -0.97660752570002
H           -1.20553437107453        0.29959791016250        1.74669990075842
H           -1.22356926240422        1.81203419982050        0.82250473363872
H            2.46092950208744       -1.60203190497876        0.70042567653951
H            1.89895157075154       -1.11631230252679       -0.92082975898515
H            2.78640032904937        1.20712487695035       -0.52095263568847
H            3.31369465062863        0.71993146398072        1.11047444584601
H            4.07172562260447        0.00013448238331       -0.32266712188708
20
 energy: -386.243215410039 gnorm: 0.001462248547 xtb: 6.7.1 (edcfbbe)
C           -2.61971699649640       -1.23983304829619       -0.11915632528787
C           -2.52431258731335        0.27686814088825        0.01208424413570
C           -1.24637699759015        0.71680970502333        0.73709299447111
C           -0.01504743008895        0.32152110712092       -0.03059487267754
O            0.16306477496243        0.56771951515326       -1.21316291861893
O            0.86990678489720       -0.35201634605689        0.72934651718553
C            2.12203612587109       -0.76294180417350        0.08961021112578
C            3.12529501149807        0.36726125668602        0.09128971576698
H           -1.78383217163748       -1.64182980435114       -0.70395915402222
H           -2.60122587632047       -1.72026789027112        0.86516823548046
H           -3.54645342114935       -1.53382147377607       -0.62122049751112
H           -3.38201993682383        0.65948705708608        0.57507368461520
H           -2.55636815120933        0.74562965118018       -0.97740573764532
H           -1.20623919609931        0.29758693777724        1.74545305941948
H           -1.22227989911344        1.81005663830681        0.82310371862795
H            2.46364270306850       -1.60146378559903        0.69894589093410
H            1.90062034015377       -1.11726983922121       -0.91996993833490
H            2.78213825929960        1.20725819147285       -0.51813615946820
H            3.31195787826770        0.71844507366804        1.11011013893906
H            4.07060629949208        0.00402761376636       -0.32428499052526
20
 energy: -386.243221753636 gnorm: 0.000818744090 xtb: 6.7.1 (edcfbbe)
C           -2.62086827089382       -1.23835259542430       -0.11884532590963
C           -2.52344547182719        0.27807243199788        0.01117901163031
C           -1.24540721864762        0.71543242615406        0.73686823165590
C           -0.01616493440934        0.31578635266387       -0.03164699802207
O            0.16349224484864        0.56407607143716       -1.21344892484766
O            0.86994121835130       -0.35557570804141        0.72916755254421
C            2.12332700614155       -0.76324089283214        0.08967124908107
C            3.12330913199751        0.36889231485298        0.09141324564502
H           -1.78505213679169       -1.64175180372716       -0.70283644774714
H           -2.60285324379970       -1.71760880457714        0.86602114614803
H           -3.54755510487597       -1.53236799215718       -0.62077920439632
H           -3.38065098259004        0.66249336923063        0.57373914801354
H           -2.55448832180064        0.74639074044591       -0.97849356599245
H           -1.20644631935739        0.29508695654367        1.74475646665060
H           -1.21829328161460        1.80844335768314        0.82448830112735
H            2.46685014374107       -1.60058420884996        0.69902838420639
H            1.90269893144094       -1.11872275095242       -0.91927080226257
H            2.77725932485888        1.20887034654040       -0.51590037818400
H            3.31049649636856        0.71869965293597        1.11031394003196
H            4.06924555371230        0.00918679708589       -0.32603708298868
20
 energy: -386.243226380750 gnorm: 0.000607322836 xtb: 6.7.1 (edcfbbe)
C           -2.62318532482253       -1.23732899366814       -0.11874036071768
C           -2.52247819475301        0.27907579785465        0.01057101899635
C           -1.24385301050201        0.71368247865768        0.73678448711246
C           -0.01558742812138        0.31212099132494       -0.03236995683829
O            0.16378938088837        0.55932491077972       -1.21444403330300
O            0.87082886625218       -0.35862039691467        0.72909430115593
C            2.12514836238100       -0.76432157020656        0.08988219427957
C            3.12154279768692        0.37133689306269        0.09171971343765
H           -1.78766068551901       -1.64257420941312       -0.70185455027274
H           -2.60627799966606       -1.71584180120131        0.86658083209839
H           -3.55013461129851       -1.53036271208256       -0.62090972565742
H           -3.37908631377403        0.66580777908190        0.57243874407277
H           -2.55191828253038        0.74710906511159       -0.97937238722942
H           -1.20577614462442        0.29205013211349        1.74432535232974
H           -1.21403373349390        1.80671458390514        0.82560540203940
H            2.47008010383842       -1.60086046194825        0.70034437467136
H            1.90476373243760       -1.12078021904213       -0.91929962561874
H            2.77183485114300        1.21155194565750       -0.51391691255542
H            3.30983718397300        0.72015275791628        1.11118725093879
H            4.06756032416841        0.01498798134873       -0.32823797458474
20
 energy: -386.243226380750 gnorm: 0.000607322836 xtb: 6.7.1 (edcfbbe)
C           -2.62318532482253       -1.23732899366814       -0.11874036071768
C           -2.52247819475301        0.27907579785465        0.01057101899635
C           -1.24385301050201        0.71368247865768        0.73678448711246
C           -0.01558742812138        0.31212099132494       -0.03236995683829
O            0.16378938088837        0.55932491077972       -1.21444403330300
O            0.87082886625218       -0.35862039691467        0.72909430115593
C            2.12514836238100       -0.76432157020656        0.08988219427957
C            3.12154279768692        0.37133689306269        0.09171971343765
H           -1.78766068551901       -1.64257420941312       -0.70185455027274
H           -2.60627799966606       -1.71584180120131        0.86658083209839
H           -3.55013461129851       -1.53036271208256       -0.62090972565742
H           -3.37908631377403        0.66580777908190        0.57243874407277
H           -2.55191828253038        0.74710906511159       -0.97937238722942
H           -1.20577614462442        0.29205013211349        1.74432535232974
H           -1.21403373349390        1.80671458390514        0.82560540203940
H            2.47008010383842       -1.60086046194825        0.70034437467136
H            1.90476373243760       -1.12078021904213       -0.91929962561874
H            2.77183485114300        1.21155194565750       -0.51391691255542
H            3.30983718397300        0.72015275791628        1.11118725093879
H            4.06756032416841        0.01498798134873       -0.32823797458474
