      -----------------------------------------------------------      
     |                   =====================                   |     
     |                           x T B                           |     
     |                   =====================                   |     
     |                         S. Grimme                         |     
     |          Mulliken Center for Theoretical Chemistry        |     
     |                    University of Bonn                     |     
      -----------------------------------------------------------      

   * xtb version 6.7.1 (edcfbbe) compiled by 'albert@albert-system' on 2024-07-22

   xtb is free software: you can redistribute it and/or modify it under
   the terms of the GNU Lesser General Public License as published by
   the Free Software Foundation, either version 3 of the License, or
   (at your option) any later version.
   
   xtb is distributed in the hope that it will be useful,
   but WITHOUT ANY WARRANTY; without even the implied warranty of
   MERCHANTABILITY or FITNESS FOR A PARTICULAR PURPOSE.  See the
   GNU Lesser General Public License for more details.
   
   Cite this work as:
   * C. Bannwarth, E. Caldeweyher, S. Ehlert, A. Hansen, P. Pracht,
     J. Seibert, S. Spicher, S. Grimme, WIREs Comput. Mol. Sci., 2020, 11,
     e01493. DOI: 10.1002/wcms.1493
   
   for GFN2-xTB:
   * C. Bannwarth, S. Ehlert and S. Grimme., J. Chem. Theory Comput., 2019,
     15, 1652-1671. DOI: 10.1021/acs.jctc.8b01176
   for GFN1-xTB:
   * S. Grimme, C. Bannwarth, P. Shushkov, J. Chem. Theory Comput., 2017,
     13, 1989-2009. DOI: 10.1021/acs.jctc.7b00118
   for GFN0-xTB:
   * P. Pracht, E. Caldeweyher, S. Ehlert, S. Grimme, ChemRxiv, 2019, preprint.
     DOI: 10.26434/chemrxiv.8326202.v1
   for GFN-FF:
   * S. Spicher and S. Grimme, Angew. Chem. Int. Ed., 2020, 59, 15665-15673.
     DOI: 10.1002/anie.202004239
   
   for ALPB and GBSA implicit solvation:
   * S. Ehlert, M. Stahn, S. Spicher, S. Grimme, J. Chem. Theory Comput.,
     2021, 17, 4250-4261. DOI: 10.1021/acs.jctc.1c00471
   
   for ddCOSMO and CPCM-X implicit solvation:
   * M. Stahn, S. Ehlert, S. Grimme, J. Phys. Chem. A,
     2023, XX, XXXX-XXXX. DOI: 10.1021/acs.jpca.3c04382
   
   for DFT-D4:
   * E. Caldeweyher, C. Bannwarth and S. Grimme, J. Chem. Phys., 2017,
     147, 034112. DOI: 10.1063/1.4993215
   * E. Caldeweyher, S. Ehlert, A. Hansen, H. Neugebauer, S. Spicher,
     C. Bannwarth and S. Grimme, J. Chem. Phys., 2019, 150, 154122.
     DOI: 10.1063/1.5090222
   * E. Caldeweyher, J.-M. Mewes, S. Ehlert and S. Grimme, Phys. Chem. Chem. Phys.
     2020, 22, 8499-8512. DOI: 10.1039/D0CP00502A
   
   for sTDA-xTB:
   * S. Grimme and C. Bannwarth, J. Chem. Phys., 2016, 145, 054103.
     DOI: 10.1063/1.4959605
   
   in the mass-spec context:
   * V. Asgeirsson, C. Bauer and S. Grimme, Chem. Sci., 2017, 8, 4879.
     DOI: 10.1039/c7sc00601b
   * J. Koopman and S. Grimme, ACS Omega 2019, 4, 12, 15120-15133.
     DOI: 10.1021/acsomega.9b02011
   
   for metadynamics refer to:
   * S. Grimme, J. Chem. Theory Comput., 2019, 155, 2847-2862
     DOI: 10.1021/acs.jctc.9b00143
   
   for SPH calculations refer to:
   * S. Spicher and S. Grimme, J. Chem. Theory Comput., 2021, 17, 1701-1714
     DOI: 10.1021/acs.jctc.0c01306
   
   for ONIOM refer to:
   * C. Plett, A. Katbashev, S. Ehlert, S. Grimme, M. Bursch,
     Phys. Chem. Chem. Phys., 2023, 25, 17860-17868. DOI: 10.1039/D3CP02178E
   
   for DIPRO refer to:
   * J. Kohn, N. Gildemeister, S. Grimme, D. Fazzi, A. Hansen,
     J. Chem. Phys., 2023, just accepted.
   
   for PTB refer to:
   * S. Grimme, M. Mueller, A. Hansen, J. Chem. Phys., 2023, 158, 124111.
     DOI: 10.1063/5.0137838
   
   with help from (in alphabetical order)
   P. Atkinson, C. Bannwarth, F. Bohle, G. Brandenburg, E. Caldeweyher
   M. Checinski, S. Dohm, S. Ehlert, S. Ehrlich, I. Gerasimov, C. Hölzer
   A. Katbashev, J. Kohn, J. Koopman, C. Lavigne, S. Lehtola, F. März, M. Müller,
   F. Musil, H. Neugebauer, J. Pisarek, C. Plett, P. Pracht, F. Pultar,
   J. Seibert, P. Shushkov, S. Spicher, M. Stahn, M. Steiner, T. Strunk,
   J. Stückrath, T. Rose, and J. Unsleber
   
 * started run on 2025/04/11 at 12:27:10.751     
   ID    Z sym.   atoms
    1    6 C      1-3
    2    7 N      4
    3    8 O      5, 6
    4    1 H      7-13

           -------------------------------------------------
          |                Calculation Setup                |
           -------------------------------------------------

          program call               : /srv/scratch/z5358697/.xtb/bin/xtb gas.coord --gfn2 --sp --chrg 0 --norestart --parallel 1
          hostname                   : k061
          coordinate file            : gas.coord
          omp threads                :                     1


           -------------------------------------------------
          |                 G F N 2 - x T B                 |
           -------------------------------------------------

        Reference                      10.1021/acs.jctc.8b01176
      * Hamiltonian:
        H0-scaling (s, p, d)           1.850000    2.230000    2.230000
        zeta-weighting                 0.500000
      * Dispersion:
        s8                             2.700000
        a1                             0.520000
        a2                             5.000000
        s9                             5.000000
      * Repulsion:
        kExp                           1.500000    1.000000
        rExp                           1.000000
      * Coulomb:
        alpha                          2.000000
        third order                    shell-resolved
        anisotropic                    true
        a3                             3.000000
        a5                             4.000000
        cn-shift                       1.200000
        cn-exp                         4.000000
        max-rad                        5.000000


          ...................................................
          :                      SETUP                      :
          :.................................................:
          :  # basis functions                  31          :
          :  # atomic orbitals                  31          :
          :  # shells                           19          :
          :  # electrons                        36          :
          :  max. iterations                   250          :
          :  Hamiltonian                  GFN2-xTB          :
          :  restarted?                      false          :
          :  GBSA solvation                  false          :
          :  PC potential                    false          :
          :  electronic temp.          300.0000000     K    :
          :  accuracy                    1.0000000          :
          :  -> integral cutoff          0.2500000E+02      :
          :  -> integral neglect         0.1000000E-07      :
          :  -> SCF convergence          0.1000000E-05 Eh   :
          :  -> wf. convergence          0.1000000E-03 e    :
          :  Broyden damping             0.4000000          :
          :  net charge                          0          :
          :  unpaired electrons                  0          :
          ...................................................

 iter      E             dE          RMSdq      gap      omega  full diag
   1    -21.0074207 -0.210074E+02  0.517E+00    5.24       0.0  T
   2    -21.1434546 -0.136034E+00  0.216E+00    3.82       1.0  T
   3    -21.1448845 -0.142989E-02  0.129E+00    3.73       1.0  T
   4    -21.1452142 -0.329682E-03  0.161E-01    3.66       1.0  T
   5    -21.1452997 -0.854715E-04  0.859E-02    3.66       1.0  T
   6    -21.1453040 -0.430332E-05  0.190E-02    3.67       1.5  T
   7    -21.1453046 -0.618405E-06  0.928E-03    3.67       3.0  T
   8    -21.1453048 -0.178743E-06  0.221E-03    3.67      12.5  T
   9    -21.1453048 -0.189413E-07  0.105E-03    3.67      26.5  T
  10    -21.1453048 -0.119319E-08  0.234E-04    3.67     118.5  T
  11    -21.1453048 -0.101696E-09  0.696E-05    3.67     398.7  T

   *** convergence criteria satisfied after 11 iterations ***

         #    Occupation            Energy/Eh            Energy/eV
      -------------------------------------------------------------
         1        2.0000           -0.7785755             -21.1861
       ...           ...                  ...                  ...
        12        2.0000           -0.5022864             -13.6679
        13        2.0000           -0.4962568             -13.5038
        14        2.0000           -0.4766667             -12.9708
        15        2.0000           -0.4734341             -12.8828
        16        2.0000           -0.4581217             -12.4661
        17        2.0000           -0.4556764             -12.3996
        18        2.0000           -0.4454058             -12.1201 (HOMO)
        19                         -0.3106690              -8.4537 (LUMO)
        20                         -0.0286970              -0.7809
        21                          0.0747608               2.0343
        22                          0.1028997               2.8000
        23                          0.1040239               2.8306
       ...                                ...                  ...
        31                          0.4170047              11.3473
      -------------------------------------------------------------
                  HL-Gap            0.1347367 Eh            3.6664 eV
             Fermi-level           -0.3780374 Eh          -10.2869 eV

 SCC (total)                   0 d,  0 h,  0 min,  0.022 sec
 SCC setup                      ...        0 min,  0.000 sec (  1.453%)
 Dispersion                     ...        0 min,  0.000 sec (  0.461%)
 classical contributions        ...        0 min,  0.000 sec (  0.127%)
 integral evaluation            ...        0 min,  0.002 sec (  7.951%)
 iterations                     ...        0 min,  0.017 sec ( 78.109%)
 molecular gradient             ...        0 min,  0.002 sec ( 11.175%)
 printout                       ...        0 min,  0.000 sec (  0.646%)

         :::::::::::::::::::::::::::::::::::::::::::::::::::::
         ::                     SUMMARY                     ::
         :::::::::::::::::::::::::::::::::::::::::::::::::::::
         :: total energy             -20.953632086151 Eh    ::
         :: gradient norm              0.025938177346 Eh/a0 ::
         :: HOMO-LUMO gap              3.666372980369 eV    ::
         ::.................................................::
         :: SCC energy               -21.145301011103 Eh    ::
         :: -> isotropic ES            0.049933130816 Eh    ::
         :: -> anisotropic ES          0.009518468469 Eh    ::
         :: -> anisotropic XC          0.001492815642 Eh    ::
         :: -> dispersion             -0.006444513485 Eh    ::
         :: repulsion energy           0.191668924952 Eh    ::
         :: add. restraining           0.000000000000 Eh    ::
         :: total charge               0.000000000000 e     ::
         :::::::::::::::::::::::::::::::::::::::::::::::::::::

           -------------------------------------------------
          |                Property Printout                |
           -------------------------------------------------

    * Orbital Energies and Occupations

         #    Occupation            Energy/Eh            Energy/eV
      -------------------------------------------------------------
         1        2.0000           -0.7785755             -21.1861
       ...           ...                  ...                  ...
         6        2.0000           -0.6261229             -17.0377
         7        2.0000           -0.6016887             -16.3728
         8        2.0000           -0.5999700             -16.3260
         9        2.0000           -0.5823444             -15.8464
        10        2.0000           -0.5478512             -14.9078
        11        2.0000           -0.5216769             -14.1956
        12        2.0000           -0.5022864             -13.6679
        13        2.0000           -0.4962568             -13.5038
        14        2.0000           -0.4766667             -12.9708
        15        2.0000           -0.4734341             -12.8828
        16        2.0000           -0.4581217             -12.4661
        17        2.0000           -0.4556764             -12.3996
        18        2.0000           -0.4454058             -12.1201 (HOMO)
        19                         -0.3106690              -8.4537 (LUMO)
        20                         -0.0286970              -0.7809
        21                          0.0747608               2.0343
        22                          0.1028997               2.8000
        23                          0.1040239               2.8306
        24                          0.1248073               3.3962
        25                          0.1550057               4.2179
        26                          0.1861864               5.0664
        27                          0.1907712               5.1911
        28                          0.2355263               6.4090
        29                          0.2473701               6.7313
       ...                                ...                  ...
        31                          0.4170047              11.3473
      -------------------------------------------------------------
                  HL-Gap            0.1347367 Eh            3.6664 eV
             Fermi-level           -0.3780374 Eh          -10.2869 eV

     #   Z          covCN         q      C6AA      α(0)
     1   6 C        3.754    -0.112    22.698     6.794
     2   6 C        3.801    -0.060    21.651     6.625
     3   6 C        3.742    -0.067    21.859     6.670
     4   7 N        2.754     0.546    13.523     5.462
     5   8 O        0.929    -0.387    21.382     6.201
     6   8 O        0.928    -0.371    21.075     6.157
     7   1 H        0.925     0.043     2.405     2.425
     8   1 H        0.925     0.051     2.302     2.373
     9   1 H        0.925     0.043     2.405     2.425
    10   1 H        0.924     0.062     2.177     2.308
    11   1 H        0.924     0.062     2.178     2.308
    12   1 H        0.924     0.094     1.839     2.121
    13   1 H        0.924     0.094     1.839     2.121

 Mol. C6AA /au·bohr⁶  :       1381.708313
 Mol. C8AA /au·bohr⁸  :      28843.105798
 Mol. α(0) /au        :         53.988246


Wiberg/Mayer (AO) data.
largest (>0.10) Wiberg bond orders for each atom

 ---------------------------------------------------------------------------
     #   Z sym  total        # sym  WBO       # sym  WBO       # sym  WBO
 ---------------------------------------------------------------------------
     1   6 C    3.994 --     2 C    1.017     9 H    0.987     7 H    0.987
                             8 H    0.986
     2   6 C    3.988 --     1 C    1.017     3 C    1.010    11 H    0.974
                            10 H    0.974
     3   6 C    3.964 --     2 C    1.010    12 H    0.945    13 H    0.945
                             4 N    0.936
     4   7 N    3.911 --     6 O    1.481     5 O    1.466     3 C    0.936
     5   8 O    1.931 --     4 N    1.466     6 O    0.373
     6   8 O    1.950 --     4 N    1.481     5 O    0.373
     7   1 H    0.998 --     1 C    0.987
     8   1 H    0.997 --     1 C    0.986
     9   1 H    0.998 --     1 C    0.987
    10   1 H    0.996 --     2 C    0.974
    11   1 H    0.996 --     2 C    0.974
    12   1 H    0.991 --     3 C    0.945
    13   1 H    0.991 --     3 C    0.945
 ---------------------------------------------------------------------------

Topologies differ in total number of bonds
Writing topology from bond orders to xtbtopo.mol

molecular dipole:
                 x           y           z       tot (Debye)
 q only:       -1.672       0.385      -0.167
   full:       -1.723       0.470      -0.213       4.572
molecular quadrupole (traceless):
                xx          xy          yy          xz          yz          zz
 q only:       -2.975      -0.297       0.701       0.373       1.411       2.274
  q+dip:       -5.094      -0.612       0.856       0.713       3.009       4.238
   full:       -4.836      -0.534       0.718       0.660       3.022       4.119


           -------------------------------------------------
          | TOTAL ENERGY              -20.953632086151 Eh   |
          | GRADIENT NORM               0.025938177346 Eh/α |
          | HOMO-LUMO GAP               3.666372980369 eV   |
           -------------------------------------------------

------------------------------------------------------------------------
 * finished run on 2025/04/11 at 12:27:10.807     
------------------------------------------------------------------------
 total:
 * wall-time:     0 d,  0 h,  0 min,  0.055 sec
 *  cpu-time:     0 d,  0 h,  0 min,  0.023 sec
 * ratio c/w:     0.413 speedup
 SCF:
 * wall-time:     0 d,  0 h,  0 min,  0.022 sec
 *  cpu-time:     0 d,  0 h,  0 min,  0.010 sec
 * ratio c/w:     0.442 speedup

