20
 energy: -386.243117072324 gnorm: 0.001162958566 xtb: 6.7.1 (edcfbbe)
C           -3.64291078761487       -0.63462152424978        0.24423762250756
C           -2.32791781908691       -0.27876458893981       -0.44206454930076
C           -1.20567978259391       -0.08883961007931        0.57185364806652
C            0.11432404948052        0.26817005537599       -0.05041898933480
O            0.27373342048802        0.61942126314043       -1.20782095408695
O            1.11955642810926        0.17512907807543        0.84313359410572
C            2.46250311466121        0.51745165584311        0.37545028587982
C            3.10107322549218       -0.64485688861751       -0.35044801766895
H           -4.44289990950939       -0.77937777691766       -0.48836000326291
H           -3.54648324293941       -1.55880163269974        0.82474102320216
H           -3.95473238936253        0.16044712948264        0.93079671987972
H           -2.44868017351779        0.63895791997871       -1.02773028177484
H           -2.04655002199517       -1.06982469706074       -1.14695885475860
H           -1.06767782832424       -0.98696231753122        1.18454823991846
H           -1.45278942970288        0.71947688837674        1.27418817684992
H            2.40111084407318        1.41108782040897       -0.25080762609151
H            3.00432564129120        0.75954252546285        1.29174969820838
H            4.12372755644255       -0.37072240521322       -0.62893388559780
H            3.14676493783159       -1.52768172629747        0.29398006788681
H            2.55374732586651       -0.89764627953717       -1.26243527681769
20
 energy: -386.243121551259 gnorm: 0.000760240648 xtb: 6.7.1 (edcfbbe)
C           -3.64293607569561       -0.63456435663303        0.24438842586129
C           -2.32818672511297       -0.27802184337709       -0.44185907833624
C           -1.20542745526019       -0.09000804502205        0.57171994950243
C            0.11407615250121        0.26781626708180       -0.05121324456996
O            0.27296624238612        0.62180207408837       -1.20781616751775
O            1.11975618299639        0.17601497752065        0.84277792232007
C            2.46305029736969        0.51853360811203        0.37394448335533
C            3.10118411109718       -0.64539703243046       -0.34900896933237
H           -4.44297149966527       -0.77732458309470       -0.48826624302231
H           -3.54680980071630       -1.55984360490163        0.82281882455400
H           -3.95399485696618        0.15924389408556        0.93231894496811
H           -2.44899221230688        0.64045115506647       -1.02614827062788
H           -2.04763295997804       -1.06812478064963       -1.14793221736935
H           -1.06665381244458       -0.98961286856860        1.18204204191520
H           -1.45244381534974        0.71640323985043        1.27626574785897
H            2.40030880345492        1.41054520827491       -0.25452634551844
H            3.00460141057799        0.76293907928358        1.28979843798502
H            4.12409408357092       -0.37257919287414       -0.62735995641623
H            3.14618660474859       -1.52668041286148        0.29736010394901
H            2.55437035042419       -0.90000813919672       -1.26060247681434
20
 energy: -386.243121551259 gnorm: 0.000760240648 xtb: 6.7.1 (edcfbbe)
C           -3.64293607569561       -0.63456435663303        0.24438842586129
C           -2.32818672511297       -0.27802184337709       -0.44185907833624
C           -1.20542745526019       -0.09000804502205        0.57171994950243
C            0.11407615250121        0.26781626708180       -0.05121324456996
O            0.27296624238612        0.62180207408837       -1.20781616751775
O            1.11975618299639        0.17601497752065        0.84277792232007
C            2.46305029736969        0.51853360811203        0.37394448335533
C            3.10118411109718       -0.64539703243046       -0.34900896933237
H           -4.44297149966527       -0.77732458309470       -0.48826624302231
H           -3.54680980071630       -1.55984360490163        0.82281882455400
H           -3.95399485696618        0.15924389408556        0.93231894496811
H           -2.44899221230688        0.64045115506647       -1.02614827062788
H           -2.04763295997804       -1.06812478064963       -1.14793221736935
H           -1.06665381244458       -0.98961286856860        1.18204204191520
H           -1.45244381534974        0.71640323985043        1.27626574785897
H            2.40030880345492        1.41054520827491       -0.25452634551844
H            3.00460141057799        0.76293907928358        1.28979843798502
H            4.12409408357092       -0.37257919287414       -0.62735995641623
H            3.14618660474859       -1.52668041286148        0.29736010394901
H            2.55437035042419       -0.90000813919672       -1.26060247681434
