      -----------------------------------------------------------      
     |                   =====================                   |     
     |                           x T B                           |     
     |                   =====================                   |     
     |                         S. Grimme                         |     
     |          Mulliken Center for Theoretical Chemistry        |     
     |                    University of Bonn                     |     
      -----------------------------------------------------------      

   * xtb version 6.7.1 (edcfbbe) compiled by 'albert@albert-system' on 2024-07-22

   xtb is free software: you can redistribute it and/or modify it under
   the terms of the GNU Lesser General Public License as published by
   the Free Software Foundation, either version 3 of the License, or
   (at your option) any later version.
   
   xtb is distributed in the hope that it will be useful,
   but WITHOUT ANY WARRANTY; without even the implied warranty of
   MERCHANTABILITY or FITNESS FOR A PARTICULAR PURPOSE.  See the
   GNU Lesser General Public License for more details.
   
   Cite this work as:
   * C. Bannwarth, E. Caldeweyher, S. Ehlert, A. Hansen, P. Pracht,
     J. Seibert, S. Spicher, S. Grimme, WIREs Comput. Mol. Sci., 2020, 11,
     e01493. DOI: 10.1002/wcms.1493
   
   for GFN2-xTB:
   * C. Bannwarth, S. Ehlert and S. Grimme., J. Chem. Theory Comput., 2019,
     15, 1652-1671. DOI: 10.1021/acs.jctc.8b01176
   for GFN1-xTB:
   * S. Grimme, C. Bannwarth, P. Shushkov, J. Chem. Theory Comput., 2017,
     13, 1989-2009. DOI: 10.1021/acs.jctc.7b00118
   for GFN0-xTB:
   * P. Pracht, E. Caldeweyher, S. Ehlert, S. Grimme, ChemRxiv, 2019, preprint.
     DOI: 10.26434/chemrxiv.8326202.v1
   for GFN-FF:
   * S. Spicher and S. Grimme, Angew. Chem. Int. Ed., 2020, 59, 15665-15673.
     DOI: 10.1002/anie.202004239
   
   for ALPB and GBSA implicit solvation:
   * S. Ehlert, M. Stahn, S. Spicher, S. Grimme, J. Chem. Theory Comput.,
     2021, 17, 4250-4261. DOI: 10.1021/acs.jctc.1c00471
   
   for ddCOSMO and CPCM-X implicit solvation:
   * M. Stahn, S. Ehlert, S. Grimme, J. Phys. Chem. A,
     2023, XX, XXXX-XXXX. DOI: 10.1021/acs.jpca.3c04382
   
   for DFT-D4:
   * E. Caldeweyher, C. Bannwarth and S. Grimme, J. Chem. Phys., 2017,
     147, 034112. DOI: 10.1063/1.4993215
   * E. Caldeweyher, S. Ehlert, A. Hansen, H. Neugebauer, S. Spicher,
     C. Bannwarth and S. Grimme, J. Chem. Phys., 2019, 150, 154122.
     DOI: 10.1063/1.5090222
   * E. Caldeweyher, J.-M. Mewes, S. Ehlert and S. Grimme, Phys. Chem. Chem. Phys.
     2020, 22, 8499-8512. DOI: 10.1039/D0CP00502A
   
   for sTDA-xTB:
   * S. Grimme and C. Bannwarth, J. Chem. Phys., 2016, 145, 054103.
     DOI: 10.1063/1.4959605
   
   in the mass-spec context:
   * V. Asgeirsson, C. Bauer and S. Grimme, Chem. Sci., 2017, 8, 4879.
     DOI: 10.1039/c7sc00601b
   * J. Koopman and S. Grimme, ACS Omega 2019, 4, 12, 15120-15133.
     DOI: 10.1021/acsomega.9b02011
   
   for metadynamics refer to:
   * S. Grimme, J. Chem. Theory Comput., 2019, 155, 2847-2862
     DOI: 10.1021/acs.jctc.9b00143
   
   for SPH calculations refer to:
   * S. Spicher and S. Grimme, J. Chem. Theory Comput., 2021, 17, 1701-1714
     DOI: 10.1021/acs.jctc.0c01306
   
   for ONIOM refer to:
   * C. Plett, A. Katbashev, S. Ehlert, S. Grimme, M. Bursch,
     Phys. Chem. Chem. Phys., 2023, 25, 17860-17868. DOI: 10.1039/D3CP02178E
   
   for DIPRO refer to:
   * J. Kohn, N. Gildemeister, S. Grimme, D. Fazzi, A. Hansen,
     J. Chem. Phys., 2023, just accepted.
   
   for PTB refer to:
   * S. Grimme, M. Mueller, A. Hansen, J. Chem. Phys., 2023, 158, 124111.
     DOI: 10.1063/5.0137838
   
   with help from (in alphabetical order)
   P. Atkinson, C. Bannwarth, F. Bohle, G. Brandenburg, E. Caldeweyher
   M. Checinski, S. Dohm, S. Ehlert, S. Ehrlich, I. Gerasimov, C. Hölzer
   A. Katbashev, J. Kohn, J. Koopman, C. Lavigne, S. Lehtola, F. März, M. Müller,
   F. Musil, H. Neugebauer, J. Pisarek, C. Plett, P. Pracht, F. Pultar,
   J. Seibert, P. Shushkov, S. Spicher, M. Stahn, M. Steiner, T. Strunk,
   J. Stückrath, T. Rose, and J. Unsleber
   
 * started run on 2025/04/11 at 12:29:37.906     
   ID    Z sym.   atoms
    1    6 C      1-4
    2    7 N      5
    3    1 H      6-16

           -------------------------------------------------
          |                Calculation Setup                |
           -------------------------------------------------

          program call               : /srv/scratch/z5358697/.xtb/bin/xtb gas.coord --gfn2 --sp --chrg 0 --norestart --parallel 1
          hostname                   : k077
          coordinate file            : gas.coord
          omp threads                :                     1


           -------------------------------------------------
          |                 G F N 2 - x T B                 |
           -------------------------------------------------

        Reference                      10.1021/acs.jctc.8b01176
      * Hamiltonian:
        H0-scaling (s, p, d)           1.850000    2.230000    2.230000
        zeta-weighting                 0.500000
      * Dispersion:
        s8                             2.700000
        a1                             0.520000
        a2                             5.000000
        s9                             5.000000
      * Repulsion:
        kExp                           1.500000    1.000000
        rExp                           1.000000
      * Coulomb:
        alpha                          2.000000
        third order                    shell-resolved
        anisotropic                    true
        a3                             3.000000
        a5                             4.000000
        cn-shift                       1.200000
        cn-exp                         4.000000
        max-rad                        5.000000


          ...................................................
          :                      SETUP                      :
          :.................................................:
          :  # basis functions                  31          :
          :  # atomic orbitals                  31          :
          :  # shells                           21          :
          :  # electrons                        32          :
          :  max. iterations                   250          :
          :  Hamiltonian                  GFN2-xTB          :
          :  restarted?                      false          :
          :  GBSA solvation                  false          :
          :  PC potential                    false          :
          :  electronic temp.          300.0000000     K    :
          :  accuracy                    1.0000000          :
          :  -> integral cutoff          0.2500000E+02      :
          :  -> integral neglect         0.1000000E-07      :
          :  -> SCF convergence          0.1000000E-05 Eh   :
          :  -> wf. convergence          0.1000000E-03 e    :
          :  Broyden damping             0.4000000          :
          :  net charge                          0          :
          :  unpaired electrons                  0          :
          ...................................................

 iter      E             dE          RMSdq      gap      omega  full diag
   1    -17.2826933 -0.172827E+02  0.273E+00   11.09       0.0  T
   2    -17.3166246 -0.339314E-01  0.144E+00   11.39       1.0  T
   3    -17.3176085 -0.983852E-03  0.672E-01   11.43       1.0  T
   4    -17.3177066 -0.981865E-04  0.100E-01   11.37       1.0  T
   5    -17.3177213 -0.146967E-04  0.441E-02   11.36       1.0  T
   6    -17.3177226 -0.126729E-05  0.156E-02   11.36       1.6  T
   7    -17.3177228 -0.147000E-06  0.132E-03   11.36      18.9  T
   8    -17.3177228 -0.257269E-08  0.662E-04   11.36      37.8  T
   9    -17.3177228 -0.559044E-09  0.114E-04   11.36     218.8  T

   *** convergence criteria satisfied after 9 iterations ***

         #    Occupation            Energy/Eh            Energy/eV
      -------------------------------------------------------------
         1        2.0000           -0.6300088             -17.1434
       ...           ...                  ...                  ...
        10        2.0000           -0.4774571             -12.9923
        11        2.0000           -0.4748074             -12.9202
        12        2.0000           -0.4495532             -12.2330
        13        2.0000           -0.4361772             -11.8690
        14        2.0000           -0.4334894             -11.7958
        15        2.0000           -0.4263641             -11.6020
        16        2.0000           -0.3625810              -9.8663 (HOMO)
        17                          0.0547373               1.4895 (LUMO)
        18                          0.0786568               2.1404
        19                          0.1025758               2.7912
        20                          0.1153727               3.1395
        21                          0.1279135               3.4807
       ...                                ...                  ...
        31                          0.3098376               8.4311
      -------------------------------------------------------------
                  HL-Gap            0.4173184 Eh           11.3558 eV
             Fermi-level           -0.1539219 Eh           -4.1884 eV

 SCC (total)                   0 d,  0 h,  0 min,  0.021 sec
 SCC setup                      ...        0 min,  0.000 sec (  0.872%)
 Dispersion                     ...        0 min,  0.000 sec (  0.398%)
 classical contributions        ...        0 min,  0.000 sec (  0.114%)
 integral evaluation            ...        0 min,  0.001 sec (  4.243%)
 iterations                     ...        0 min,  0.017 sec ( 80.057%)
 molecular gradient             ...        0 min,  0.003 sec ( 13.582%)
 printout                       ...        0 min,  0.000 sec (  0.666%)

         :::::::::::::::::::::::::::::::::::::::::::::::::::::
         ::                     SUMMARY                     ::
         :::::::::::::::::::::::::::::::::::::::::::::::::::::
         :: total energy             -17.080300762717 Eh    ::
         :: gradient norm              0.003484594496 Eh/a0 ::
         :: HOMO-LUMO gap             11.355810388491 eV    ::
         ::.................................................::
         :: SCC energy               -17.317704720968 Eh    ::
         :: -> isotropic ES            0.013017157129 Eh    ::
         :: -> anisotropic ES          0.006082385692 Eh    ::
         :: -> anisotropic XC          0.013209970319 Eh    ::
         :: -> dispersion             -0.008351615646 Eh    ::
         :: repulsion energy           0.237403958251 Eh    ::
         :: add. restraining           0.000000000000 Eh    ::
         :: total charge              -0.000000000000 e     ::
         :::::::::::::::::::::::::::::::::::::::::::::::::::::

           -------------------------------------------------
          |                Property Printout                |
           -------------------------------------------------

    * Orbital Energies and Occupations

         #    Occupation            Energy/Eh            Energy/eV
      -------------------------------------------------------------
         1        2.0000           -0.6300088             -17.1434
       ...           ...                  ...                  ...
         4        2.0000           -0.5695594             -15.4985
         5        2.0000           -0.5582966             -15.1920
         6        2.0000           -0.5268715             -14.3369
         7        2.0000           -0.5101869             -13.8829
         8        2.0000           -0.5088969             -13.8478
         9        2.0000           -0.4826745             -13.1342
        10        2.0000           -0.4774571             -12.9923
        11        2.0000           -0.4748074             -12.9202
        12        2.0000           -0.4495532             -12.2330
        13        2.0000           -0.4361772             -11.8690
        14        2.0000           -0.4334894             -11.7958
        15        2.0000           -0.4263641             -11.6020
        16        2.0000           -0.3625810              -9.8663 (HOMO)
        17                          0.0547373               1.4895 (LUMO)
        18                          0.0786568               2.1404
        19                          0.1025758               2.7912
        20                          0.1153727               3.1395
        21                          0.1279135               3.4807
        22                          0.1374906               3.7413
        23                          0.1639074               4.4601
        24                          0.1747960               4.7564
        25                          0.1911990               5.2028
        26                          0.2194711               5.9721
        27                          0.2218697               6.0374
       ...                                ...                  ...
        31                          0.3098376               8.4311
      -------------------------------------------------------------
                  HL-Gap            0.4173184 Eh           11.3558 eV
             Fermi-level           -0.1539219 Eh           -4.1884 eV

     #   Z          covCN         q      C6AA      α(0)
     1   6 C        3.751    -0.099    22.445     6.756
     2   6 C        3.799    -0.051    21.497     6.602
     3   6 C        3.798    -0.069    21.830     6.653
     4   6 C        3.730     0.016    20.396     6.447
     5   7 N        2.628    -0.344    28.866     7.979
     6   1 H        0.925     0.030     2.589     2.516
     7   1 H        0.925     0.033     2.546     2.495
     8   1 H        0.925     0.031     2.567     2.506
     9   1 H        0.924     0.031     2.579     2.511
    10   1 H        0.924     0.027     2.633     2.538
    11   1 H        0.924     0.027     2.628     2.535
    12   1 H        0.924     0.031     2.567     2.505
    13   1 H        0.924     0.030     2.583     2.513
    14   1 H        0.924     0.031     2.566     2.505
    15   1 H        0.860     0.140     1.472     1.901
    16   1 H        0.860     0.136     1.501     1.919

 Mol. C6AA /au·bohr⁶  :       1662.716801
 Mol. C8AA /au·bohr⁸  :      33701.152354
 Mol. α(0) /au        :         60.881750


Wiberg/Mayer (AO) data.
largest (>0.10) Wiberg bond orders for each atom

 ---------------------------------------------------------------------------
     #   Z sym  total        # sym  WBO       # sym  WBO       # sym  WBO
 ---------------------------------------------------------------------------
     1   6 C    3.997 --     2 C    1.020     8 H    0.988     6 H    0.988
                             7 H    0.983
     2   6 C    3.998 --     1 C    1.020     3 C    1.006    10 H    0.980
                             9 H    0.977
     3   6 C    3.997 --     2 C    1.006     4 C    0.993    11 H    0.978
                            12 H    0.976
     4   6 C    3.986 --     5 N    1.030     3 C    0.993    14 H    0.975
                            13 H    0.975
     5   7 N    3.012 --     4 C    1.030    16 H    0.968    15 H    0.964
     6   1 H    0.999 --     1 C    0.988
     7   1 H    0.999 --     1 C    0.983
     8   1 H    0.999 --     1 C    0.988
     9   1 H    0.999 --     2 C    0.977
    10   1 H    0.999 --     2 C    0.980
    11   1 H    0.999 --     3 C    0.978
    12   1 H    0.999 --     3 C    0.976
    13   1 H    0.999 --     4 C    0.975
    14   1 H    0.999 --     4 C    0.975
    15   1 H    0.980 --     5 N    0.964
    16   1 H    0.982 --     5 N    0.968
 ---------------------------------------------------------------------------

Topologies differ in total number of bonds
Writing topology from bond orders to xtbtopo.mol

molecular dipole:
                 x           y           z       tot (Debye)
 q only:        0.217      -0.015      -0.060
   full:        0.584      -0.068      -0.167       1.554
molecular quadrupole (traceless):
                xx          xy          yy          xz          yz          zz
 q only:       -1.889      -0.453       1.255       0.968      -0.021       0.634
  q+dip:       -4.391      -0.811       2.303       2.068       0.917       2.089
   full:       -4.491      -0.874       2.574       2.236       0.566       1.917


           -------------------------------------------------
          | TOTAL ENERGY              -17.080300762717 Eh   |
          | GRADIENT NORM               0.003484594496 Eh/α |
          | HOMO-LUMO GAP              11.355810388491 eV   |
           -------------------------------------------------

------------------------------------------------------------------------
 * finished run on 2025/04/11 at 12:29:38.295     
------------------------------------------------------------------------
 total:
 * wall-time:     0 d,  0 h,  0 min,  0.387 sec
 *  cpu-time:     0 d,  0 h,  0 min,  0.016 sec
 * ratio c/w:     0.042 speedup
 SCF:
 * wall-time:     0 d,  0 h,  0 min,  0.021 sec
 *  cpu-time:     0 d,  0 h,  0 min,  0.009 sec
 * ratio c/w:     0.417 speedup

