
                                 *****************
                                 * O   R   C   A *
                                 *****************

                                            #,                                       
                                            ###                                      
                                            ####                                     
                                            #####                                    
                                            ######                                   
                                           ########,                                 
                                     ,,################,,,,,                         
                               ,,#################################,,                 
                          ,,##########################################,,             
                       ,#########################################, ''#####,          
                    ,#############################################,,   '####,        
                  ,##################################################,,,,####,       
                ,###########''''           ''''###############################       
              ,#####''   ,,,,##########,,,,          '''####'''          '####       
            ,##' ,,,,###########################,,,                        '##       
           ' ,,###''''                  '''############,,,                           
         ,,##''                                '''############,,,,        ,,,,,,###''
      ,#''                                            '''#######################'''  
     '                                                          ''''####''''         
             ,#######,   #######,   ,#######,      ##                                
            ,#'     '#,  ##    ##  ,#'     '#,    #''#        ,####,   ,####,        
            ##       ##  ##   ,#'  ##            #'  '#       #'       #'  '#        
            ##       ##  #######   ##           ,######,      #####,   #    #        
            '#,     ,#'  ##    ##  '#,     ,#' ,#      #,     #,   #   #,  ,#        
             '#######'   ##     ##  '#######'  #'      '#     '####' # '####'        



                #########################################################
                #                        -***-                          #
                #          Department of theory and spectroscopy        #
                #                                                       #
                #                      Frank Neese                      #
                #                                                       #
                #     Directorship, Architecture, Infrastructure        #
                #                    SHARK, DRIVERS                     #
                #        Core code/Algorithms in most modules           #
                #                                                       #
                #        Max Planck Institute fuer Kohlenforschung      #
                #                Kaiser Wilhelm Platz 1                 #
                #                 D-45470 Muelheim/Ruhr                 #
                #                      Germany                          #
                #                                                       #
                #                  All rights reserved                  #
                #                        -***-                          #
                #########################################################


                         Program Version 6.0.0  -   RELEASE  -


 With contributions from (in alphabetic order):
   Daniel Aravena         : Magnetic Suceptibility
   Michael Atanasov       : Ab Initio Ligand Field Theory (pilot matlab implementation)
   Alexander A. Auer      : GIAO ZORA, VPT2 properties, NMR spectrum
   Ute Becker             : All parallelization in ORCA, NUMFREQ, NUMCALC
   Giovanni Bistoni       : ED, misc. LED, open-shell LED, HFLD
   Martin Brehm           : Molecular dynamics
   Dmytro Bykov           : pre 5.0 version of the SCF Hessian
   Marcos Casanova-Páez   : Triplet and SCS-CIS(D). UHF-(DLPNO)-IP/EA/STEOM-CCSD. UHF-CVS-IP/STEOM-CCSD
   Vijay G. Chilkuri      : MRCI spin determinant printing, contributions to CSF-ICE
   Pauline Colinet        : FMM embedding
   Dipayan Datta          : RHF DLPNO-CCSD density
   Achintya Kumar Dutta   : EOM-CC, STEOM-CC
   Nicolas Foglia         : Exact transition moments, OPA infrastructure, MCD improvements
   Dmitry Ganyushin       : Spin-Orbit,Spin-Spin,Magnetic field MRCI
   Miquel Garcia          : C-PCM and meta-GGA Hessian, CCSD/C-PCM, Gaussian charge scheme
   Tiago L. C. Gouveia    : GS-ROHF, GS-ROCIS
   Yang Guo               : DLPNO-NEVPT2, F12-NEVPT2, CIM, IAO-localization
   Andreas Hansen         : Spin unrestricted coupled pair/coupled cluster methods
   Ingolf Harden          : AUTO-CI MPn and infrastructure 
   Benjamin Helmich-Paris : MC-RPA, TRAH-(SCF,CASSCF), AVAS, COSX integrals, SCF dyn. polar.
   Lee Huntington         : MR-EOM, pCC
   Robert Izsak           : Overlap fitted RIJCOSX, COSX-SCS-MP3, EOM
   Riya Kayal             : Wick's Theorem for AUTO-CI, AUTO-CI UHF-CCSDT
   Emily Kempfer          : AUTO-CI, RHF CISDT and CCSDT
   Christian Kollmar      : KDIIS, OOCD, Brueckner-CCSD(T), CCSD density, CASPT2, CASPT2-K, improved NEVPT2
   Axel Koslowski         : Symmetry handling
   Simone Kossmann        : Meta GGA functionals, TD-DFT gradient, OOMP2, (MP2 Hessian; deprecated post 5.0)
   Lucas Lang             : DCDCAS
   Marvin Lechner         : AUTO-CI (C++ implementation), FIC-MRCC
   Spencer Leger          : CASSCF response
   Dagmar Lenk            : GEPOL surface, SMD, ORCA-2-JSON
   Dimitrios Liakos       : Extrapolation schemes; Compound Job, initial MDCI parallelization
   Dimitrios Manganas     : Further ROCIS development; embedding schemes. LFT, Crystal Embedding
   Dimitrios Pantazis     : SARC Basis sets
   Anastasios Papadopoulos: AUTO-CI, single reference methods and gradients
   Taras Petrenko         : pre 6.0 DFT Hessian and TD-DFT gradient, (ASA, deprecated), ECA, 1-Electron XAS/XES, NRVS
   Peter Pinski           : DLPNO-MP2, DLPNO-MP2 Gradient
   Christoph Reimann      : Effective Core Potentials
   Marius Retegan         : Local ZFS, SOC
   Christoph Riplinger    : Optimizer, TS searches, QM/MM, DLPNO-CCSD(T), (RO)-DLPNO pert. Triples
   Michael Roemelt        : Original ROCIS implementation
   Masaaki Saitow         : Open-shell DLPNO-CCSD energy and density
   Barbara Sandhoefer     : DKH picture change effects
   Kantharuban Sivalingam : CASSCF convergence/infrastructure, NEVPT2 and variants, FIC-MRCI
   Bernardo de Souza      : ESD, SOC TD-DFT
   Georgi Stoychev        : AutoAux, RI-MP2 NMR, DLPNO-MP2 response, X2C
   Van Anh Tran           : RI-MP2 g-tensors
   Willem Van den Heuvel  : Paramagnetic NMR
   Zikuan Wang            : NOTCH, Electric field optimization 
   Frank Wennmohs         : Technical directorship and infrastructure
   Hang Xu                : AUTO-CI-Response properties 


 We gratefully acknowledge several colleagues who have allowed us to
 interface, adapt or use parts of their codes:
   Stefan Grimme, W. Hujo, H. Kruse, P. Pracht,  : VdW corrections, initial TS optimization,
                  C. Bannwarth, S. Ehlert,         DFT functionals, gCP, sTDA/sTD-DF
                  L. Wittmann, M. Mueller
   Ed Valeev, F. Pavosevic, A. Kumar             : LibInt (2-el integral package), F12 methods
   Garnet Chan, S. Sharma, J. Yang, R. Olivares  : DMRG
   Ulf Ekstrom                                   : XCFun DFT Library
   Mihaly Kallay                                 : mrcc  (arbitrary order and MRCC methods)
   Frank Weinhold                                : gennbo (NPA and NBO analysis)
   Simon Mueller                                 : openCOSMO-RS
   Christopher J. Cramer and Donald G. Truhlar   : smd solvation model
   Lars Goerigk                                  : TD-DFT with DH, B97 family of functionals
   V. Asgeirsson, H. Jonsson                     : NEB implementation
   FAccTs GmbH                                   : IRC, NEB, NEB-TS, DLPNO-Multilevel, CI-OPT
                                                   MM, QMMM, 2- and 3-layer-ONIOM, Crystal-QMMM,
                                                   LR-CPCM, SF, NACMEs, symmetry and pop. for TD-DFT,
                                                   nearIR, NL-DFT gradient (VV10), updates on ESD,
                                                   ML-optimized integration grids, MBIS, APM,
                                                   GOAT, DOCKER, SOLVATOR, interface openCOSMO-RS
   S Lehtola, MJT Oliveira, MAL Marques          : LibXC Library
   Liviu Ungur et al                             : ANISO software


 Your calculation uses the libint2 library for the computation of 2-el integrals
 For citations please refer to: http://libint.valeyev.net

 Your ORCA version has been built with support for libXC version: 6.2.2
 For citations please refer to: https://libxc.gitlab.io

 This ORCA versions uses:
   CBLAS   interface :  Fast vector & matrix operations
   LAPACKE interface :  Fast linear algebra routines
   SCALAPACK package :  Parallel linear algebra routines
   Shared memory     :  Shared parallel matrices
   BLAS/LAPACK       :  OpenBLAS 0.3.27  USE64BITINT DYNAMIC_ARCH NO_AFFINITY SkylakeX SINGLE_THREADED
        Core in use  :  SkylakeX
   Copyright (c) 2011-2014, The OpenBLAS Project


Your calculation utilizes the geometrical counterpoise correction gCP
Please cite in your paper:
H.Kruse, S. Grimme J.Chem.Phys., 136, (2012), 154101 
   

Your calculation utilizes the atom-pairwise dispersion correction
based on EEQ partial charges (D4)


================================================================================

----- Orbital basis set information -----
Your calculation utilizes the basis: def2-mTZVPP
   Stefan Grimme, Andreas Hansen, Sebastian Ehlert, and Jan-Michael Mewes 
   J. Chem. Phys. 154, 064103 (2021). DOI: 10.1063/5.0040021

----- AuxJ basis set information -----
Your calculation utilizes the auxiliary basis: def2/J
   F. Weigend, Phys. Chem. Chem. Phys. 8, 1057 (2006).

================================================================================
                                        WARNINGS
                       Please study these warnings very carefully!
================================================================================

Using LibXC functional ID 497 : Re-regularized SCAN exchange by Furness et al
[ 1]  J. W. Furness, A. D. Kaplan, J. Ning, J. P. Perdew, and J. Sun.,  J. Phys. Chem. Lett. 11, 8208-8215 (2020)
[ 2]  J. W. Furness, A. D. Kaplan, J. Ning, J. P. Perdew, and J. Sun.,  J. Phys. Chem. Lett. 11, 9248-9248 (2020)
Using LibXC functional ID 498 : Re-regularized SCAN correlation by Furness et al
[ 1]  J. W. Furness, A. D. Kaplan, J. Ning, J. P. Perdew, and J. Sun.,  J. Phys. Chem. Lett. 11, 8208-8215 (2020)
[ 2]  J. W. Furness, A. D. Kaplan, J. Ning, J. P. Perdew, and J. Sun.,  J. Phys. Chem. Lett. 11, 9248-9248 (2020)
Using LibXC functional ID 497 : Re-regularized SCAN exchange by Furness et al
[ 1]  J. W. Furness, A. D. Kaplan, J. Ning, J. P. Perdew, and J. Sun.,  J. Phys. Chem. Lett. 11, 8208-8215 (2020)
[ 2]  J. W. Furness, A. D. Kaplan, J. Ning, J. P. Perdew, and J. Sun.,  J. Phys. Chem. Lett. 11, 9248-9248 (2020)
Using LibXC functional ID 498 : Re-regularized SCAN correlation by Furness et al
[ 1]  J. W. Furness, A. D. Kaplan, J. Ning, J. P. Perdew, and J. Sun.,  J. Phys. Chem. Lett. 11, 8208-8215 (2020)
[ 2]  J. W. Furness, A. D. Kaplan, J. Ning, J. P. Perdew, and J. Sun.,  J. Phys. Chem. Lett. 11, 9248-9248 (2020)

================================================================================
                                       INPUT FILE
================================================================================
NAME = sp_gas.inp
|  1> ! r2scan-3c def2/J RI DEFGRID2 scfconv6 printgap
|  2> %output
|  3>     printlevel normal
|  4> end
|  5> * xyz 0 1
|  6> C 2.3208333414 0.301899321 -0.0031755898
|  7> C 1.1626520269 -0.1960339664 0.3867825641
|  8> C -7.47795e-05 -0.4596858722 -0.5236813793
|  9> C -1.1616417892 0.4092472578 -0.1413026208
| 10> C -2.3217064395 -0.0419295862 0.2969554462
| 11> H 3.1262612939 0.4824538005 0.6881024332
| 12> H 2.5147346683 0.5441511006 -1.0354528332
| 13> H 0.9879021438 -0.4278674104 1.4293953555
| 14> H -0.2911279295 -1.509917415 -0.447939387
| 15> H 0.2900031907 -0.2462534037 -1.5551060773
| 16> H -0.9842087943 1.4732770515 -0.2293788181
| 17> H -3.1261164744 0.620379075 0.5678957002
| 18> H -2.5181911884 -1.0970564106 0.3968494079
| 19> *
| 20> 
| 21>                          ****END OF INPUT****
================================================================================

                       ****************************
                       * Single Point Calculation *
                       ****************************

---------------------------------
CARTESIAN COORDINATES (ANGSTROEM)
---------------------------------
  C      2.320833    0.301899   -0.003176
  C      1.162652   -0.196034    0.386783
  C     -0.000075   -0.459686   -0.523681
  C     -1.161642    0.409247   -0.141303
  C     -2.321706   -0.041930    0.296955
  H      3.126261    0.482454    0.688102
  H      2.514735    0.544151   -1.035453
  H      0.987902   -0.427867    1.429395
  H     -0.291128   -1.509917   -0.447939
  H      0.290003   -0.246253   -1.555106
  H     -0.984209    1.473277   -0.229379
  H     -3.126116    0.620379    0.567896
  H     -2.518191   -1.097056    0.396849

----------------------------
CARTESIAN COORDINATES (A.U.)
----------------------------
  NO LB      ZA    FRAG     MASS         X           Y           Z
   0 C     6.0000    0    12.011    4.385739    0.570507   -0.006001
   1 C     6.0000    0    12.011    2.197094   -0.370451    0.730913
   2 C     6.0000    0    12.011   -0.000141   -0.868680   -0.989614
   3 C     6.0000    0    12.011   -2.195185    0.773365   -0.267023
   4 C     6.0000    0    12.011   -4.387389   -0.079235    0.561164
   5 H     1.0000    0     1.008    5.907778    0.911706    1.300325
   6 H     1.0000    0     1.008    4.752160    1.028297   -1.956722
   7 H     1.0000    0     1.008    1.866864   -0.808552    2.701166
   8 H     1.0000    0     1.008   -0.550152   -2.853330   -0.846483
   9 H     1.0000    0     1.008    0.548027   -0.465351   -2.938725
  10 H     1.0000    0     1.008   -1.859885    2.784090   -0.433463
  11 H     1.0000    0     1.008   -5.907504    1.172347    1.073167
  12 H     1.0000    0     1.008   -4.758692   -2.073136    0.749937

--------------------------------
INTERNAL COORDINATES (ANGSTROEM)
--------------------------------
 C      0   0   0     0.000000000000     0.00000000     0.00000000
 C      1   0   0     1.319616943568     0.00000000     0.00000000
 C      2   1   0     1.500130176346   124.55728193     0.00000000
 C      3   2   1     1.500165396677   110.09892821   243.80454742
 C      4   3   2     1.319613833941   124.56151663   243.51021203
 H      1   2   3     1.076651945532   122.01301983   179.48244591
 H      1   2   3     1.077905356019   121.71422878   359.04236080
 H      2   1   3     1.082278014279   120.47870390   181.23864282
 H      3   2   1     1.092444542764   109.47421766   123.44842915
 H      3   2   1     1.092490528586   109.44263436     4.15525453
 H      4   3   2     1.082312009585   114.94585438    62.33135475
 H      5   4   3     1.076632197264   122.01018845   179.48551397
 H      5   4   3     1.077904298026   121.71529825   359.05065141

---------------------------
INTERNAL COORDINATES (A.U.)
---------------------------
 C      0   0   0     0.000000000000     0.00000000     0.00000000
 C      1   0   0     2.493714625025     0.00000000     0.00000000
 C      2   1   0     2.834835198525   124.55728193     0.00000000
 C      3   2   1     2.834901755305   110.09892821   243.80454742
 C      4   3   2     2.493708748682   124.56151663   243.51021203
 H      1   2   3     2.034577318610   122.01301983   179.48244591
 H      1   2   3     2.036945921163   121.71422878   359.04236080
 H      2   1   3     2.045209047751   120.47870390   181.23864282
 H      3   2   1     2.064421002321   109.47421766   123.44842915
 H      3   2   1     2.064507902930   109.44263436     4.15525453
 H      4   3   2     2.045273289569   114.94585438    62.33135475
 H      5   4   3     2.034539999791   122.01018845   179.48551397
 H      5   4   3     2.036943921846   121.71529825   359.05065141

---------------------
BASIS SET INFORMATION
---------------------
There are 2 groups of distinct atoms

 Group   1 Type C   : 11s6p1d contracted to 5s3p1d pattern {62111/411/1}
 Group   2 Type H   : 4s1p contracted to 2s1p pattern {31/1}

Atom   0C    basis set group =>   1
Atom   1C    basis set group =>   1
Atom   2C    basis set group =>   1
Atom   3C    basis set group =>   1
Atom   4C    basis set group =>   1
Atom   5H    basis set group =>   2
Atom   6H    basis set group =>   2
Atom   7H    basis set group =>   2
Atom   8H    basis set group =>   2
Atom   9H    basis set group =>   2
Atom  10H    basis set group =>   2
Atom  11H    basis set group =>   2
Atom  12H    basis set group =>   2
---------------------------------
AUXILIARY/J BASIS SET INFORMATION
---------------------------------
There are 2 groups of distinct atoms

 Group   1 Type C   : 12s5p4d2f1g contracted to 6s4p3d1f1g pattern {711111/2111/211/2/1}
 Group   2 Type H   : 5s2p1d contracted to 3s1p1d pattern {311/2/1}

Atom   0C    basis set group =>   1
Atom   1C    basis set group =>   1
Atom   2C    basis set group =>   1
Atom   3C    basis set group =>   1
Atom   4C    basis set group =>   1
Atom   5H    basis set group =>   2
Atom   6H    basis set group =>   2
Atom   7H    basis set group =>   2
Atom   8H    basis set group =>   2
Atom   9H    basis set group =>   2
Atom  10H    basis set group =>   2
Atom  11H    basis set group =>   2
Atom  12H    basis set group =>   2

Checking for AutoStart:
The File: sp_gas.gbw exists
Trying to determine its content:
     ... Fine, the file contains calculation information
     ... Fine, the calculation information was read
     ... Fine, the file contains a basis set
     ... Fine, the basis set was read
     ... Fine, the file contains a geometry
     ... Fine, the geometry was read
     ... Fine, the file contains a set of orbitals
     ... Fine, the orbitals can be read
     => possible old guess file was deleted
     => GBW file was renamed to GES file
     => GES file is set as startup file
     => Guess is set to MORead
     ... now leaving AutoStart

------------------------------------------------------------------------------
                             ORCA STARTUP CALCULATIONS
                           -- RI-GTO INTEGRALS CHOSEN --
------------------------------------------------------------------------------
------------------------------------------------------------------------------
                   ___                                                        
                  /   \      - P O W E R E D   B Y -                         
                 /     \                                                     
                 |  |  |   _    _      __       _____    __    __             
                 |  |  |  | |  | |    /  \     |  _  \  |  |  /  |          
                  \  \/   | |  | |   /    \    | | | |  |  | /  /          
                 / \  \   | |__| |  /  /\  \   | |_| |  |  |/  /          
                |  |  |   |  __  | /  /__\  \  |    /   |      \           
                |  |  |   | |  | | |   __   |  |    \   |  |\   \          
                \     /   | |  | | |  |  |  |  | |\  \  |  | \   \       
                 \___/    |_|  |_| |__|  |__|  |_| \__\ |__|  \__/        
                                                                              
                      - O R C A' S   B I G   F R I E N D -                    
                                      &                                       
                       - I N T E G R A L  F E E D E R -                       
                                                                              
 v1 FN, 2020, v2 2021, v3 2022-2024                                           
------------------------------------------------------------------------------


----------------------
SHARK INTEGRAL PACKAGE
----------------------

Number of atoms                             ...     13
Number of basis functions                   ...    135
Number of shells                            ...     69
Maximum angular momentum                    ...      2
Integral batch strategy                     ... SHARK/LIBINT Hybrid
RI-J (if used) integral strategy            ... SPLIT-RIJ (Revised 2003 algorithm where possible)
Printlevel                                  ...      1
Contraction scheme used                     ... SEGMENTED contraction
Prescreening option                         ... SCHWARTZ
   Thresh                                   ... 1.000e-10
   Tcut                                     ... 1.000e-11
   Tpresel                                  ... 1.000e-11 
Coulomb Range Separation                    ... NOT USED
Exchange Range Separation                   ... NOT USED
Multipole approximations                    ... NOT USED
Finite Nucleus Model                        ... NOT USED
CABS basis                                  ... NOT available
Auxiliary Coulomb fitting basis             ... AVAILABLE
   # of basis functions in Aux-J            ...    333
   # of shells in Aux-J                     ...    115
   Maximum angular momentum in Aux-J        ...      4
Auxiliary J/K fitting basis                 ... NOT available
Auxiliary Correlation fitting basis         ... NOT available
Auxiliary 'external' fitting basis          ... NOT available

Checking pre-screening integrals            ... done (  0.0 sec) Dimension = 69
Check shell pair data                       ... done (  0.0 sec)
Shell pair information
Shell pair cut-off parameter TPreSel        ...   1.0e-11
Total number of shell pairs                 ...      2415
Shell pairs after pre-screening             ...      2264
Total number of primitive shell pairs       ...      8649
Primitive shell pairs kept                  ...      6125
          la=0 lb=0:    799 shell pairs
          la=1 lb=0:    887 shell pairs
          la=1 lb=1:    261 shell pairs
          la=2 lb=0:    193 shell pairs
          la=2 lb=1:    109 shell pairs
          la=2 lb=2:     15 shell pairs

Calculating one electron integrals          ... done (  0.0 sec)
Calculating RI/J V-Matrix + Cholesky decomp.... done (  0.0 sec)
Calculating Nuclear repulsion               ... done (  0.0 sec) ENN=    156.628682775111 Eh

Diagonalization of the overlap matrix:
Smallest eigenvalue                        ... 4.577e-04
Time for diagonalization                   ...    0.002 sec
Threshold for overlap eigenvalues          ... 1.000e-07
Number of eigenvalues below threshold      ... 0
Time for construction of square roots      ...    0.015 sec
Total time needed                          ...    0.024 sec

-------------------
DFT GRID GENERATION
-------------------

General Integration Accuracy     IntAcc      ... 4.388
Radial Grid Type                 RadialGrid  ... OptM3 with GC (2021)
Angular Grid (max. ang.)         AngularGrid ... 4 (Lebedev-302)
Angular grid pruning method      GridPruning ... 4 (adaptive)
Weight generation scheme         WeightScheme... mBecke (2022)
Basis function cutoff            BFCut       ... 1.0000e-10
Integration weight cutoff        WCut        ... 1.0000e-14
Partially contracted basis set               ... off
Rotationally invariant grid construction     ... off
Angular grids for H and He will be reduced by one unit

Total number of grid points                  ...    56132
Total number of batches                      ...      883
Average number of points per batch           ...       63
Average number of grid points per atom       ...     4318
Initializing property integral containers    ... done (  0.0 sec)

SHARK setup successfully completed in   0.7 seconds

Maximum memory used throughout the entire STARTUP-calculation: 23.4 MB
-------------------------------------------------------------------------------
                                 ORCA GUESS
                   Start orbitals & Density for SCF / CASSCF
-------------------------------------------------------------------------------

------------
SCF SETTINGS
------------
Hamiltonian:
 Density Functional     Method          .... DFT(GTOs)
  Functional kind                       .... Exchange
  Functional name                       .... Re-regularized SCAN exchange by Furness et al
  Functional family                     .... MGGA
  Functional refs                              
    [ 0] J. W. Furness, A. D. Kaplan, J. Ning, J. P. Perdew, and J. Sun.,  J. Phys. Chem. Lett. 11, 8208-8215 (2020), doi: 10.1021/acs.jpclett.0c02405
    [ 1] J. W. Furness, A. D. Kaplan, J. Ning, J. P. Perdew, and J. Sun.,  J. Phys. Chem. Lett. 11, 9248-9248 (2020), doi: 10.1021/acs.jpclett.0c03077
  Functional external parameters        .... 6
    Parameter  0 _c1        =  6.670000e-01 : c1 parameter        
    Parameter  1 _c2        =  8.000000e-01 : c2 parameter        
    Parameter  2 _d         =  1.240000e+00 : d parameter         
    Parameter  3 _k1        =  6.500000e-02 : k1 parameter        
    Parameter  4 _eta       =  1.000000e-03 : eta parameter       
    Parameter  5 _dp2       =  3.610000e-01 : dp2 parameter       
  Functional kind                       .... Correlation
  Functional name                       .... Re-regularized SCAN correlation by Furness et al
  Functional family                     .... MGGA
  Functional refs                              
    [ 0] J. W. Furness, A. D. Kaplan, J. Ning, J. P. Perdew, and J. Sun.,  J. Phys. Chem. Lett. 11, 8208-8215 (2020), doi: 10.1021/acs.jpclett.0c02405
    [ 1] J. W. Furness, A. D. Kaplan, J. Ning, J. P. Perdew, and J. Sun.,  J. Phys. Chem. Lett. 11, 9248-9248 (2020), doi: 10.1021/acs.jpclett.0c03077
  Functional external parameters        .... 1
    Parameter  0 _eta       =  1.000000e-03 : Regularization parameter
 Gradients option       PostSCFGGA      .... off
 RI-approximation to the Coulomb term is turned on
   Number of AuxJ basis functions       .... 333


General Settings:
 Integral files         IntName         .... sp_gas
 Hartree-Fock type      HFTyp           .... RHF
 Total Charge           Charge          ....    0
 Multiplicity           Mult            ....    1
 Number of Electrons    NEL             ....   38
 Basis Dimension        Dim             ....  135
 Nuclear Repulsion      ENuc            ....    156.6286827751 Eh

Convergence Acceleration:
 AO-DIIS                CNVDIIS         .... on
   Start iteration      DIISMaxIt       ....    12
   Startup error        DIISStart       ....  0.200000
   # of expansion vecs  DIISMaxEq       ....     5
   Bias factor          DIISBfac        ....   1.050
   Max. coefficient     DIISMaxC        ....  10.000
 MO-DIIS                CNVKDIIS        .... off
 Trust-Rad. Augm. Hess. CNVTRAH         .... auto
   Auto Start mean grad. ratio tolernc. ....  1.125000
   Auto Start start iteration           ....     1
   Auto Start num. interpolation iter.  ....    10
   Max. Number of Micro iterations      ....    24
   Max. Number of Macro iterations      .... Maxiter - #DIIS iter
   Number of Davidson start vectors     ....     2
   Converg. threshold    (grad. norm)   ....   3.330e-04
   Grad. Scal. Fac. for Micro threshold ....   0.100
   Minimum threshold for Micro iter.    ....   1.000e-02
   NR start threshold (gradient norm)   ....   1.000e-04
   Initial trust radius                 ....   0.400
   Minimum AH scaling param. (alpha)    ....   1.000
   Maximum AH scaling param. (alpha)    .... 1000.000
   Quad. conv. algorithm                .... NR
   White noise on init. David. guess    .... on
   Maximum white noise                  ....   0.010
   Pseudo random numbers                .... off
   Inactive MOs                         .... canonical
   Orbital update algorithm             .... Taylor
   Preconditioner                       .... Diag
   Full preconditioner red. dimension   ....   250
   COSX micro iterations for RIJONX calc.... off
 SOSCF                  CNVSOSCF        .... on
   Start iteration      SOSCFMaxIt      ....   150
   Startup grad/error   SOSCFStart      ....  0.003300
   Hessian update       SOSCFHessUp     .... L-BFGS
 Level Shifting         CNVShift        .... on
   Level shift para.    LevelShift      ....    0.2500
   Turn off err/grad.   ShiftErr        ....    0.0010
 Zerner damping         CNVZerner       .... off
 Static damping         CNVDamp         .... on
   Fraction old density DampFac         ....    0.7000
   Max. Damping (<1)    DampMax         ....    0.9800
   Min. Damping (>=0)   DampMin         ....    0.0000
   Turn off err/grad.   DampErr         ....    0.1000

SCF Procedure:
 Maximum # iterations   MaxIter         ....   125
 SCF integral mode      SCFMode         .... Direct
   Integral package                     .... SHARK and LIBINT hybrid scheme
 Reset frequency        DirectResetFreq ....    20
 Integral Threshold     Thresh          ....  1.000e-10 Eh
 Primitive CutOff       TCut            ....  1.000e-11 Eh

Convergence Tolerance:
 Convergence Check Mode ConvCheckMode   .... Total+1el-Energy
 Convergence forced     ConvForced      .... 0
 Energy Change          TolE            ....  1.000e-06 Eh
 1-El. energy change                    ....  1.000e-03 Eh
 Orbital Gradient       TolG            ....  3.330e-04
 Orbital Rotation angle TolX            ....  3.330e-04
 DIIS Error             TolErr          ....  1.000e-06

---------------------
INITIAL GUESS: MOREAD
---------------------
Guess MOs are being read from file: sp_gas.ges
Input Geometry matches current geometry (good)
Atom 0: N(Shells)= 9 and 6 - projection required
Input basis set needs projection
NBasis(read)= 86
NBasis(calc)= 135
Basis set overlap was calculated
Using GuessMode=FMatrix for the initial guess
C*T matrix was formed
Effective Fockian was calculated
Effective Fockian was diagonalized
Initial density was built
                      ------------------
                      INITIAL GUESS DONE (   0.0 sec)
                      ------------------
             **** ENERGY FILE WAS UPDATED (sp_gas.en.tmp) ****
Finished Guess after   0.2 sec
Maximum memory used throughout the entire GUESS-calculation: 9.4 MB

-------------------------------------------------------------------------------------------
                                      ORCA LEAN-SCF
                              memory conserving SCF solver
-------------------------------------------------------------------------------------------

----------------------------------------D-I-I-S--------------------------------------------
Iteration    Energy (Eh)           Delta-E    RMSDP     MaxDP     DIISErr   Damp  Time(sec)
-------------------------------------------------------------------------------------------
               ***  Starting incremental Fock matrix formation  ***
    1    -195.1310825085304259     0.00e+00  2.97e-03  8.00e-02  2.79e-01  0.700   1.2
    2    -195.1600945944201158    -2.90e-02  2.43e-03  6.56e-02  1.96e-01  0.700   1.2
                               ***Turning on AO-DIIS***
    3    -195.1806346607759792    -2.05e-02  1.80e-03  4.79e-02  1.37e-01  0.700   1.1
    4    -195.1950630828740145    -1.44e-02  1.29e-03  3.39e-02  9.60e-02  0.700   1.1
    5    -195.2051888775707198    -1.01e-02  3.04e-03  7.94e-02  6.72e-02  0.000   1.1
                              *** Initializing SOSCF ***
---------------------------------------S-O-S-C-F--------------------------------------
Iteration    Energy (Eh)           Delta-E    RMSDP     MaxDP     MaxGrad    Time(sec)
--------------------------------------------------------------------------------------
    6    -195.2289043710091505    -2.37e-02  3.65e-05  4.73e-04  3.14e-04     1.2
               *** Restarting incremental Fock matrix formation ***
    7    -195.2289048732245078    -5.02e-07  2.54e-05  3.47e-04  1.73e-04     1.2
    8    -195.2289035347396862     1.34e-06  1.54e-05  2.29e-04  4.32e-04     1.0
    9    -195.2289052247416521    -1.69e-06  1.78e-06  2.01e-05  9.00e-06     1.0
                  *** Gradient check signals convergence ***

               *****************************************************
               *                     SUCCESS                       *
               *           SCF CONVERGED AFTER   9 CYCLES          *
               *****************************************************

             **** ENERGY FILE WAS UPDATED (sp_gas.en.tmp) ****

----------------
TOTAL SCF ENERGY
----------------

Total Energy       :       -195.22890522474165 Eh           -5312.44859 eV

Components:
Nuclear Repulsion  :        156.62868277511069 Eh            4262.08314 eV
Electronic Energy  :       -351.85758799985234 Eh           -9574.53173 eV
One Electron Energy:       -571.05285619199401 Eh          -15539.13821 eV
Two Electron Energy:        219.19526819214167 Eh            5964.60648 eV

Virial components:
Potential Energy   :       -389.65022327457217 Eh          -10602.92162 eV
Kinetic Energy     :        194.42131804983052 Eh            5290.47303 eV
Virial Ratio       :          2.00415379950621

DFT components:
N(Alpha)           :       18.999997745498 electrons
N(Beta)            :       18.999997745498 electrons
N(Total)           :       37.999995490996 electrons
E(X)               :      -28.829733295734 Eh       
E(C)               :       -1.168837967947 Eh       
E(XC)              :      -29.998571263681 Eh       

---------------
SCF CONVERGENCE
---------------

  Last Energy change         ...    1.6900e-06  Tolerance :   1.0000e-06
  Last MAX-Density change    ...    2.0090e-05  Tolerance :   1.0000e-05
  Last RMS-Density change    ...    1.7767e-06  Tolerance :   1.0000e-06
  Last DIIS Error            ...    3.1424e-04  Tolerance :   1.0000e-06
  Last Orbital Gradient      ...    8.9972e-06  Tolerance :   3.3300e-04
  Last Orbital Rotation      ...    1.8538e-05  Tolerance :   3.3300e-04


----------------
ORBITAL ENERGIES
----------------

  NO   OCC          E(Eh)            E(eV) 
   0   2.0000     -10.038880      -273.1718 
   1   2.0000     -10.037655      -273.1385 
   2   2.0000     -10.037638      -273.1380 
   3   2.0000     -10.022720      -272.7321 
   4   2.0000     -10.022709      -272.7318 
   5   2.0000      -0.783926       -21.3317 
   6   2.0000      -0.728054       -19.8114 
   7   2.0000      -0.650113       -17.6905 
   8   2.0000      -0.540411       -14.7053 
   9   2.0000      -0.519576       -14.1384 
  10   2.0000      -0.457245       -12.4423 
  11   2.0000      -0.409634       -11.1467 
  12   2.0000      -0.402937       -10.9645 
  13   2.0000      -0.402767       -10.9599 
  14   2.0000      -0.333066        -9.0632 
  15   2.0000      -0.325929        -8.8690 
  16   2.0000      -0.317282        -8.6337 
  17   2.0000      -0.249135        -6.7793 
  18   2.0000      -0.236481        -6.4350 
  19   0.0000      -0.032185        -0.8758 
  20   0.0000       0.006043         0.1644 
  21   0.0000       0.097237         2.6460 
  22   0.0000       0.124571         3.3897 
  23   0.0000       0.131555         3.5798 
  24   0.0000       0.136329         3.7097 
  25   0.0000       0.148668         4.0455 
  26   0.0000       0.151334         4.1180 
  27   0.0000       0.156364         4.2549 
  28   0.0000       0.172797         4.7021 
  29   0.0000       0.193157         5.2561 
*Only the first 10 virtual orbitals were printed.

                    ********************************
                    * MULLIKEN POPULATION ANALYSIS *
                    ********************************

-----------------------
MULLIKEN ATOMIC CHARGES
-----------------------
   0 C :   -0.358944
   1 C :   -0.078736
   2 C :   -0.303613
   3 C :   -0.079005
   4 C :   -0.358819
   5 H :    0.141712
   6 H :    0.139610
   7 H :    0.156221
   8 H :    0.151910
   9 H :    0.152052
  10 H :    0.156289
  11 H :    0.141703
  12 H :    0.139620
Sum of atomic charges:   -0.0000000

--------------------------------
MULLIKEN REDUCED ORBITAL CHARGES
--------------------------------
  0 C s       :     3.276364  s :     3.276364
      pz      :     1.042298  p :     3.056238
      px      :     0.998028
      py      :     1.015913
      dz2     :     0.005888  d :     0.026341
      dxz     :     0.008530
      dyz     :     0.002045
      dx2y2   :     0.005268
      dxy     :     0.004610

  1 C s       :     3.140806  s :     3.140806
      pz      :     1.004207  p :     2.899973
      px      :     0.934316
      py      :     0.961450
      dz2     :     0.009482  d :     0.037957
      dxz     :     0.010679
      dyz     :     0.002921
      dx2y2   :     0.007567
      dxy     :     0.007307

  2 C s       :     3.226932  s :     3.226932
      pz      :     1.023778  p :     3.038486
      px      :     0.972992
      py      :     1.041716
      dz2     :     0.008877  d :     0.038195
      dxz     :     0.009050
      dyz     :     0.003153
      dx2y2   :     0.008621
      dxy     :     0.008494

  3 C s       :     3.140881  s :     3.140881
      pz      :     0.956082  p :     2.900165
      px      :     0.934461
      py      :     1.009622
      dz2     :     0.004641  d :     0.037958
      dxz     :     0.007431
      dyz     :     0.002461
      dx2y2   :     0.012834
      dxy     :     0.010591

  4 C s       :     3.276271  s :     3.276271
      pz      :     1.019912  p :     3.056207
      px      :     0.997785
      py      :     1.038511
      dz2     :     0.003171  d :     0.026341
      dxz     :     0.004719
      dyz     :     0.001676
      dx2y2   :     0.008319
      dxy     :     0.008456

  5 H s       :     0.838500  s :     0.838500
      pz      :     0.006999  p :     0.019788
      px      :     0.008253
      py      :     0.004536

  6 H s       :     0.840627  s :     0.840627
      pz      :     0.011382  p :     0.019763
      px      :     0.003687
      py      :     0.004694

  7 H s       :     0.824611  s :     0.824611
      pz      :     0.011500  p :     0.019167
      px      :     0.003438
      py      :     0.004229

  8 H s       :     0.830232  s :     0.830232
      pz      :     0.003300  p :     0.017858
      px      :     0.003882
      py      :     0.010675

  9 H s       :     0.830091  s :     0.830091
      pz      :     0.010444  p :     0.017857
      px      :     0.003879
      py      :     0.003534

 10 H s       :     0.824546  s :     0.824546
      pz      :     0.003932  p :     0.019166
      px      :     0.003443
      py      :     0.011791

 11 H s       :     0.838508  s :     0.838508
      pz      :     0.004876  p :     0.019789
      px      :     0.008239
      py      :     0.006674

 12 H s       :     0.840617  s :     0.840617
      pz      :     0.004362  p :     0.019763
      px      :     0.003692
      py      :     0.011708


------------------------
MULLIKEN OVERLAP CHARGES
------------------------
B(  0-C ,  1-C ) :   1.1354 B(  0-C ,  2-C ) :  -0.0793 B(  0-C ,  5-H ) :   0.8085 
B(  0-C ,  6-H ) :   0.8748 B(  1-C ,  2-C ) :   0.5014 B(  1-C ,  3-C ) :  -0.1917 
B(  1-C ,  5-H ) :  -0.0595 B(  1-C ,  6-H ) :  -0.1351 B(  1-C ,  7-H ) :   0.7597 
B(  1-C ,  8-H ) :  -0.0535 B(  1-C ,  9-H ) :  -0.1867 B(  2-C ,  3-C ) :   0.5017 
B(  2-C ,  4-C ) :  -0.0796 B(  2-C ,  7-H ) :  -0.0548 B(  2-C ,  8-H ) :   0.8993 
B(  2-C ,  9-H ) :   0.8994 B(  2-C , 10-H ) :  -0.0546 B(  3-C ,  4-C ) :   1.1352 
B(  3-C ,  8-H ) :  -0.1864 B(  3-C ,  9-H ) :  -0.0536 B(  3-C , 10-H ) :   0.7597 
B(  3-C , 11-H ) :  -0.0596 B(  3-C , 12-H ) :  -0.1351 B(  4-C , 11-H ) :   0.8085 
B(  4-C , 12-H ) :   0.8748 B(  5-H ,  6-H ) :  -0.0509 B( 11-H , 12-H ) :  -0.0509 



                     *******************************
                     * LOEWDIN POPULATION ANALYSIS *
                     *******************************

----------------------
LOEWDIN ATOMIC CHARGES
----------------------
   0 C :   -0.313511
   1 C :   -0.186275
   2 C :   -0.287126
   3 C :   -0.186246
   4 C :   -0.313510
   5 H :    0.157632
   6 H :    0.154953
   7 H :    0.163792
   8 H :    0.166927
   9 H :    0.166962
  10 H :    0.163818
  11 H :    0.157628
  12 H :    0.154958

-------------------------------
LOEWDIN REDUCED ORBITAL CHARGES
-------------------------------
  0 C s       :     2.981328  s :     2.981328
      pz      :     1.129553  p :     3.270141
      px      :     1.109980
      py      :     1.030608
      dz2     :     0.015400  d :     0.062042
      dxz     :     0.022010
      dyz     :     0.004855
      dx2y2   :     0.010652
      dxy     :     0.009125

  1 C s       :     2.940203  s :     2.940203
      pz      :     1.105044  p :     3.164725
      px      :     1.082679
      py      :     0.977002
      dz2     :     0.021580  d :     0.081347
      dxz     :     0.024913
      dyz     :     0.006191
      dx2y2   :     0.014914
      dxy     :     0.013750

  2 C s       :     2.923901  s :     2.923901
      pz      :     1.110075  p :     3.281002
      px      :     1.055897
      py      :     1.115030
      dz2     :     0.020556  d :     0.082223
      dxz     :     0.019346
      dyz     :     0.005642
      dx2y2   :     0.018670
      dxy     :     0.018010

  3 C s       :     2.940209  s :     2.940209
      pz      :     0.970204  p :     3.164688
      px      :     1.083024
      py      :     1.111459
      dz2     :     0.008095  d :     0.081349
      dxz     :     0.013818
      dyz     :     0.005092
      dx2y2   :     0.029428
      dxy     :     0.024916

  4 C s       :     2.981324  s :     2.981324
      pz      :     1.027669  p :     3.270144
      px      :     1.110101
      py      :     1.132374
      dz2     :     0.005205  d :     0.062042
      dxz     :     0.009151
      dyz     :     0.003947
      dx2y2   :     0.021683
      dxy     :     0.022056

  5 H s       :     0.796923  s :     0.796923
      pz      :     0.016718  p :     0.045446
      px      :     0.018944
      py      :     0.009784

  6 H s       :     0.799880  s :     0.799880
      pz      :     0.027418  p :     0.045167
      px      :     0.007654
      py      :     0.010095

  7 H s       :     0.791573  s :     0.791573
      pz      :     0.027900  p :     0.044636
      px      :     0.007520
      py      :     0.009215

  8 H s       :     0.790272  s :     0.790272
      pz      :     0.007539  p :     0.042800
      px      :     0.008978
      py      :     0.026284

  9 H s       :     0.790238  s :     0.790238
      pz      :     0.025636  p :     0.042800
      px      :     0.008969
      py      :     0.008196

 10 H s       :     0.791550  s :     0.791550
      pz      :     0.008501  p :     0.044632
      px      :     0.007529
      py      :     0.028602

 11 H s       :     0.796924  s :     0.796924
      pz      :     0.010613  p :     0.045448
      px      :     0.018910
      py      :     0.015925

 12 H s       :     0.799876  s :     0.799876
      pz      :     0.009298  p :     0.045167
      px      :     0.007666
      py      :     0.028203


---------------------------------
LOEWDIN BOND ORDERS (THRESH 0.050000)
---------------------------------
B(  0-C ,  1-C ) :   2.0721 B(  0-C ,  2-C ) :   0.1030 B(  0-C ,  5-H ) :   0.9160 
B(  0-C ,  6-H ) :   0.9153 B(  0-C ,  7-H ) :   0.0587 B(  1-C ,  2-C ) :   1.1049 
B(  1-C ,  3-C ) :   0.0864 B(  1-C ,  5-H ) :   0.0671 B(  1-C ,  6-H ) :   0.0592 
B(  1-C ,  7-H ) :   0.8769 B(  2-C ,  3-C ) :   1.1049 B(  2-C ,  4-C ) :   0.1030 
B(  2-C ,  8-H ) :   0.8767 B(  2-C ,  9-H ) :   0.8766 B(  3-C ,  4-C ) :   2.0721 
B(  3-C , 10-H ) :   0.8769 B(  3-C , 11-H ) :   0.0671 B(  3-C , 12-H ) :   0.0592 
B(  4-C , 10-H ) :   0.0587 B(  4-C , 11-H ) :   0.9160 B(  4-C , 12-H ) :   0.9153 


------------------------------------------
LOEWDIN REDUCED ORBITAL POPULATIONS PER MO
-------------------------------------------
THRESHOLD FOR PRINTING IS 0.1%%
                      0         1         2         3         4         5   
                 -10.03888 -10.03766 -10.03764 -10.02272 -10.02271  -0.78393
                   2.00000   2.00000   2.00000   2.00000   2.00000   2.00000
                  --------  --------  --------  --------  --------  --------
 0 C  s               0.0       0.0       0.1      99.5       0.0       7.5
 0 C  px              0.0       0.0       0.1       0.0       0.0       2.4
 0 C  py              0.0       0.0       0.0       0.0       0.0       0.4
 1 C  s               0.5      34.6      64.5       0.1       0.0      17.5
 1 C  pz              0.0       0.0       0.0       0.0       0.0       1.5
 1 C  px              0.1       0.0       0.0       0.1       0.0       0.6
 1 C  dx2y2           0.0       0.0       0.0       0.0       0.0       0.1
 2 C  s              98.7       0.0       1.0       0.0       0.0      23.0
 2 C  pz              0.0       0.0       0.0       0.0       0.0       1.1
 2 C  px              0.0       0.1       0.0       0.0       0.0       0.0
 2 C  py              0.0       0.0       0.0       0.0       0.0       0.8
 3 C  s               0.5      64.9      34.1       0.0       0.1      17.5
 3 C  px              0.1       0.0       0.0       0.0       0.1       0.6
 3 C  py              0.0       0.0       0.0       0.0       0.0       1.5
 4 C  s               0.0       0.1       0.0       0.0      99.5       7.5
 4 C  pz              0.0       0.0       0.0       0.0       0.0       0.3
 4 C  px              0.0       0.1       0.0       0.0       0.0       2.4
 4 C  py              0.0       0.0       0.0       0.0       0.0       0.2
 5 H  s               0.0       0.0       0.0       0.0       0.0       0.8
 6 H  s               0.0       0.0       0.0       0.0       0.0       0.9
 7 H  s               0.0       0.0       0.0       0.0       0.0       2.0
 7 H  pz              0.0       0.0       0.0       0.0       0.0       0.2
 8 H  s               0.0       0.0       0.0       0.0       0.0       3.0
 8 H  py              0.0       0.0       0.0       0.0       0.0       0.3
 9 H  s               0.0       0.0       0.0       0.0       0.0       3.0
 9 H  pz              0.0       0.0       0.0       0.0       0.0       0.2
10 H  s               0.0       0.0       0.0       0.0       0.0       2.0
10 H  py              0.0       0.0       0.0       0.0       0.0       0.2
11 H  s               0.0       0.0       0.0       0.0       0.0       0.8
12 H  s               0.0       0.0       0.0       0.0       0.0       0.9

                      6         7         8         9        10        11   
                  -0.72805  -0.65011  -0.54041  -0.51958  -0.45724  -0.40963
                   2.00000   2.00000   2.00000   2.00000   2.00000   2.00000
                  --------  --------  --------  --------  --------  --------
 0 C  s              16.8      13.9       6.4       2.7       0.6       0.3
 0 C  pz              0.2       0.2       1.4       3.7       6.0       7.8
 0 C  px              1.7       0.3       5.2       3.4       7.4      13.6
 0 C  py              0.3       0.0       1.4       0.7       0.3       0.6
 0 C  dxz             0.0       0.0       0.0       0.1       0.0       0.1
 1 C  s              14.7       0.4       7.6       5.3       0.2       0.5
 1 C  pz              0.2       0.6       2.3       8.1      12.0       7.1
 1 C  px              3.8      12.7       2.5       0.5       0.1       1.1
 1 C  py              0.4       1.5       2.2       0.0       0.7       1.3
 1 C  dxz             0.0       0.2       0.0       0.0       0.0       0.1
 2 C  s               0.0      16.6       0.0       4.2       0.0       1.0
 2 C  pz              0.1       0.3       2.5       6.5       3.7       1.4
 2 C  px              7.6       0.0       4.8       0.0      11.5       0.0
 2 C  py              0.2       0.2       3.3       5.0       4.8       1.1
 2 C  dxz             0.1       0.0       0.2       0.0       0.0       0.0
 2 C  dx2y2           0.0       0.0       0.0       0.0       0.0       0.2
 2 C  dxy             0.1       0.0       0.1       0.1       0.0       0.0
 3 C  s              14.7       0.4       7.6       5.3       0.2       0.5
 3 C  pz              0.3       1.8       1.6       0.2       0.1       0.6
 3 C  px              3.8      12.7       2.6       0.5       0.1       1.0
 3 C  py              0.2       0.4       2.9       7.9      12.5       7.9
 3 C  dxy             0.0       0.3       0.0       0.0       0.0       0.1
 4 C  s              16.8      13.9       6.4       2.7       0.6       0.3
 4 C  pz              0.3       0.0       1.0       0.3       0.7       1.3
 4 C  px              1.7       0.3       5.2       3.4       7.4      13.3
 4 C  py              0.3       0.2       1.7       4.1       5.5       7.5
 4 C  dxy             0.0       0.0       0.0       0.1       0.0       0.1
 5 H  s               2.4       3.6       3.8       1.3       6.0      10.1
 5 H  pz              0.1       0.1       0.2       0.1       0.1       0.1
 5 H  px              0.1       0.2       0.1       0.0       0.1       0.1
 6 H  s               2.4       2.7       4.8       4.3       0.2       0.8
 6 H  pz              0.2       0.2       0.3       0.2       0.0       0.0
 6 H  px              0.0       0.0       0.0       0.0       0.1       0.1
 7 H  s               2.1       0.1       5.6       6.4       2.9       2.5
 7 H  pz              0.2       0.0       0.4       0.3       0.1       0.1
 8 H  s               0.0       4.1       0.3       4.6       3.1       1.5
 8 H  py              0.0       0.3       0.0       0.2       0.1       0.0
 9 H  s               0.0       4.1       0.3       4.6       3.1       1.4
 9 H  pz              0.0       0.3       0.0       0.2       0.1       0.0
10 H  s               2.1       0.1       5.6       6.4       2.9       2.5
10 H  py              0.2       0.0       0.4       0.4       0.1       0.1
11 H  s               2.4       3.6       3.8       1.3       6.0      10.1
11 H  px              0.1       0.2       0.1       0.0       0.1       0.1
11 H  py              0.1       0.1       0.2       0.1       0.1       0.1
12 H  s               2.4       2.7       4.8       4.3       0.2       0.8
12 H  px              0.0       0.0       0.0       0.0       0.1       0.1
12 H  py              0.2       0.2       0.3       0.2       0.0       0.0

                     12        13        14        15        16        17   
                  -0.40294  -0.40277  -0.33307  -0.32593  -0.31728  -0.24914
                   2.00000   2.00000   2.00000   2.00000   2.00000   2.00000
                  --------  --------  --------  --------  --------  --------
 0 C  s               0.2       0.2       0.6       0.2       0.1       0.0
 0 C  pz             12.9       5.2       0.5       9.9       7.5       0.3
 0 C  px              3.2       4.0       4.1       0.1       3.9       3.8
 0 C  py              0.6       3.5       1.6       0.3       0.2      17.8
 0 C  dz2             0.1       0.1       0.1       0.2       0.1       0.0
 0 C  dxz             0.0       0.0       0.0       0.2       0.5       0.1
 0 C  dx2y2           0.0       0.0       0.0       0.1       0.0       0.0
 0 C  dxy             0.0       0.1       0.0       0.0       0.0       0.1
 1 C  s               0.1       0.0       0.2       0.3       0.0       0.4
 1 C  pz              0.8       0.1       4.2       8.1       7.8       2.4
 1 C  px              7.4      11.8       5.4       0.5       1.8       0.9
 1 C  py              4.5       0.8       0.3       3.9       1.4      18.5
 1 C  dz2             0.0       0.0       0.5       0.4       0.0       0.0
 1 C  dxz             0.0       0.0       0.0       0.3       0.4       0.0
 1 C  dyz             0.0       0.0       0.0       0.0       0.1       0.0
 1 C  dx2y2           0.0       0.0       0.1       0.2       0.0       0.1
 1 C  dxy             0.0       0.0       0.1       0.0       0.0       0.1
 2 C  s               0.0       0.1       0.0       1.4       0.0       0.1
 2 C  pz              9.7      12.3       8.8       5.8       0.2       2.3
 2 C  px              3.5       0.0       5.4       0.0      19.2       0.0
 2 C  py              9.9      11.5      11.4       4.6       0.2       1.7
 2 C  dz2             0.0       0.0       0.7       0.0       0.0       0.1
 2 C  dxz             0.1       0.0       0.0       0.0       0.0       0.2
 2 C  dx2y2           0.0       0.0       0.2       0.1       0.0       0.3
 2 C  dxy             0.1       0.1       0.0       0.0       0.0       0.2
 3 C  s               0.1       0.1       0.2       0.3       0.0       0.4
 3 C  pz              5.2       0.6       0.1       2.5       2.4      19.9
 3 C  px              5.5      13.8       5.4       0.4       1.8       0.9
 3 C  py              0.4       0.0       4.1       9.7       6.7       0.9
 3 C  dxz             0.0       0.0       0.1       0.0       0.0       0.1
 3 C  dyz             0.0       0.0       0.0       0.0       0.1       0.0
 3 C  dx2y2           0.0       0.0       0.5       0.6       0.1       0.1
 3 C  dxy             0.0       0.0       0.1       0.2       0.4       0.0
 4 C  s               0.2       0.3       0.6       0.2       0.1       0.0
 4 C  pz              0.1       2.4       1.4       0.8       0.0      18.0
 4 C  px              2.6       4.9       4.1       0.1       3.9       3.8
 4 C  py             11.0       8.4       0.6       9.5       7.7       0.0
 4 C  dxz             0.0       0.0       0.0       0.0       0.1       0.1
 4 C  dx2y2           0.1       0.1       0.1       0.3       0.2       0.0
 4 C  dxy             0.0       0.0       0.0       0.2       0.5       0.0
 5 H  s               0.1       0.2       0.6       3.5       7.1       0.2
 5 H  py              0.0       0.0       0.0       0.0       0.0       0.2
 6 H  s               7.5       4.5       0.9       5.9       4.9       0.1
 6 H  pz              0.2       0.1       0.0       0.0       0.0       0.0
 6 H  py              0.0       0.0       0.0       0.0       0.0       0.2
 7 H  s               0.0       0.2       6.0       8.0       3.5       0.2
 7 H  px              0.1       0.1       0.0       0.0       0.0       0.0
 7 H  py              0.0       0.0       0.0       0.0       0.0       0.2
 8 H  s               2.8       4.0      11.6       1.3       0.2       1.9
 8 H  pz              0.1       0.1       0.0       0.1       0.0       0.0
 8 H  px              0.1       0.0       0.0       0.0       0.2       0.0
 8 H  py              0.0       0.1       0.1       0.0       0.0       0.0
 9 H  s               3.6       3.3      11.6       1.2       0.2       1.9
 9 H  pz              0.1       0.0       0.2       0.0       0.0       0.0
 9 H  px              0.1       0.0       0.0       0.0       0.2       0.0
 9 H  py              0.0       0.2       0.0       0.0       0.0       0.0
10 H  s               0.0       0.2       5.8       8.2       3.5       0.2
10 H  pz              0.0       0.0       0.0       0.0       0.0       0.2
10 H  px              0.1       0.1       0.0       0.0       0.0       0.0
11 H  s               0.1       0.2       0.6       3.5       7.1       0.2
11 H  pz              0.0       0.0       0.0       0.0       0.0       0.2
12 H  s               6.1       5.8       0.8       6.0       4.9       0.1
12 H  pz              0.0       0.0       0.0       0.0       0.0       0.2
12 H  py              0.2       0.2       0.0       0.0       0.0       0.0

                     18        19        20        21        22        23   
                  -0.23648  -0.03219   0.00604   0.09724   0.12457   0.13156
                   2.00000   0.00000   0.00000   0.00000   0.00000   0.00000
                  --------  --------  --------  --------  --------  --------
 0 C  s               0.0       0.0       0.1      10.1      11.7       1.3
 0 C  pz              0.9       0.5       0.7       1.1       0.2       8.8
 0 C  px              2.2       2.3       3.1       2.3       1.6       0.2
 0 C  py             23.8      21.4      15.7       0.2       0.3       0.9
 0 C  dz2             0.0       0.0       0.0       0.0       0.4       0.2
 0 C  dxz             0.0       0.1       0.0       0.5       0.0       0.4
 0 C  dx2y2           0.1       0.2       0.5       0.0       0.0       0.0
 0 C  dxy             0.1       0.3       0.3       0.0       0.0       0.0
 1 C  s               0.3       0.3       0.8       6.4       5.0       2.0
 1 C  pz              0.0       1.1       0.0       3.1       1.6       7.2
 1 C  px              4.9       1.2       5.3       0.4       3.9       0.6
 1 C  py             13.5      18.4      18.7       1.2       1.5       2.7
 1 C  dz2             0.0       0.0       0.0       0.0       0.3       0.8
 1 C  dxz             0.1       0.0       0.0       0.1       0.3       0.2
 1 C  dyz             0.0       0.1       0.0       0.1       0.1       0.4
 1 C  dx2y2           0.2       0.3       0.1       0.0       0.0       0.1
 1 C  dxy             0.2       0.3       0.1       0.0       0.0       0.0
 2 C  s               0.0       0.0       0.0      18.1       0.0       0.0
 2 C  pz              0.8       0.1       0.0       2.6       0.2       5.6
 2 C  px              0.7       0.0       1.3       0.0      18.8       0.8
 2 C  py              1.0       0.1       0.1       2.0       0.2       7.4
 2 C  dz2             0.1       0.2       0.1       0.0       1.1       0.7
 2 C  dxz             0.2       0.3       0.6       0.1       0.3       0.0
 2 C  dyz             0.0       0.3       0.0       0.1       0.0       0.0
 2 C  dx2y2           0.0       0.3       0.0       0.0       0.4       0.2
 2 C  dxy             0.2       0.4       0.5       0.1       0.2       0.0
 3 C  s               0.3       0.3       0.8       6.3       5.0       2.1
 3 C  pz             13.2      19.3      18.7       0.9       1.5       1.8
 3 C  px              4.9       1.2       5.3       0.4       3.9       0.6
 3 C  py              0.4       0.2       0.2       3.4       1.7       8.1
 3 C  dz2             0.2       0.2       0.1       0.0       0.0       0.1
 3 C  dxz             0.2       0.3       0.2       0.0       0.0       0.0
 3 C  dyz             0.0       0.1       0.0       0.1       0.1       0.2
 3 C  dx2y2           0.0       0.1       0.0       0.0       0.2       0.9
 3 C  dxy             0.0       0.0       0.0       0.1       0.3       0.2
 4 C  s               0.0       0.0       0.1      10.0      11.9       1.2
 4 C  pz             24.7      21.9      16.3       0.1       0.3       0.3
 4 C  px              2.2       2.3       3.1       2.3       1.6       0.2
 4 C  py              0.1       0.0       0.1       1.2       0.3       9.6
 4 C  dz2             0.1       0.1       0.3       0.0       0.2       0.0
 4 C  dxz             0.1       0.3       0.3       0.0       0.0       0.0
 4 C  dyz             0.0       0.1       0.1       0.0       0.0       0.0
 4 C  dx2y2           0.1       0.0       0.2       0.0       0.2       0.3
 4 C  dxy             0.0       0.0       0.0       0.5       0.0       0.4
 5 H  s               0.1       0.0       0.0       1.8       1.7       0.7
 5 H  pz              0.0       0.0       0.0       0.4       1.1       0.0
 5 H  px              0.0       0.0       0.1       0.1       0.3       0.2
 5 H  py              0.2       0.5       0.4       0.0       0.0       0.0
 6 H  s               0.0       0.0       0.1       0.8       3.4       2.7
 6 H  pz              0.0       0.0       0.0       0.3       1.6       1.2
 6 H  px              0.0       0.1       0.1       0.2       0.0       0.1
 6 H  py              0.2       0.5       0.5       0.0       0.0       0.0
 7 H  s               0.1       0.0       0.0       1.6       0.9       5.3
 7 H  pz              0.0       0.0       0.0       0.5       0.9       1.9
 7 H  px              0.1       0.0       0.1       0.2       0.2       0.1
 7 H  py              0.1       0.6       0.6       0.2       0.1       0.3
 8 H  s               1.2       0.6       0.9       4.4       1.5       2.8
 8 H  pz              0.0       0.0       0.0       0.3       0.0       0.0
 8 H  px              0.0       0.0       0.1       0.2       0.5       0.1
 8 H  py              0.0       0.0       0.0       1.7       0.2       1.1
 9 H  s               1.2       0.6       0.9       4.4       1.4       2.7
 9 H  pz              0.0       0.0       0.0       1.5       0.2       1.1
 9 H  px              0.0       0.0       0.1       0.2       0.5       0.1
 9 H  py              0.0       0.0       0.0       0.6       0.0       0.0
10 H  s               0.1       0.0       0.0       1.6       1.0       5.3
10 H  pz              0.1       0.6       0.6       0.2       0.2       0.1
10 H  px              0.1       0.0       0.1       0.2       0.2       0.1
10 H  py              0.0       0.0       0.0       0.6       0.8       2.1
11 H  s               0.1       0.0       0.0       1.8       1.7       0.7
11 H  pz              0.2       0.5       0.5       0.0       0.0       0.0
11 H  px              0.0       0.0       0.1       0.1       0.3       0.2
11 H  py              0.0       0.0       0.0       0.4       1.1       0.0
12 H  s               0.0       0.0       0.1       0.8       3.4       2.8
12 H  pz              0.2       0.6       0.5       0.0       0.0       0.0
12 H  px              0.0       0.1       0.1       0.2       0.0       0.1
12 H  py              0.0       0.0       0.0       0.3       1.6       1.3

                     24        25        26        27        28        29   
                   0.13633   0.14867   0.15133   0.15636   0.17280   0.19316
                   0.00000   0.00000   0.00000   0.00000   0.00000   0.00000
                  --------  --------  --------  --------  --------  --------
 0 C  s               1.9       0.6       3.8      10.6       1.5       6.8
 0 C  pz              6.9       4.2       0.3       0.2       2.4       3.3
 0 C  px              1.8       2.2       5.5      13.4      10.5       1.7
 0 C  py              0.1       0.6       5.1       1.2       1.9       1.5
 0 C  dz2             0.7       0.0       0.3       0.3       0.0       0.1
 0 C  dxz             0.1       0.4       0.2       0.0       0.4       1.0
 0 C  dyz             0.3       0.0       0.1       0.1       0.0       0.0
 0 C  dx2y2           0.0       0.0       0.0       0.2       0.2       0.9
 0 C  dxy             0.0       0.0       0.1       0.2       0.2       0.2
 1 C  s               6.8       6.4       6.5       0.3       1.6       5.8
 1 C  pz              3.3       6.3       3.5       0.4       1.8       4.2
 1 C  px              1.2       0.7       3.5       3.5       2.1       0.3
 1 C  py              2.1       0.1       0.6       0.7       1.0       0.6
 1 C  dz2             0.2       0.8       0.0       0.2       0.0       0.7
 1 C  dxz             0.8       0.0       0.1       0.4       0.6       0.4
 1 C  dyz             0.1       0.3       0.0       0.0       0.2       0.3
 1 C  dx2y2           0.7       0.2       0.6       0.0       0.0       0.0
 1 C  dxy             0.2       0.1       1.1       0.0       0.0       0.0
 2 C  s               1.0       6.8       0.0       4.1       0.0       4.4
 2 C  pz              9.0      12.3       4.4       0.5       5.3       1.5
 2 C  px              0.0       0.0       1.9       0.0       8.8       0.0
 2 C  py              6.8       9.4       5.9       0.4       6.8       1.1
 2 C  dz2             0.2       0.0       0.6       0.1       0.7       0.0
 2 C  dxz             0.3       0.2       0.5       0.0       0.4       0.0
 2 C  dyz             0.7       0.3       0.0       0.0       0.0       0.0
 2 C  dx2y2           1.0       0.0       0.2       0.2       0.2       0.0
 2 C  dxy             0.4       0.3       0.3       0.0       0.3       0.1
 3 C  s               6.6       6.7       6.4       0.3       1.5       5.8
 3 C  pz              2.4       0.4       0.4       0.8       1.3       1.0
 3 C  px              1.2       0.7       3.4       3.7       2.1       0.3
 3 C  py              2.9       6.2       3.5       0.3       1.5       3.9
 3 C  dz2             0.3       0.8       0.4       0.0       0.0       0.2
 3 C  dxz             0.3       0.1       1.0       0.0       0.0       0.0
 3 C  dyz             0.1       0.0       0.1       0.1       0.2       0.2
 3 C  dx2y2           0.6       0.4       0.1       0.1       0.0       0.8
 3 C  dxy             0.6       0.0       0.2       0.4       0.7       0.4
 4 C  s               1.8       0.7       3.6      10.8       1.5       6.8
 4 C  pz              0.0       0.9       4.9       1.1       2.4       1.0
 4 C  px              1.8       2.3       5.2      13.6      10.5       1.7
 4 C  py              6.8       3.9       0.4       0.3       1.8       3.8
 4 C  dz2             0.2       0.0       0.0       0.6       0.1       0.8
 4 C  dxz             0.0       0.0       0.1       0.2       0.3       0.3
 4 C  dyz             0.1       0.0       0.2       0.0       0.0       0.1
 4 C  dx2y2           0.7       0.0       0.2       0.1       0.2       0.1
 4 C  dxy             0.1       0.4       0.3       0.1       0.3       0.9
 5 H  s               0.6       0.5       0.5       3.1       6.6      10.7
 5 H  pz              0.0       0.1       0.1       1.0       0.8       0.8
 5 H  px              0.7       0.0       0.5       1.0       1.7       1.1
 5 H  py              0.2       0.0       0.1       0.0       0.1       0.1
 6 H  s               4.8       0.2       0.4       6.5       0.1       0.2
 6 H  pz              0.8       0.2       0.0       2.2       0.1       0.0
 6 H  px              0.0       0.3       0.5       0.1       0.1       0.6
 6 H  py              0.1       0.1       0.1       0.2       0.0       0.1
 7 H  s               0.5       6.2       1.5       0.1       0.1       2.4
 7 H  pz              0.3       2.5       0.6       0.0       0.0       0.0
 7 H  px              0.2       0.0       0.4       0.4       0.2       0.0
 7 H  py              0.0       0.2       0.0       0.1       0.1       0.0
 8 H  s               3.5       0.4       6.0       0.2       2.9       1.6
 8 H  pz              1.2       0.2       0.1       0.0       0.0       0.0
 8 H  px              0.1       0.0       0.5       0.0       0.2       0.3
 8 H  py              0.2       1.0       0.9       0.5       1.3       0.5
 9 H  s               3.7       0.4       6.0       0.2       2.9       1.6
 9 H  pz              0.1       1.2       1.0       0.5       1.2       0.5
 9 H  px              0.1       0.0       0.5       0.0       0.2       0.3
 9 H  py              1.3       0.1       0.1       0.0       0.0       0.0
10 H  s               0.5       6.4       1.5       0.1       0.2       2.4
10 H  px              0.2       0.0       0.4       0.5       0.2       0.0
10 H  py              0.2       2.7       0.5       0.0       0.0       0.0
11 H  s               0.5       0.5       0.5       3.0       6.6      10.7
11 H  pz              0.2       0.0       0.1       0.1       0.2       0.1
11 H  px              0.7       0.0       0.4       1.0       1.7       1.2
11 H  py              0.0       0.2       0.1       0.9       0.7       0.7
12 H  s               4.7       0.2       0.4       6.4       0.1       0.2
12 H  pz              0.0       0.0       0.1       0.0       0.0       0.1
12 H  px              0.0       0.3       0.5       0.2       0.1       0.6
12 H  py              0.8       0.2       0.0       2.3       0.1       0.0

                     30        31        32        33        34        35   
                   0.21100   0.21265   0.22748   0.24135   0.25684   0.26270
                   0.00000   0.00000   0.00000   0.00000   0.00000   0.00000
                  --------  --------  --------  --------  --------  --------
 0 C  s               0.3       0.1       8.6       1.9       2.0       4.2
 0 C  pz              4.5      12.9       2.3       4.7      13.1       0.2
 0 C  px              7.1      15.2       0.3       5.3       3.2       1.6
 0 C  py              8.1       1.5       4.5       9.9       3.0       4.2
 0 C  dz2             1.1       0.2       0.5       0.1       0.3       0.5
 0 C  dxz             0.0       0.3       0.0       0.2       0.0       0.2
 0 C  dyz             0.0       0.0       0.4       0.0       0.0       0.0
 0 C  dx2y2           0.1       0.2       0.3       0.0       0.3       0.4
 0 C  dxy             0.0       0.1       0.7       0.4       0.1       0.2
 1 C  s               0.3       0.2       2.4       1.0       0.4       1.6
 1 C  pz              2.2       0.6       3.3       0.7       4.1      10.1
 1 C  px              5.5       3.7       3.1       2.8       0.2       2.4
 1 C  py              0.9       4.3       0.6      15.1       3.3       0.7
 1 C  dz2             0.0       0.0       0.2       0.2       0.6       0.0
 1 C  dxz             0.7       0.0       0.5       0.0       0.1       0.1
 1 C  dyz             0.2       0.0       0.0       0.1       0.1       0.0
 1 C  dx2y2           0.0       0.0       0.2       0.0       0.0       0.1
 1 C  dxy             0.0       0.3       0.0       0.0       0.2       0.0
 2 C  s               2.1       0.0       0.0       0.2       1.9       0.0
 2 C  pz             12.0       3.4       1.4       2.1       3.1       3.1
 2 C  px              0.0       0.6      10.3       0.0       0.0       4.5
 2 C  py              8.6       5.2       1.8       1.6       2.3       4.2
 2 C  dz2             0.0       0.2       0.7       0.2       0.1       0.1
 2 C  dxz             0.1       0.2       0.1       0.0       0.0       0.1
 2 C  dyz             0.5       0.0       0.0       0.1       0.2       0.0
 2 C  dx2y2           0.2       0.1       0.2       0.6       0.5       0.0
 2 C  dxy             0.2       0.2       0.1       0.1       0.0       0.1
 3 C  s               0.3       0.2       2.4       1.0       0.4       1.6
 3 C  pz              1.1       4.0       1.1      15.3       2.4       1.6
 3 C  px              5.1       4.2       3.2       2.7       0.2       2.4
 3 C  py              1.9       0.9       2.9       0.6       4.9       9.4
 3 C  dz2             0.0       0.0       0.4       0.1       0.3       0.1
 3 C  dxz             0.0       0.3       0.0       0.0       0.2       0.0
 3 C  dyz             0.2       0.0       0.0       0.2       0.0       0.0
 3 C  dx2y2           0.0       0.0       0.0       0.0       0.4       0.1
 3 C  dxy             0.6       0.1       0.5       0.0       0.0       0.1
 4 C  s               0.3       0.1       8.7       1.9       2.0       4.2
 4 C  pz              6.9       2.2       3.7       8.1       4.7       3.8
 4 C  px              6.2      16.1       0.3       5.3       3.2       1.7
 4 C  py              5.1      12.6       3.1       6.7      11.2       0.5
 4 C  dz2             0.0       0.0       1.0       0.1       0.0       0.8
 4 C  dxz             0.0       0.0       0.6       0.4       0.1       0.2
 4 C  dyz             0.0       0.0       0.1       0.0       0.0       0.1
 4 C  dx2y2           1.1       0.4       0.2       0.0       0.6       0.1
 4 C  dxy             0.0       0.4       0.1       0.1       0.0       0.2
 5 H  s               0.1       0.5       0.7       1.6       1.2       9.0
 5 H  pz              0.5       0.5       0.0       0.0       1.0       1.0
 5 H  px              0.6       0.0       0.0       0.0       0.1       0.9
 6 H  s               3.7       0.6       7.2       1.2       0.9       1.4
 6 H  pz              0.4       0.0       1.2       0.7       0.0       0.3
 6 H  px              0.0       0.5       0.2       0.0       0.2       0.2
 6 H  py              0.0       0.0       0.2       0.0       0.0       0.0
 7 H  s               0.2       0.4       0.9       0.5       8.5       2.1
 7 H  pz              0.1       0.1       0.2       0.1       2.0       1.0
 7 H  px              0.4       0.3       0.2       0.1       0.0       0.0
 7 H  py              0.1       0.0       0.0       0.0       0.1       0.0
 8 H  s               1.5       1.1       2.8       0.4       0.9       0.6
 8 H  pz              0.5       0.1       0.1       0.3       0.1       0.0
 8 H  px              0.0       0.1       0.1       0.1       0.0       0.1
 8 H  py              0.1       0.0       0.6       0.0       0.1       0.4
 9 H  s               1.6       1.0       2.8       0.4       0.9       0.6
 9 H  pz              0.1       0.0       0.7       0.0       0.1       0.4
 9 H  px              0.0       0.1       0.1       0.1       0.0       0.1
 9 H  py              0.5       0.1       0.1       0.3       0.2       0.0
10 H  s               0.2       0.4       0.9       0.6       8.3       2.2
10 H  pz              0.1       0.0       0.0       0.1       0.0       0.0
10 H  px              0.4       0.3       0.2       0.1       0.0       0.0
10 H  py              0.1       0.1       0.2       0.0       2.0       1.1
11 H  s               0.1       0.5       0.7       1.6       1.2       9.1
11 H  pz              0.0       0.0       0.0       0.0       0.0       0.1
11 H  px              0.5       0.0       0.0       0.0       0.1       0.9
11 H  py              0.5       0.6       0.0       0.0       1.0       0.9
12 H  s               3.7       0.7       7.2       1.2       0.9       1.4
12 H  px              0.0       0.6       0.2       0.0       0.2       0.2
12 H  py              0.4       0.0       1.3       0.7       0.0       0.3

                     36        37        38        39        40        41   
                   0.27993   0.28610   0.29108   0.32314   0.32352   0.36418
                   0.00000   0.00000   0.00000   0.00000   0.00000   0.00000
                  --------  --------  --------  --------  --------  --------
 0 C  s               0.3       4.6       0.2       7.1       2.0       1.2
 0 C  pz              2.0       6.9      14.5       0.2       0.4       0.2
 0 C  px              0.3       2.6       4.9       1.0       3.5       1.7
 0 C  py             11.0       9.8       0.1       0.4      16.9      11.1
 0 C  dz2             0.3       0.0       0.4       0.2       0.1       0.1
 0 C  dxz             0.1       0.4       1.2       0.0       0.0       0.0
 0 C  dyz             0.2       0.1       0.1       0.1       0.1       0.0
 0 C  dx2y2           0.0       0.0       0.0       0.8       0.1       0.0
 0 C  dxy             0.1       0.2       0.0       0.3       0.1       0.1
 1 C  s               2.8       0.6       0.1       5.7       0.4       1.4
 1 C  pz              3.0       6.7       2.2       6.1       0.3       1.2
 1 C  px              3.0       0.7       1.6       3.0       2.2       1.0
 1 C  py              6.5       0.3       3.5       5.9       2.2      17.3
 1 C  dz2             0.8       0.1       0.0       0.5       0.2       0.0
 1 C  dxz             0.3       0.1       0.4       0.2       0.4       0.0
 1 C  dyz             0.0       0.0       0.6       0.1       0.0       0.0
 1 C  dx2y2           0.1       0.4       0.1       0.8       0.2       0.1
 1 C  dxy             0.0       0.0       0.3       0.3       0.0       0.1
 2 C  s               0.0       1.0       0.0       2.1       0.0       1.8
 2 C  pz              0.8       8.7       3.6       7.8       9.6       3.3
 2 C  px             10.8       0.0       9.3       0.0       1.7       0.0
 2 C  py              1.1       6.7       4.7       4.0      15.1       2.5
 2 C  dz2             0.2       0.1       0.3       0.0       0.9       0.0
 2 C  dxz             1.0       0.0       1.0       0.2       0.0       0.2
 2 C  dyz             0.0       0.0       0.0       0.0       0.0       0.8
 2 C  dx2y2           0.1       0.4       0.1       0.1       0.3       0.0
 2 C  dxy             0.8       0.0       0.8       0.2       0.0       0.2
 3 C  s               2.9       0.6       0.1       5.7       0.4       1.5
 3 C  pz              5.2       0.0       4.0       3.3       2.9      17.4
 3 C  px              3.0       0.7       1.6       2.5       2.6       1.0
 3 C  py              4.4       6.7       1.7       6.8       1.4       0.3
 3 C  dz2             0.4       0.2       0.0       1.4       0.0       0.1
 3 C  dxz             0.0       0.0       0.4       0.3       0.0       0.1
 3 C  dyz             0.2       0.0       0.6       0.0       0.0       0.0
 3 C  dx2y2           0.4       0.3       0.1       0.0       0.5       0.0
 3 C  dxy             0.3       0.1       0.3       0.1       0.5       0.0
 4 C  s               0.2       4.7       0.2       8.1       1.0       1.4
 4 C  pz             10.1      12.2       0.1       1.7      15.6      10.9
 4 C  px              0.3       2.7       4.7       0.6       3.9       1.7
 4 C  py              2.5       4.8      14.5       0.1       0.7       0.1
 4 C  dz2             0.1       0.0       0.0       1.0       0.0       0.0
 4 C  dxz             0.1       0.2       0.0       0.3       0.0       0.1
 4 C  dyz             0.1       0.1       0.0       0.0       0.1       0.0
 4 C  dx2y2           0.3       0.0       0.4       0.0       0.2       0.0
 4 C  dxy             0.0       0.5       1.2       0.0       0.0       0.0
 5 H  s               0.3       1.1       2.3       2.1       0.1       0.3
 5 H  pz              0.1       0.1       0.1       0.0       0.3       0.2
 5 H  px              0.3       0.0       0.0       0.1       0.1       0.0
 6 H  s               4.8       0.3       2.1       4.0       1.3       0.3
 6 H  pz              0.8       0.5       0.0       0.6       0.5       0.1
 6 H  px              0.1       0.4       0.4       0.2       0.0       0.0
 6 H  py              0.2       0.0       0.0       0.1       0.0       0.0
 7 H  s               3.9       0.3       2.0       3.5       0.8       0.2
 7 H  pz              0.4       0.1       0.2       0.1       0.1       0.0
 7 H  px              0.0       0.3       0.2       0.1       0.8       0.1
 7 H  py              0.1       0.0       0.3       0.0       0.0       0.1
 8 H  s               0.1       3.3       2.0       0.2       1.6       6.5
 8 H  pz              0.0       0.0       0.3       0.0       0.3       0.5
 8 H  px              0.6       0.1       0.2       0.3       0.0       1.0
 8 H  py              0.0       1.3       0.0       0.0       0.0       1.4
 9 H  s               0.1       3.3       2.0       0.2       1.6       6.3
 9 H  pz              0.0       1.2       0.0       0.0       0.0       1.1
 9 H  px              0.6       0.1       0.2       0.3       0.0       1.0
 9 H  py              0.0       0.1       0.3       0.0       0.3       0.8
10 H  s               4.0       0.3       2.0       2.8       1.4       0.2
10 H  pz              0.2       0.0       0.3       0.0       0.0       0.1
10 H  px              0.0       0.3       0.2       0.0       0.9       0.1
[...]
11 H  pz              0.0       0.4       1.3       0.9       0.0       0.2
11 H  px              0.2       3.1      10.2       6.8       0.2       1.7
11 H  py              0.0       1.3       4.0       2.7       0.6       0.1
12 H  s               0.1       1.0       0.5       0.2       3.2       2.7
12 H  pz              0.0       0.1       0.1       0.0       0.2       0.2
12 H  px              0.0       0.5       0.4       0.0       0.9       1.2
12 H  py              0.7       5.6       3.2       0.6      10.0       8.0

                    126       127       128       129       130       131   
                   3.49477   3.59021   3.77103   3.80531  21.67825  21.72141
                   0.00000   0.00000   0.00000   0.00000   0.00000   0.00000
                  --------  --------  --------  --------  --------  --------
 0 C  s               0.1       0.2       0.0       0.0      29.4      27.0
 0 C  pz              0.2       0.1       2.1       1.4       0.0       0.0
 0 C  px              1.1       0.2       0.3       0.6       0.0       0.0
 0 C  py              0.2       0.0       0.0       0.0       0.0       0.0
 0 C  dz2             3.5       0.0       2.5       1.5       0.0       0.0
 0 C  dxz             0.9       1.1       7.1       8.1       0.0       0.0
 0 C  dyz             0.0       0.2       1.6       1.5       0.0       0.0
 0 C  dx2y2           0.0       0.1       1.3       1.1       0.0       0.0
 0 C  dxy             0.1       0.1       0.2       0.1       0.0       0.0
 1 C  s               0.7       0.1       0.1       0.1      19.8      23.2
 1 C  pz              0.2       0.4       0.9       1.2       0.0       0.0
 1 C  px              1.6       0.1       0.2       0.1       0.0       0.0
 1 C  py              0.2       0.1       0.0       0.1       0.0       0.0
 1 C  dz2             3.3       0.2       2.7       5.5       0.0       0.0
 1 C  dxz             2.4       0.0       4.1       3.1       0.0       0.0
 1 C  dyz             0.0       0.1       1.2       1.3       0.0       0.0
 1 C  dx2y2           0.1       0.9       0.5       1.0       0.0       0.0
 1 C  dxy             0.1       0.2       0.1       0.1       0.0       0.0
 2 C  s               2.6       0.0       0.0       0.3       0.0       0.5
 2 C  pz              4.2       4.2       1.1       0.8       0.0       0.0
 2 C  px              0.0       2.5       0.4       0.0       0.0       0.0
 2 C  py              3.2       5.5       1.5       0.6       0.0       0.0
 2 C  dz2             2.4      18.5       0.6       0.0       0.0       0.0
 2 C  dxz             1.3       0.7       2.1       1.6       0.0       0.0
 2 C  dyz             1.6       0.4       0.0       0.7       0.0       0.0
 2 C  dx2y2           9.1       6.2       0.2       0.1       0.0       0.0
 2 C  dxy             1.8       0.5       1.6       2.1       0.0       0.0
 3 C  s               0.7       0.1       0.1       0.1      20.4      22.7
 3 C  pz              0.2       0.0       0.1       0.0       0.0       0.0
 3 C  px              1.6       0.1       0.2       0.1       0.0       0.0
 3 C  py              0.2       0.4       0.9       1.3       0.0       0.0
 3 C  dz2             1.3       0.3       0.2       0.3       0.0       0.0
 3 C  dxz             0.0       0.2       0.3       0.3       0.0       0.0
 3 C  dyz             0.3       0.1       0.6       0.5       0.0       0.0
 3 C  dx2y2           1.9       0.9       3.6       7.0       0.0       0.0
 3 C  dxy             2.4       0.0       3.9       2.9       0.0       0.0
 4 C  s               0.1       0.2       0.0       0.0      30.1      26.3
 4 C  pz              0.1       0.0       0.0       0.1       0.0       0.0
 4 C  px              1.1       0.2       0.3       0.6       0.0       0.0
 4 C  py              0.3       0.1       2.1       1.4       0.0       0.0
 4 C  dz2             0.6       0.0       0.0       0.0       0.0       0.0
 4 C  dxz             0.0       0.0       0.6       0.4       0.0       0.0
 4 C  dyz             0.1       0.1       1.0       1.1       0.0       0.0
 4 C  dx2y2           2.9       0.1       4.3       3.0       0.0       0.0
 4 C  dxy             0.9       1.1       6.7       7.8       0.0       0.0
 5 H  s               0.4       0.2       2.6       2.6       0.0       0.0
 5 H  pz              0.3       0.3       2.7       2.6       0.0       0.0
 5 H  px              1.3       0.2       2.2       2.1       0.0       0.0
 6 H  s               0.8       0.1       2.0       1.5       0.0       0.0
 6 H  pz              2.0       0.4       3.9       2.8       0.0       0.0
 6 H  px              0.3       0.0       0.0       0.0       0.0       0.0
 6 H  py              0.2       0.0       0.1       0.0       0.0       0.0
 7 H  s               0.7       0.2       1.5       2.4       0.0       0.0
 7 H  pz              2.0       0.5       3.6       5.0       0.0       0.0
 7 H  px              0.3       0.0       0.0       0.0       0.0       0.0
 7 H  py              0.2       0.0       0.1       0.1       0.0       0.0
 8 H  s               2.7       7.2       0.8       0.3       0.0       0.0
 8 H  pz              0.6       0.0       0.0       0.0       0.0       0.0
 8 H  px              1.9       0.8       0.1       0.1       0.0       0.0
 8 H  py              8.1      16.7       1.4       0.6       0.0       0.0
 9 H  s               2.7       7.2       0.8       0.3       0.0       0.0
 9 H  pz              7.4      16.5       1.4       0.6       0.0       0.0
 9 H  px              1.9       0.8       0.1       0.1       0.0       0.0
 9 H  py              1.3       0.2       0.0       0.0       0.0       0.0
10 H  s               0.7       0.2       1.5       2.4       0.0       0.0
10 H  px              0.3       0.0       0.0       0.0       0.0       0.0
10 H  py              2.2       0.5       3.7       5.1       0.0       0.0
11 H  s               0.4       0.2       2.5       2.6       0.0       0.0
11 H  pz              0.1       0.0       0.2       0.2       0.0       0.0
11 H  px              1.3       0.2       2.2       2.1       0.0       0.0
11 H  py              0.2       0.3       2.5       2.4       0.0       0.0
12 H  s               0.8       0.1       2.0       1.5       0.0       0.0
12 H  px              0.4       0.0       0.0       0.0       0.0       0.0
12 H  py              2.1       0.4       4.0       2.9       0.0       0.0

                    132       133       134   
                  21.99161  22.11167  22.17579
                   0.00000   0.00000   0.00000
                  --------  --------  --------
 0 C  s               0.7      22.5      20.1
 1 C  s               2.6      24.3      29.8
 2 C  s              93.3       5.9       0.0
 3 C  s               2.6      24.3      29.7
 4 C  s               0.7      22.6      20.1


                      *****************************
                      * MAYER POPULATION ANALYSIS *
                      *****************************

  NA   - Mulliken gross atomic population
  ZA   - Total nuclear charge
  QA   - Mulliken gross atomic charge
  VA   - Mayer's total valence
  BVA  - Mayer's bonded valence
  FA   - Mayer's free valence

  ATOM       NA         ZA         QA         VA         BVA        FA
  0 C      6.3589     6.0000    -0.3589     3.9723     3.9723     0.0000
  1 C      6.0787     6.0000    -0.0787     3.6596     3.6596    -0.0000
  2 C      6.3036     6.0000    -0.3036     3.8573     3.8573     0.0000
  3 C      6.0790     6.0000    -0.0790     3.6601     3.6601     0.0000
  4 C      6.3588     6.0000    -0.3588     3.9722     3.9722    -0.0000
  5 H      0.8583     1.0000     0.1417     0.9722     0.9722     0.0000
  6 H      0.8604     1.0000     0.1396     0.9720     0.9720     0.0000
  7 H      0.8438     1.0000     0.1562     0.9653     0.9653    -0.0000
  8 H      0.8481     1.0000     0.1519     0.9645     0.9645     0.0000
  9 H      0.8479     1.0000     0.1521     0.9644     0.9644     0.0000
 10 H      0.8437     1.0000     0.1563     0.9653     0.9653    -0.0000
 11 H      0.8583     1.0000     0.1417     0.9722     0.9722    -0.0000
 12 H      0.8604     1.0000     0.1396     0.9720     0.9720    -0.0000

  Mayer bond orders larger than 0.100000
B(  0-C ,  1-C ) :   1.9290 B(  0-C ,  5-H ) :   0.9595 B(  0-C ,  6-H ) :   0.9841 
B(  1-C ,  2-C ) :   0.9126 B(  1-C ,  7-H ) :   0.9262 B(  2-C ,  3-C ) :   0.9129 
B(  2-C ,  8-H ) :   0.9853 B(  2-C ,  9-H ) :   0.9853 B(  3-C ,  4-C ) :   1.9291 
B(  3-C , 10-H ) :   0.9261 B(  4-C , 11-H ) :   0.9595 B(  4-C , 12-H ) :   0.9841 


-------
TIMINGS
-------

Total SCF time: 0 days 0 hours 0 min 10 sec 

Total time                  ....      10.507 sec
Sum of individual times     ....      10.062 sec  ( 95.8%)

SCF preparation             ....       0.156 sec  (  1.5%)
Fock matrix formation       ....       9.153 sec  ( 87.1%)
  Startup                   ....       0.049 sec  (  0.5% of F)
  Split-RI-J                ....       1.277 sec  ( 14.0% of F)
  XC integration            ....       7.368 sec  ( 80.5% of F)
    XC Preparation          ....       0.000 sec  (  0.0% of XC)
    Basis function eval.    ....       1.467 sec  ( 19.9% of XC)
    Density eval.           ....       1.720 sec  ( 23.3% of XC)
    XC-Functional eval.     ....       1.362 sec  ( 18.5% of XC)
    XC-Potential eval.      ....       2.132 sec  ( 28.9% of XC)
Diagonalization             ....       0.000 sec  (  0.0%)
Density matrix formation    ....       0.180 sec  (  1.7%)
Total Energy calculation    ....       0.029 sec  (  0.3%)
Population analysis         ....       0.070 sec  (  0.7%)
Orbital Transformation      ....       0.052 sec  (  0.5%)
Orbital Orthonormalization  ....       0.000 sec  (  0.0%)
DIIS solution               ....       0.304 sec  (  2.9%)
  MO trafo                  ....       0.000 sec  (  0.0 % of DIIS)
  Orb grad                  ....       0.000 sec  (  0.0 % of DIIS)
  Energy W gradient         ....       0.000 sec  (  0.0 % of DIIS)
  DIIS error                ....       0.003 sec  (  0.9 % of DIIS)
  DIIS work                 ....       0.260 sec  ( 85.5 % of DIIS)
  Form Q                    ....       0.000 sec  (  0.0 % of DIIS)
  Form QpQm                 ....       0.000 sec  (  0.0 % of DIIS)
  Exp/Cayley                ....       0.000 sec  (  0.0 % of DIIS)
  Orb update                ....       0.000 sec  (  0.0 % of DIIS)
  Wake-sleep                ....       0.014 sec  (  4.5 % of DIIS)
SOSCF solution              ....       0.117 sec  (  1.1%)
  MO trafo                  ....       0.047 sec  ( 40.4 % of SOSCF)
  Orb grad                  ....       0.003 sec  (  2.1 % of SOSCF)
  Rot update                ....       0.039 sec  ( 32.8 % of SOSCF)
  Step                      ....       0.029 sec  ( 24.5 % of SOSCF)
Finished LeanSCF after  10.6 sec

Maximum memory used throughout the entire LEANSCF-calculation: 14.0 MB


-------------------------------------------------------------------------------
                          DFT DISPERSION CORRECTION                            
                                                                               
                                DFTD4 V3.4.0                                   
-------------------------------------------------------------------------------
The R2SCAN3C composite method is recognized
Using three-body term ABC
Active option DFTDOPT                   ...         5   

-------------------------   ----------------
Dispersion correction           -0.002835985
-------------------------   ----------------

------------------   -----------------
gCP correction             0.003779943
------------------   -----------------

-------------------------   --------------------
FINAL SINGLE POINT ENERGY      -195.227961266700
-------------------------   --------------------


------------------------------------------------------------------------------
                              ORCA PROPERTY CALCULATIONS
------------------------------------------------------------------------------

GBWName                                 ... sp_gas.gbw
Number of atoms                         ...     13
Number of basis functions               ...    135
Max core memory                         ...   1024 MB

Electric properties:
Dipole moment                           ... YES
Quadrupole moment                       ...  NO
Static polarizability (Dipole/Dipole)   ...  NO
Static polarizability (Dipole/Quad.)    ...  NO
Static polarizability (Quad./Quad.)     ...  NO
Static polarizability (Velocity)        ...  NO

Atomic electric properties:
Dipole moment                           ...  NO
Quadrupole moment                       ...  NO
Static polarizability                   ...  NO

Choice of electric origin               ... Center of mass
Position of electric origin             ...    -0.000000    -0.000000    -0.000000

General magnetic properties:
Magnetizability                         ...  NO

EPR properties:
g-Tensor (aka g-matrix)                 ...  NO
Zero-Field splitting spin-orbit         ...  NO
Zero-field splitting spin-spin          ...  NO
Hyperfine couplings                     ...  NO (   0 nuclei)
Quadrupole couplings                    ...  NO (   0 nuclei)
Contact density                         ...  NO (   0 nuclei)

NMR properties:
Chemical shifts                         ...  NO (   0 nuclei)
Spin-rotation constants                 ...  NO (   0 nuclei)
Spin-spin couplings                     ...  NO (   0 nuclei,    0 pairs)

Choice of magnetic origin               ... GIAO
Position of magnetic origin             ...     0.000000     0.000000     0.000000

Properties with geometric perturbations:
SCF Hessian                             ...  NO
IR spectrum                             ...  NO
VCD spectrum                            ...  NO
X-ray spectroscopy properties:
SCF XES/XAS/RIXS spectra                ...  NO


-------------
DIPOLE MOMENT
-------------

Method             : SCF
Type of density    : Electron Density
Multiplicity       :   1
Irrep              :   0
Energy             :  -195.2289052247416521 Eh
Relativity type    : 
Basis              : AO
                                X                 Y                 Z
Electronic contribution:      0.000694784       0.118203877       0.137051103
Nuclear contribution   :     -0.000697146      -0.150889645      -0.174156888
                        -----------------------------------------
Total Dipole Moment    :     -0.000002362      -0.032685768      -0.037105785
                        -----------------------------------------
Magnitude (a.u.)       :      0.049448950
Magnitude (Debye)      :      0.125689243



--------------------
Rotational spectrum 
--------------------
 
Rotational constants in cm-1:             0.646629             0.080796             0.080046 
Rotational constants in MHz :         19385.442674          2422.189378          2399.711506 

Dipole components along the rotational axes: 
x,y,z [a.u.] :    -0.000009     0.049446     0.000518 
x,y,z [Debye]:    -0.000022     0.125682     0.001318 

 

Dipole moment calculation done in   0.0 sec 

Maximum memory used throughout the entire PROP-calculation: 7.6 MB

--------------------------------
SUGGESTED CITATIONS FOR THIS RUN
--------------------------------

Below you find a list of papers that are relevant to this ORCA run
We neither can nor want to force you to cite these papers, but we appreciate if you do
You receive ORCA, which is the product of decades of hard work by many enthusiastic individuals, for free
The only thing we kindly ask in return is that you cite our papers,
We deeply appreciate it, if you show your appreciation for ORCA by not just citing the generic ORCA reference.

Please note that relegating all ORCA citations to the supporting information does *not* help us.
SI sections are not indexed - citations you put there will not count into any citation statistics
But we need these citations in order to attract the funding resources that allow us to do what we are doing

Therefore, if you are a happy ORCA user, please consider citing a few of the papers listed below in the main body of your paper

In addition to the list printed below, the program has created the file sp_gas.bibtex that contains the list in bibtex format
You can import this file easily into all common literature databanks and citation aid programs


List of essential papers. We consider these as the minimum necessary citations

  1. Neese,F.
     Software update: the ORCA program system, version 5.0
     WIRES Comput. Molec. Sci., 2022 12(1)e1606
     doi.org/10.1002/wcms.1606
  2. Grimme,S.; Hansen,A.; Ehlert,S.; Mewes,J.
     r2SCAN-3c: A 'Swiss army knife' composite electronic-structure method
     J. Chem. Phys., 2021 154 064103
     doi.org/10.1063/5.0040021

List of papers to cite with high priority. The work reported in these papers was absolutely
necessary for this run to complete.
Our perspective: the developers of density functionals and basis sets usually get cited in chemistry papers
Good! But without the algorithms to do something with them, the functionals or basis sets would not do anything.
Hence, in our opinion, the algorithm design and method developments papers are equally worthy of getting cited

  1. Neese,F.
     An improvement of the resolution of the identity approximation for the formation of the Coulomb matrix
     J. Comp. Chem., 2003 24(14)1740-1747
     doi.org/10.1002/jcc.10318
  2. Neese,F.
     The SHARK Integral Generation and Digestion System
     J. Comp. Chem., 2022  1-16
     doi.org/10.1002/jcc.26942
  3. Lehtola,S.; Steigemann,C.; Oliveira,M.; Marques,M.
     Recent developments in Libxc - A comprehensive library of functionals for density functional theory
     Software X, 2018 7 
     doi.org/10.1016/j.softx.2017.11.002
  4. Caldeweyher,E.; Bannwarth,C.; Grimme,S.
     Extension of the D3 dispersion coefficient model
     J. Chem. Phys., 2017 147 034112-XXXX
     doi.org/10.1063/1.4993215
  5. Caldeweyher,E.; Ehlert,S.; Hansen,A.; Neugebauer,H.; Spicher,S.; Bannwarth,C.; Grimme,S.
     A generally applicable atomic-charge dependent London dispersion correction
     J. Chem. Phys., 2019 150 154122-XXXX
     doi.org/10.1063/1.5090222
  6. Caldeweyher,E.; Mewes,J.; Ehlert,S.; Grimme,S.
     Extension and evaluation of the D4 London-dispersion model for periodic systems
     Phys. Chem. Chem. Phys., 2020 22(16)8499-8512
     doi.org/10.1039/D0CP00502A

List of suggested additional citations. These are papers that are important in the 'surrounding' of 
of this run, or papers that preceded the highly important papers. If you like your results we are grateful for a citation.

  1. Neese,F.
     The ORCA program system
     WIRES Comput. Molec. Sci., 2012 2(1)73-78
     doi.org/10.1002/wcms.81
  2. Neese,F.
     Software update: the ORCA program system, version 4.0
     WIRES Comput. Molec. Sci., 2018 8(1)1-6
     doi.org/10.1002/wcms.1327
  3. Neese,F.; Wennmohs,F.; Becker,U.; Riplinger,C.
     The ORCA quantum chemistry program package
     J. Chem. Phys., 2020 152 Art. No. L224108
     doi.org/10.1063/5.0004608

List of optional additional citations

  1. Neese,F.
     Approximate second-order SCF convergence for spin unrestricted wavefunctions
     Chem. Phys. Lett., 2000 325(1-3)93-98
     doi.org/10.1016/s0009-2614(00)00662-x

Timings for individual modules:

Sum of individual times          ...       11.771 sec (=   0.196 min)
Startup calculation              ...        0.769 sec (=   0.013 min)   6.5 %
SCF iterations                   ...       10.899 sec (=   0.182 min)  92.6 %
Property calculations            ...        0.103 sec (=   0.002 min)   0.9 %
                             ****ORCA TERMINATED NORMALLY****
TOTAL RUN TIME: 0 days 0 hours 0 minutes 12 seconds 441 msec
