 Entering Gaussian System
 *********************************************
 Gaussian 98:
 frequency output generated by the xtb code
 *********************************************
                         Standard orientation:
 --------------------------------------------------------------------
  Center     Atomic     Atomic              Coordinates (Angstroms)
  Number     Number      Type              X           Y           Z
 --------------------------------------------------------------------
    1          6             0       -3.545921   -1.561524   -0.972213
    2          6             0       -3.174326   -0.597767    0.154511
    3          1             0       -3.657899   -0.894607    1.088242
    4          6             0       -1.674591   -0.545473    0.372087
    5          6             0       -1.128482   -0.994828    1.590327
    6          6             0        0.219950   -0.973528    1.804002
    7          6             0        1.103099   -0.494153    0.812169
    8          6             0        2.493757   -0.455887    1.001037
    9          6             0        3.332098    0.022012    0.017445
   10          6             0        2.788840    0.481191   -1.199427
   11          6             0        1.437007    0.451379   -1.402086
   12          6             0        0.556908   -0.032396   -0.414785
   13          6             0       -0.838494   -0.070162   -0.604810
   14          8             0        4.666608    0.014740    0.305642
   15          6             0        5.581071    0.493486   -0.662432
   16          6             0       -3.607784    0.816422   -0.161486
   17          8             0       -3.634157    1.309118   -1.268235
   18          8             0       -3.923376    1.494845    0.930789
   19          1             0       -3.170715   -1.188299   -1.921217
   20          1             0       -3.112611   -2.538495   -0.778879
   21          1             0       -4.626239   -1.658334   -1.044131
   22          1             0       -1.792546   -1.362035    2.358394
   23          1             0        0.631647   -1.323002    2.738895
   24          1             0        2.923395   -0.803441    1.927810
   25          1             0        3.433975    0.857862   -1.976554
   26          1             0        1.024637    0.804419   -2.335849
   27          1             0       -1.244666    0.295766   -1.537360
   28          1             0        6.561548    0.385771   -0.203991
   29          1             0        5.398877    1.546198   -0.893700
   30          1             0        5.537640   -0.102253   -1.577862
   31          1             0       -4.158382    2.425243    0.746102
 --------------------------------------------------------------------
     1 basis functions        1 primitive gaussians
     1 alpha electrons        1 beta electrons
 
 Harmonic frequencies (cm**-1), IR intensities (km*mol⁻¹),
 Raman scattering activities (A**4/amu), Raman depolarization ratios,
 reduced masses (AMU), force constants (mDyne/A) and normal coordinates:
                      1                      2                      3
                        a                      a                      a 
 Frequencies --    27.6935                35.4778                47.9998
 Red. masses --    11.3671                13.3126                12.8610
 Frc consts  --     0.0000                 0.0000                 0.0000
 IR Inten    --     1.4337                 3.1657                 4.4700
 Raman Activ --     0.0000                 0.0000                 0.0000
 Depolar     --     0.0000                 0.0000                 0.0000
 Atom AN      X      Y      Z        X      Y      Z        X      Y      Z
   1   6    -0.01  -0.12   0.29     0.17  -0.03  -0.01     0.16  -0.05  -0.18
   2   6    -0.00   0.08   0.12     0.04   0.00   0.01     0.02  -0.09  -0.10
   3   1     0.00   0.07   0.05     0.01  -0.01  -0.00     0.00  -0.06  -0.04
   4   6     0.00   0.05   0.09     0.03   0.11   0.04     0.00   0.04  -0.03
   5   6     0.04  -0.18  -0.01     0.04   0.08   0.03    -0.02   0.07  -0.01
   6   6     0.05  -0.26  -0.07     0.04   0.08   0.03    -0.02   0.13   0.03
   7   6     0.02  -0.11  -0.02     0.04   0.08   0.03    -0.01   0.15   0.05
   8   6     0.03  -0.18  -0.07     0.04   0.00  -0.01    -0.01   0.09   0.05
   9   6     0.00  -0.03  -0.01     0.04  -0.03  -0.02     0.01   0.03   0.04
  10   6    -0.03   0.21   0.09     0.04   0.06   0.02     0.02   0.10   0.06
  11   6    -0.04   0.28   0.14     0.03   0.15   0.06     0.02   0.17   0.07
  12   6    -0.01   0.12   0.09     0.03   0.14   0.06     0.00   0.17   0.05
  13   6    -0.02   0.18   0.13     0.03   0.16   0.06     0.01   0.13   0.02
  14   8     0.02  -0.13  -0.08     0.06  -0.18  -0.08     0.02  -0.11   0.01
  15   6    -0.01   0.04  -0.02     0.07  -0.28  -0.12     0.06  -0.36  -0.09
  16   6    -0.01   0.02  -0.13    -0.11  -0.05  -0.01    -0.09  -0.10  -0.01
  17   8    -0.08  -0.22  -0.25     0.17   0.04   0.03    -0.56  -0.16  -0.02
  18   8     0.06   0.26  -0.28    -0.70  -0.23  -0.06     0.36  -0.07   0.10
  19   1     0.02  -0.10   0.07     0.04   0.01   0.00     0.05   0.01  -0.04
  20   1    -0.03  -0.03   0.15     0.08   0.01  -0.00     0.07  -0.01  -0.06
  21   1    -0.01  -0.02   0.07     0.05  -0.04  -0.01     0.05  -0.04  -0.07
  22   1     0.02  -0.09  -0.01     0.01   0.02   0.01    -0.01   0.01  -0.01
  23   1     0.02  -0.13  -0.04     0.01   0.01   0.00    -0.01   0.04   0.01
  24   1     0.02  -0.11  -0.04     0.01  -0.02  -0.01    -0.01   0.02   0.01
  25   1    -0.02   0.10   0.04     0.01   0.02   0.00     0.01   0.02   0.02
  26   1    -0.02   0.13   0.06     0.01   0.06   0.02     0.01   0.06   0.02
  27   1    -0.01   0.09   0.06     0.01   0.05   0.02     0.01   0.03   0.00
  28   1     0.00  -0.02  -0.02     0.02  -0.12  -0.05     0.02  -0.16  -0.04
  29   1     0.00   0.03   0.06     0.06  -0.07  -0.03     0.08  -0.10  -0.04
  30   1    -0.02   0.06  -0.04    -0.02  -0.08  -0.04    -0.04  -0.12  -0.01
  31   1     0.01   0.06  -0.12    -0.21  -0.07  -0.02     0.07  -0.02   0.04
                      4                      5                      6
                        a                      a                      a 
 Frequencies --    77.6569               105.2827               135.0781
 Red. masses --    11.6112                11.9820                10.3505
 Frc consts  --     0.0000                 0.0000                 0.0000
 IR Inten    --     3.1544                 2.2566                 1.5198
 Raman Activ --     0.0000                 0.0000                 0.0000
 Depolar     --     0.0000                 0.0000                 0.0000
 Atom AN      X      Y      Z        X      Y      Z        X      Y      Z
   1   6    -0.13  -0.04  -0.02     0.18  -0.04  -0.20     0.36   0.18  -0.23
   2   6    -0.03  -0.08  -0.01    -0.02  -0.12  -0.08     0.03   0.08  -0.04
   3   1    -0.02  -0.01  -0.00    -0.04  -0.05  -0.05    -0.04  -0.01  -0.05
   4   6    -0.03  -0.16  -0.01    -0.05  -0.02   0.09    -0.01   0.06   0.18
   5   6    -0.03  -0.16  -0.02    -0.07   0.14   0.15     0.00  -0.14   0.10
   6   6    -0.03  -0.06   0.01    -0.06   0.18   0.16     0.02  -0.21   0.07
   7   6    -0.05   0.05   0.05    -0.06   0.08   0.11     0.03  -0.14   0.11
   8   6    -0.05   0.17   0.07    -0.04  -0.04   0.01     0.04  -0.07   0.07
   9   6    -0.08   0.20   0.06    -0.07  -0.12  -0.06    -0.02  -0.01   0.03
  10   6    -0.10   0.20   0.07    -0.11   0.02   0.01    -0.06  -0.19  -0.02
  11   6    -0.09   0.12   0.06    -0.12   0.11   0.09    -0.06  -0.19   0.05
  12   6    -0.06   0.02   0.04    -0.08   0.08   0.12     0.00  -0.07   0.15
  13   6    -0.05  -0.10   0.01    -0.06   0.02   0.10     0.00   0.08   0.21
  14   8    -0.08   0.27   0.05    -0.05  -0.39  -0.26    -0.01   0.32  -0.02
  15   6    -0.05  -0.36  -0.23    -0.16   0.23  -0.05    -0.15   0.04  -0.27
  16   6     0.18  -0.02  -0.02     0.14  -0.07  -0.04    -0.03   0.07  -0.05
  17   8     0.48   0.04  -0.00     0.35  -0.01  -0.03    -0.11   0.03  -0.08
  18   8     0.16  -0.01  -0.04     0.22  -0.08  -0.03    -0.05   0.11  -0.09
  19   1    -0.02  -0.02  -0.00     0.07   0.02  -0.04     0.15   0.10  -0.03
  20   1    -0.07  -0.03  -0.00     0.06  -0.01  -0.07     0.12   0.06  -0.08
  21   1    -0.04   0.03  -0.01     0.06  -0.03  -0.10     0.11   0.02  -0.14
  22   1    -0.00  -0.07  -0.01    -0.02   0.06   0.05     0.00  -0.06   0.02
  23   1    -0.01  -0.02   0.00    -0.02   0.08   0.05     0.00  -0.10   0.01
  24   1    -0.01   0.05   0.02     0.00  -0.03  -0.01     0.03  -0.00   0.02
  25   1    -0.03   0.08   0.03    -0.04   0.00  -0.00    -0.03  -0.08  -0.03
  26   1    -0.03   0.03   0.02    -0.05   0.05   0.04    -0.03  -0.08   0.01
  27   1    -0.02  -0.03   0.00    -0.02  -0.01   0.02     0.00   0.06   0.07
  28   1    -0.01  -0.17  -0.10    -0.04   0.07  -0.03    -0.03   0.09  -0.09
  29   1     0.08  -0.11  -0.15    -0.11   0.08   0.11    -0.08  -0.02  -0.18
  30   1    -0.12  -0.18  -0.02    -0.02   0.17  -0.09    -0.05  -0.08  -0.01
  31   1     0.09   0.01  -0.01     0.11  -0.00   0.00    -0.03   0.02  -0.03
                      7                      8                      9
                        a                      a                      a 
 Frequencies --   163.7153               167.0356               182.4309
 Red. masses --     2.8951                 8.5832                 9.9480
 Frc consts  --     0.0000                 0.0000                 0.0000
 IR Inten    --     0.1541                 1.0507                 3.8914
 Raman Activ --     0.0000                 0.0000                 0.0000
 Depolar     --     0.0000                 0.0000                 0.0000
 Atom AN      X      Y      Z        X      Y      Z        X      Y      Z
   1   6    -0.08  -0.01  -0.00    -0.07   0.14  -0.09     0.34  -0.19   0.08
   2   6     0.01  -0.01  -0.03     0.02   0.04  -0.04    -0.00  -0.01   0.03
   3   1    -0.01   0.00  -0.01    -0.01   0.01  -0.02    -0.01  -0.01   0.00
   4   6     0.01  -0.04  -0.02     0.02  -0.07   0.00    -0.03   0.16   0.06
   5   6     0.02  -0.15  -0.06    -0.00   0.24   0.13    -0.04   0.25   0.09
   6   6     0.01   0.01  -0.00     0.01   0.07   0.10    -0.02   0.02  -0.07
   7   6     0.00   0.13   0.05     0.07  -0.19   0.02    -0.07  -0.16  -0.19
   8   6     0.00   0.16   0.07     0.09  -0.21  -0.01    -0.08  -0.27  -0.22
   9   6     0.02  -0.01  -0.01     0.05   0.03   0.06    -0.09  -0.02  -0.10
  10   6     0.03  -0.15  -0.06    -0.01   0.30   0.18    -0.06   0.08  -0.07
  11   6     0.02  -0.02  -0.01     0.02   0.03   0.10    -0.06   0.03  -0.11
  12   6     0.00   0.11   0.05     0.07  -0.26  -0.01    -0.07  -0.02  -0.14
  13   6     0.00   0.11   0.05     0.08  -0.36  -0.08    -0.08   0.08  -0.03
  14   8     0.03  -0.09  -0.05     0.08   0.04  -0.06    -0.17   0.22   0.18
  15   6     0.01   0.03   0.00    -0.04   0.03  -0.16     0.05  -0.12   0.19
  16   6     0.01  -0.01  -0.01    -0.03   0.04  -0.02     0.02  -0.02   0.03
  17   8    -0.03   0.04   0.01    -0.17   0.01  -0.04     0.13   0.06   0.07
  18   8    -0.02  -0.07   0.03    -0.10   0.02  -0.03     0.10  -0.06   0.08
  19   1     0.40  -0.28   0.06     0.13  -0.04   0.00     0.26  -0.16   0.05
  20   1    -0.45  -0.14   0.26    -0.19  -0.02   0.04     0.01  -0.07   0.17
  21   1    -0.04   0.40  -0.31    -0.03   0.21  -0.14     0.10   0.00  -0.13
  22   1     0.01  -0.09  -0.04    -0.01   0.16   0.08    -0.01   0.13   0.05
  23   1     0.00  -0.01  -0.00    -0.01   0.07   0.05     0.01   0.01  -0.03
  24   1    -0.00   0.07   0.03     0.03  -0.09  -0.02    -0.02  -0.11  -0.08
  25   1     0.01  -0.10  -0.04    -0.02   0.19   0.09    -0.01   0.06   0.00
  26   1     0.01  -0.03  -0.01    -0.00   0.04   0.04    -0.02   0.03  -0.02
  27   1     0.00   0.06   0.02     0.04  -0.15  -0.05    -0.04   0.02  -0.00
  28   1    -0.00   0.06   0.02     0.02  -0.12  -0.13    -0.01  -0.03   0.11
  29   1    -0.04  -0.00  -0.02     0.07   0.05   0.06     0.06  -0.04  -0.02
  30   1     0.05  -0.00   0.01    -0.14   0.09  -0.09     0.03  -0.09   0.09
  31   1    -0.02  -0.02   0.02    -0.06  -0.00  -0.01     0.06  -0.00   0.04
                     10                     11                     12
                        a                      a                      a 
 Frequencies --   220.2794               227.2066               255.9167
 Red. masses --     8.5937                 6.9074                 8.2853
 Frc consts  --     0.0000                 0.0000                 0.0000
 IR Inten    --     1.2260                 1.6500                 0.6257
 Raman Activ --     0.0000                 0.0000                 0.0000
 Depolar     --     0.0000                 0.0000                 0.0000
 Atom AN      X      Y      Z        X      Y      Z        X      Y      Z
   1   6     0.18   0.23  -0.11     0.23  -0.27   0.18    -0.26   0.09  -0.10
   2   6     0.02   0.02   0.13     0.01   0.10  -0.07    -0.04  -0.11   0.01
   3   1    -0.02  -0.03   0.01     0.01   0.06  -0.01     0.00  -0.05   0.00
   4   6     0.01  -0.09   0.15     0.00   0.08  -0.08    -0.03   0.09  -0.00
   5   6     0.08  -0.17   0.09    -0.05  -0.08  -0.12    -0.01   0.11   0.00
   6   6     0.10  -0.06   0.00    -0.06  -0.08  -0.05    -0.01   0.09   0.01
   7   6    -0.02   0.07  -0.04    -0.03   0.02   0.03     0.02  -0.03  -0.02
   8   6    -0.04   0.24  -0.07    -0.05   0.14   0.14     0.04  -0.24  -0.07
   9   6    -0.07   0.14  -0.13    -0.02   0.05   0.12     0.05  -0.10  -0.00
  10   6    -0.09   0.07  -0.15     0.02  -0.05   0.06     0.06  -0.21  -0.05
  11   6    -0.11  -0.07  -0.13     0.05  -0.15  -0.04     0.05  -0.08  -0.02
  12   6    -0.06  -0.07  -0.07     0.02  -0.07  -0.04    -0.00   0.15   0.06
  13   6    -0.07  -0.14   0.05     0.03   0.01  -0.08    -0.02   0.34   0.12
  14   8    -0.12  -0.11  -0.03     0.00  -0.05  -0.00     0.04   0.28   0.11
  15   6     0.19  -0.07   0.27    -0.16   0.06  -0.11     0.01   0.05  -0.03
  16   6     0.01   0.01   0.08    -0.01   0.10  -0.06     0.00  -0.12   0.03
  17   8    -0.01  -0.18   0.01    -0.05   0.31   0.02     0.11  -0.23  -0.01
  18   8    -0.08   0.18  -0.05     0.04  -0.05   0.06     0.04  -0.08  -0.01
  19   1     0.10   0.12   0.01     0.06  -0.15   0.03    -0.08   0.05  -0.02
  20   1     0.03   0.05  -0.07     0.12  -0.03   0.15    -0.12  -0.01  -0.09
  21   1     0.05   0.08  -0.10     0.07  -0.15   0.04    -0.08   0.09   0.00
  22   1     0.04  -0.08   0.03    -0.02  -0.05  -0.06    -0.00   0.03  -0.00
  23   1     0.06  -0.02  -0.01    -0.03  -0.04  -0.02    -0.01   0.03   0.01
  24   1     0.01   0.10  -0.02    -0.03   0.06   0.05     0.01  -0.09  -0.02
  25   1    -0.03   0.03  -0.04     0.01  -0.01   0.03     0.02  -0.07  -0.02
  26   1    -0.05  -0.05  -0.04     0.03  -0.07  -0.03     0.02  -0.03  -0.01
  27   1    -0.05  -0.05   0.03     0.02   0.01  -0.03    -0.00   0.14   0.05
  28   1     0.03  -0.29   0.06     0.00  -0.28  -0.21     0.03  -0.30  -0.15
  29   1     0.24   0.05   0.27     0.12   0.11   0.24     0.21   0.10   0.19
  30   1    -0.05   0.16  -0.03    -0.30   0.24  -0.16    -0.25   0.18  -0.11
  31   1    -0.04   0.03  -0.06     0.01  -0.00   0.06     0.04  -0.01  -0.01
                     13                     14                     15
                        a                      a                      a 
 Frequencies --   288.2519               337.8980               370.5134
 Red. masses --    11.3573                11.5912                 9.6614
 Frc consts  --     0.0000                 0.0000                 0.0000
 IR Inten    --     4.4741                 1.4577                 0.4586
 Raman Activ --     0.0000                 0.0000                 0.0000
 Depolar     --     0.0000                 0.0000                 0.0000
 Atom AN      X      Y      Z        X      Y      Z        X      Y      Z
   1   6    -0.16  -0.17  -0.01     0.07  -0.11  -0.08    -0.07   0.06  -0.00
   2   6    -0.07   0.02  -0.18    -0.31  -0.09   0.04     0.02   0.01  -0.01
   3   1    -0.06   0.06  -0.05    -0.07  -0.07   0.00     0.01   0.01  -0.00
   4   6    -0.08  -0.08   0.10    -0.25   0.11  -0.05     0.00   0.21   0.08
   5   6    -0.03  -0.04   0.12    -0.18   0.08  -0.10    -0.02   0.37   0.15
   6   6    -0.00  -0.01   0.14    -0.15  -0.07  -0.13     0.04  -0.44  -0.16
   7   6     0.07  -0.05   0.14    -0.01  -0.03  -0.01     0.02  -0.16  -0.05
   8   6     0.12  -0.03  -0.09     0.05   0.08   0.06    -0.02   0.29   0.12
   9   6     0.03   0.03  -0.18     0.17   0.05   0.09    -0.02  -0.01  -0.02
  10   6    -0.09  -0.00  -0.13     0.02  -0.00   0.14     0.01  -0.22  -0.11
  11   6    -0.13  -0.03   0.08     0.02  -0.08   0.09    -0.03   0.24   0.10
  12   6    -0.01  -0.02   0.19    -0.10  -0.07   0.01     0.01   0.06   0.04
  13   6    -0.01  -0.02   0.20    -0.14  -0.01  -0.04     0.03  -0.13  -0.05
  14   8     0.05   0.14  -0.15     0.32   0.02  -0.17    -0.03  -0.01  -0.01
  15   6     0.37  -0.01   0.11     0.37   0.07  -0.11    -0.02  -0.00   0.01
  16   6    -0.01   0.08  -0.21    -0.19  -0.05   0.14     0.01  -0.04  -0.06
  17   8    -0.13   0.40  -0.11     0.14  -0.13   0.11     0.02  -0.05  -0.06
  18   8     0.05  -0.20  -0.05    -0.03   0.24   0.05     0.05  -0.18   0.01
  19   1    -0.11  -0.08  -0.04     0.09  -0.02   0.01    -0.03   0.02  -0.01
  20   1    -0.01  -0.03   0.02     0.05  -0.01   0.02    -0.05   0.00  -0.02
  21   1    -0.05  -0.08   0.06     0.03  -0.08  -0.12    -0.03   0.05   0.02
  22   1     0.00  -0.01   0.04    -0.04   0.03  -0.02    -0.02   0.19   0.08
  23   1    -0.01   0.00   0.05    -0.08  -0.06  -0.04     0.02  -0.25  -0.09
  24   1     0.08  -0.00  -0.05    -0.02   0.02   0.03    -0.01   0.18   0.07
  25   1    -0.05  -0.00  -0.06    -0.00   0.00   0.03     0.01  -0.13  -0.06
  26   1    -0.08  -0.02   0.04     0.03  -0.03   0.01    -0.02   0.14   0.06
  27   1     0.01  -0.00   0.05    -0.01  -0.00  -0.02     0.02  -0.13  -0.06
  28   1     0.06  -0.08   0.11     0.09   0.03   0.01    -0.00  -0.03  -0.01
  29   1     0.19   0.01   0.04     0.10   0.02  -0.04     0.01   0.01   0.03
  30   1     0.14   0.02   0.01     0.14   0.02  -0.03    -0.02   0.02  -0.01
  31   1     0.01  -0.03   0.06     0.12   0.08  -0.04     0.01  -0.03   0.05
                     16                     17                     18
                        a                      a                      a 
 Frequencies --   378.6635               402.0875               445.6229
 Red. masses --    10.9886                10.9832                 9.0874
 Frc consts  --     0.0000                 0.0000                 0.0000
 IR Inten    --     4.5947                 1.9952                 8.6399
 Raman Activ --     0.0000                 0.0000                 0.0000
 Depolar     --     0.0000                 0.0000                 0.0000
 Atom AN      X      Y      Z        X      Y      Z        X      Y      Z
   1   6     0.11  -0.08  -0.01    -0.05  -0.01  -0.05    -0.03  -0.10  -0.07
   2   6    -0.03  -0.02   0.00    -0.12  -0.03   0.01    -0.03  -0.07  -0.05
   3   1    -0.01  -0.01  -0.00    -0.10   0.02  -0.02    -0.01  -0.04  -0.02
   4   6     0.00  -0.28  -0.09    -0.11  -0.11   0.32    -0.01   0.04   0.03
   5   6     0.01  -0.11  -0.03     0.11  -0.07   0.26     0.02   0.11   0.05
   6   6    -0.00   0.14   0.03     0.18   0.05  -0.16     0.05  -0.20  -0.08
   7   6    -0.01   0.08  -0.01    -0.03   0.11  -0.30     0.02   0.37   0.17
   8   6    -0.00  -0.08  -0.03    -0.05   0.03  -0.05     0.06  -0.22  -0.12
   9   6     0.05  -0.32  -0.10     0.16  -0.02   0.15    -0.01   0.16   0.02
  10   6     0.04  -0.33  -0.11     0.09  -0.04   0.15     0.02   0.08  -0.03
  11   6    -0.02   0.40   0.16     0.09   0.02  -0.09     0.04  -0.17  -0.08
  12   6    -0.04   0.16   0.03    -0.16   0.08  -0.24     0.01   0.43   0.20
  13   6    -0.01  -0.29  -0.11    -0.25  -0.07   0.17     0.06  -0.25  -0.06
  14   8     0.02   0.22   0.10     0.23  -0.07   0.17    -0.03  -0.03   0.05
  15   6     0.01   0.03  -0.00    -0.05   0.02  -0.06    -0.08  -0.02   0.03
  16   6    -0.01   0.06   0.08    -0.02   0.02  -0.13    -0.05  -0.01   0.04
  17   8    -0.04   0.07   0.09    -0.05   0.19  -0.07    -0.01   0.05   0.07
  18   8    -0.08   0.25  -0.02     0.03  -0.11  -0.07    -0.04   0.14  -0.02
  19   1     0.05  -0.03   0.00    -0.02   0.02  -0.01    -0.01  -0.04  -0.02
  20   1     0.06  -0.00   0.03    -0.01  -0.00  -0.03    -0.01  -0.03  -0.01
  21   1     0.04  -0.07  -0.04    -0.01  -0.01  -0.02    -0.01  -0.03  -0.02
  22   1     0.01  -0.02   0.00     0.10  -0.03   0.13     0.02  -0.02   0.00
  23   1     0.00   0.08   0.02     0.14   0.03  -0.08     0.03  -0.22  -0.09
  24   1    -0.02   0.03   0.02    -0.10  -0.01   0.02     0.05  -0.24  -0.11
  25   1     0.01  -0.12  -0.04     0.03  -0.01   0.04     0.01  -0.07  -0.05
  26   1    -0.01   0.23   0.09     0.11   0.02  -0.06     0.01  -0.23  -0.09
  27   1    -0.01  -0.12  -0.05    -0.15  -0.04   0.08     0.03  -0.24  -0.09
  28   1     0.01  -0.06  -0.04     0.02   0.04  -0.09    -0.01  -0.00  -0.01
  29   1     0.06   0.03   0.03    -0.07  -0.00  -0.01    -0.03  -0.01   0.01
  30   1    -0.07   0.03  -0.01    -0.06  -0.00  -0.01    -0.03  -0.00   0.01
  31   1    -0.03   0.05  -0.07     0.02  -0.01   0.02     0.03   0.03  -0.05
                     19                     20                     21
                        a                      a                      a 
 Frequencies --   450.6549               501.9110               511.2966
 Red. masses --    10.9898                11.0663                10.7029
 Frc consts  --     0.0000                 0.0000                 0.0000
 IR Inten    --    12.1080                 4.7700                 3.4639
 Raman Activ --     0.0000                 0.0000                 0.0000
 Depolar     --     0.0000                 0.0000                 0.0000
 Atom AN      X      Y      Z        X      Y      Z        X      Y      Z
   1   6     0.13   0.27   0.19    -0.03  -0.11  -0.08     0.02   0.10   0.05
   2   6     0.14   0.18   0.14     0.14  -0.09  -0.08    -0.21   0.06   0.10
   3   1     0.03   0.10   0.05     0.05  -0.04  -0.02    -0.05   0.03   0.04
   4   6     0.04   0.04  -0.01     0.12  -0.09  -0.10    -0.14   0.21  -0.04
   5   6    -0.09  -0.07  -0.04     0.29   0.16  -0.07     0.26   0.01  -0.28
   6   6    -0.12   0.01  -0.00     0.27  -0.01  -0.07     0.24   0.12  -0.08
   7   6    -0.18   0.20   0.03     0.10  -0.06  -0.13     0.25   0.15   0.06
   8   6    -0.13  -0.16   0.02     0.02  -0.08   0.25     0.23  -0.01   0.01
   9   6    -0.01  -0.10   0.11    -0.12   0.03   0.23     0.08  -0.13  -0.11
  10   6    -0.09  -0.08   0.17    -0.32  -0.14   0.26    -0.19  -0.01   0.03
  11   6    -0.07  -0.02   0.02    -0.26  -0.04  -0.02    -0.21  -0.04   0.12
  12   6    -0.16   0.14  -0.01    -0.15   0.05   0.00    -0.09  -0.14   0.11
  13   6    -0.10  -0.13  -0.19    -0.09   0.13  -0.11    -0.08  -0.08  -0.10
  14   8     0.10   0.12  -0.15    -0.08   0.01  -0.16     0.00  -0.02   0.18
  15   6     0.24   0.06  -0.08     0.11   0.00   0.00    -0.14  -0.04   0.09
  16   6     0.16   0.05  -0.10     0.10  -0.01   0.05    -0.19  -0.01  -0.09
  17   8    -0.01  -0.11  -0.17    -0.06   0.10   0.11     0.07  -0.02  -0.12
  18   8     0.08  -0.33   0.05    -0.03   0.15  -0.07     0.04  -0.16   0.04
  19   1     0.04   0.10   0.07    -0.04  -0.05  -0.04     0.05   0.07   0.05
  20   1     0.03   0.07   0.03    -0.03  -0.04  -0.02     0.02   0.03   0.00
  21   1     0.04   0.09   0.05    -0.01  -0.00   0.02     0.01   0.00  -0.05
  22   1    -0.04  -0.06  -0.05     0.09   0.10   0.01     0.11  -0.08  -0.08
  23   1    -0.02  -0.04  -0.02     0.08   0.03  -0.01     0.02  -0.02  -0.02
  24   1    -0.09  -0.11   0.00    -0.05  -0.05   0.08     0.08   0.03   0.00
  25   1    -0.01  -0.04   0.06    -0.05  -0.09   0.08    -0.10   0.07  -0.00
  26   1     0.02  -0.03  -0.02    -0.04  -0.04  -0.03    -0.08   0.03   0.06
  27   1    -0.04  -0.10  -0.07    -0.03   0.06  -0.02     0.04  -0.04  -0.06
  28   1     0.04  -0.01   0.03    -0.00  -0.03   0.07    -0.01   0.01  -0.03
  29   1     0.11   0.02  -0.03     0.07   0.01  -0.00    -0.07  -0.02   0.02
  30   1     0.10   0.02  -0.03     0.08   0.01  -0.01    -0.08  -0.02   0.03
  31   1    -0.11  -0.09   0.13    -0.09  -0.00  -0.12     0.18   0.02   0.12
                     22                     23                     24
                        a                      a                      a 
 Frequencies --   546.4718               567.0435               599.7931
 Red. masses --    10.3628                 9.9672                 6.9553
 Frc consts  --     0.0000                 0.0000                 0.0000
 IR Inten    --    45.0397                38.4411               123.2774
 Raman Activ --     0.0000                 0.0000                 0.0000
 Depolar     --     0.0000                 0.0000                 0.0000
 Atom AN      X      Y      Z        X      Y      Z        X      Y      Z
   1   6    -0.07  -0.06  -0.06     0.05   0.10   0.10     0.03   0.08   0.07
   2   6    -0.02  -0.03  -0.05    -0.20   0.08   0.11     0.10  -0.10   0.12
   3   1    -0.00  -0.04  -0.02    -0.05   0.05   0.04     0.06  -0.02   0.05
   4   6     0.01   0.27   0.20    -0.10  -0.26  -0.07     0.15   0.04  -0.02
   5   6    -0.02  -0.10   0.07    -0.06  -0.02  -0.04     0.11  -0.04   0.03
   6   6     0.00   0.05  -0.07    -0.03   0.11  -0.17     0.06  -0.06   0.25
   7   6     0.03   0.21   0.04     0.17  -0.17  -0.10    -0.16  -0.07   0.02
   8   6    -0.01  -0.09   0.27     0.12  -0.13   0.19    -0.16  -0.00  -0.10
   9   6    -0.17  -0.37  -0.00    -0.14   0.31   0.20    -0.02   0.09   0.04
  10   6     0.01   0.05   0.10     0.02  -0.12  -0.04     0.08  -0.04  -0.01
  11   6     0.09   0.07  -0.24     0.05   0.16  -0.14     0.07   0.01   0.11
  12   6     0.20  -0.08  -0.17     0.17   0.16   0.02    -0.06   0.01  -0.01
  13   6     0.16  -0.08   0.12     0.13  -0.10   0.16    -0.04   0.03  -0.19
  14   8    -0.22   0.16  -0.21    -0.16  -0.04  -0.16    -0.00  -0.00  -0.05
  15   6     0.06   0.02  -0.02    -0.02  -0.02   0.01     0.04   0.02  -0.04
  16   6    -0.14  -0.06  -0.00    -0.15   0.05  -0.06    -0.20  -0.19  -0.07
  17   8     0.03   0.01   0.03     0.04  -0.04  -0.12    -0.05   0.21   0.09
  18   8    -0.03   0.02  -0.01    -0.02  -0.10   0.06    -0.12  -0.06  -0.20
  19   1    -0.03  -0.03  -0.03     0.07   0.08   0.07     0.01   0.08   0.04
  20   1    -0.04  -0.03  -0.02     0.06   0.05   0.03    -0.03  -0.01  -0.07
  21   1    -0.02   0.01   0.01     0.03  -0.03  -0.06     0.00   0.08   0.02
  22   1     0.03  -0.16  -0.01     0.02   0.10   0.07    -0.02   0.00  -0.02
  23   1     0.04  -0.09  -0.07    -0.03   0.15   0.00     0.03   0.01   0.07
  24   1    -0.02   0.04   0.11     0.05  -0.11   0.02    -0.05  -0.02  -0.03
  25   1     0.08   0.12   0.15     0.08  -0.19  -0.03     0.02  -0.05  -0.02
  26   1     0.04   0.11  -0.04     0.02  -0.05  -0.08     0.02  -0.01   0.02
  27   1     0.03  -0.09   0.01     0.05   0.04   0.07    -0.02   0.02  -0.04
  28   1    -0.03  -0.04   0.10    -0.03  -0.03   0.06     0.00  -0.00   0.00
  29   1     0.10   0.02  -0.02     0.03   0.00   0.01     0.02   0.01  -0.01
  30   1     0.08   0.00  -0.01     0.04   0.01  -0.01     0.02   0.01  -0.01
  31   1     0.17   0.05  -0.01     0.20   0.05   0.14     0.65   0.16  -0.05
                     25                     26                     27
                        a                      a                      a 
 Frequencies --   631.0681               638.5368               665.0282
 Red. masses --    10.6390                 9.7281                10.5381
 Frc consts  --     0.0000                 0.0000                 0.0000
 IR Inten    --    32.7007                49.4486                18.3000
 Raman Activ --     0.0000                 0.0000                 0.0000
 Depolar     --     0.0000                 0.0000                 0.0000
 Atom AN      X      Y      Z        X      Y      Z        X      Y      Z
   1   6    -0.06  -0.13  -0.16    -0.02  -0.00   0.00    -0.04  -0.03  -0.03
   2   6     0.09   0.19  -0.31    -0.03  -0.11   0.09    -0.25   0.00   0.06
   3   1     0.01  -0.01  -0.11    -0.00  -0.04   0.03    -0.07   0.01   0.01
   4   6     0.07   0.23   0.12    -0.05   0.42   0.16    -0.03  -0.08  -0.06
   5   6     0.10  -0.14   0.05     0.01  -0.16  -0.09     0.27   0.05  -0.02
   6   6     0.08   0.07   0.16    -0.03   0.17   0.06     0.23  -0.11   0.24
   7   6    -0.07  -0.05  -0.04     0.01  -0.05  -0.01    -0.09  -0.03   0.04
   8   6    -0.07  -0.07  -0.09     0.02  -0.14  -0.04    -0.15   0.03  -0.02
   9   6    -0.01   0.23   0.11    -0.04   0.36   0.15    -0.10  -0.07  -0.01
  10   6    -0.01  -0.13  -0.02     0.04  -0.19  -0.09     0.29   0.05   0.03
  11   6    -0.03   0.11   0.07     0.01   0.19   0.08     0.29  -0.09   0.18
  12   6    -0.05  -0.07  -0.05     0.03  -0.15  -0.06    -0.05   0.05   0.02
  13   6    -0.01  -0.07  -0.06     0.01  -0.12  -0.06    -0.12   0.05  -0.13
  14   8     0.04  -0.04  -0.00    -0.02  -0.05  -0.04    -0.25   0.08  -0.21
  15   6     0.02   0.00  -0.02    -0.01  -0.01  -0.00    -0.02   0.01  -0.02
  16   6    -0.04   0.24   0.07    -0.05  -0.19  -0.02    -0.23   0.06  -0.06
  17   8     0.08  -0.30  -0.18     0.01   0.16   0.14     0.10  -0.00  -0.13
  18   8    -0.14   0.08   0.30     0.18  -0.00  -0.16     0.13   0.03   0.11
  19   1    -0.09  -0.19  -0.13    -0.00   0.05   0.02     0.04   0.03   0.03
  20   1    -0.02  -0.01   0.08    -0.04  -0.02  -0.06     0.03   0.01  -0.00
  21   1    -0.03  -0.04   0.06    -0.01   0.04  -0.00     0.00  -0.07  -0.09
  22   1     0.02  -0.09  -0.02     0.01  -0.15  -0.07     0.06   0.05   0.00
  23   1     0.05   0.02   0.03    -0.01   0.01   0.00     0.07  -0.00   0.07
  24   1    -0.04  -0.05  -0.03     0.01  -0.08  -0.03    -0.04   0.01  -0.01
  25   1    -0.01  -0.10  -0.03     0.02  -0.13  -0.05     0.10   0.01   0.03
  26   1    -0.00   0.02   0.01     0.00   0.05   0.02     0.10  -0.03   0.04
  27   1    -0.03  -0.05  -0.02     0.01  -0.07  -0.03    -0.03   0.04  -0.03
  28   1     0.01   0.00  -0.01    -0.01  -0.00   0.01    -0.06  -0.04   0.09
  29   1    -0.00   0.00   0.00    -0.00  -0.00   0.01     0.07   0.01  -0.01
  30   1     0.01   0.01  -0.01     0.01   0.01  -0.01     0.06   0.01  -0.01
  31   1     0.16   0.10   0.24    -0.34  -0.13  -0.19    -0.30  -0.07   0.09
                     28                     29                     30
                        a                      a                      a 
 Frequencies --   714.4001               723.6918               769.9668
 Red. masses --    11.4603                11.5715                10.6490
 Frc consts  --     0.0000                 0.0000                 0.0000
 IR Inten    --    50.7770               107.0444                 0.6350
 Raman Activ --     0.0000                 0.0000                 0.0000
 Depolar     --     0.0000                 0.0000                 0.0000
 Atom AN      X      Y      Z        X      Y      Z        X      Y      Z
   1   6    -0.00  -0.01  -0.00     0.01   0.03   0.03     0.08   0.08   0.04
   2   6    -0.05  -0.02   0.03     0.03   0.03  -0.01     0.29   0.09  -0.14
   3   1    -0.05   0.03   0.00     0.06  -0.03   0.01     0.12  -0.05  -0.04
   4   6    -0.07  -0.16  -0.06     0.15  -0.19  -0.11     0.07  -0.06   0.04
   5   6     0.00   0.19   0.01    -0.01   0.07   0.12    -0.10  -0.04   0.03
   6   6     0.02  -0.10  -0.13     0.01  -0.21   0.12    -0.07   0.10  -0.41
   7   6    -0.00   0.44   0.16    -0.09   0.27   0.16     0.04   0.13  -0.13
   8   6     0.03  -0.14  -0.07    -0.03  -0.08  -0.01    -0.02   0.07  -0.13
   9   6    -0.03   0.19   0.06     0.00   0.05   0.05     0.04  -0.01  -0.04
  10   6     0.13  -0.16  -0.06    -0.16  -0.08  -0.05     0.04  -0.02   0.11
  11   6     0.09   0.09   0.20    -0.16   0.17  -0.23     0.06  -0.14   0.41
  12   6    -0.00  -0.46  -0.15     0.09  -0.21  -0.16    -0.07  -0.08   0.10
  13   6    -0.08   0.15   0.07     0.10   0.10  -0.00     0.03  -0.07   0.12
  14   8    -0.12   0.01  -0.10     0.19  -0.04   0.14    -0.16   0.04  -0.11
  15   6    -0.04  -0.01   0.01     0.07   0.02  -0.02    -0.06  -0.02   0.03
  16   6     0.34   0.07   0.04    -0.52  -0.07  -0.07    -0.37  -0.12  -0.02
  17   8    -0.11  -0.03   0.01     0.16   0.04  -0.07     0.11   0.01   0.04
  18   8    -0.11  -0.04  -0.03     0.15   0.06   0.07     0.09   0.04   0.01
  19   1     0.02   0.01   0.01     0.01   0.01   0.01    -0.07  -0.07  -0.06
  20   1     0.02   0.01   0.00    -0.01   0.00  -0.01    -0.04  -0.00   0.03
  21   1     0.00  -0.03  -0.03     0.00   0.01   0.01     0.00   0.10   0.15
  22   1     0.03  -0.02  -0.01    -0.04   0.07   0.02     0.03   0.06   0.08
  23   1     0.00  -0.10  -0.06     0.02  -0.03   0.04     0.02   0.12  -0.10
  24   1     0.02  -0.07  -0.03    -0.01  -0.07  -0.02    -0.03  -0.04  -0.05
  25   1     0.02   0.03   0.01    -0.03   0.00   0.01    -0.05  -0.03  -0.03
  26   1     0.03   0.09   0.08    -0.06   0.06  -0.05     0.02  -0.08   0.10
  27   1    -0.01   0.07   0.03     0.01   0.11   0.04    -0.01   0.05   0.07
  28   1    -0.03  -0.02   0.05     0.05   0.04  -0.07    -0.05  -0.03   0.07
  29   1     0.02   0.00   0.00    -0.03  -0.00  -0.00     0.02   0.00   0.00
  30   1     0.02   0.00  -0.00    -0.03  -0.00  -0.00     0.02   0.00   0.00
  31   1     0.12   0.03  -0.01    -0.16  -0.03   0.05    -0.02  -0.01  -0.03
                     31                     32                     33
                        a                      a                      a 
 Frequencies --   794.9759               830.4705               840.2848
 Red. masses --     4.9803                 4.9502                 9.6788
 Frc consts  --     0.0000                 0.0000                 0.0000
 IR Inten    --    14.2851                26.2145                 5.1692
 Raman Activ --     0.0000                 0.0000                 0.0000
 Depolar     --     0.0000                 0.0000                 0.0000
 Atom AN      X      Y      Z        X      Y      Z        X      Y      Z
   1   6     0.02   0.02   0.03     0.00   0.04  -0.01    -0.06  -0.09  -0.02
   2   6     0.05  -0.03   0.01    -0.01   0.09  -0.07    -0.13  -0.08   0.11
   3   1     0.04  -0.01   0.01    -0.03   0.00  -0.04    -0.01   0.02   0.06
   4   6     0.04  -0.17  -0.07    -0.04   0.13   0.07    -0.00   0.11  -0.02
   5   6    -0.02   0.11   0.05     0.00  -0.22  -0.06     0.14  -0.01  -0.17
   6   6    -0.03   0.18   0.01     0.02  -0.23  -0.03     0.07  -0.02  -0.12
   7   6     0.00  -0.10  -0.07     0.03   0.13   0.09    -0.20   0.06  -0.08
   8   6    -0.01  -0.15  -0.10     0.10  -0.09   0.04    -0.39   0.07  -0.25
   9   6    -0.01   0.22   0.09    -0.00   0.11   0.03    -0.05  -0.01   0.06
  10   6     0.01  -0.20  -0.06     0.05  -0.19  -0.11    -0.12  -0.09   0.06
  11   6     0.01  -0.22  -0.03     0.03  -0.12  -0.10    -0.07  -0.06   0.07
  12   6    -0.01   0.14   0.08    -0.06   0.16   0.02     0.19  -0.01   0.13
  13   6     0.02   0.10   0.07    -0.10  -0.08  -0.10     0.40  -0.10   0.26
  14   8    -0.00  -0.06  -0.03    -0.01  -0.02  -0.02     0.06  -0.03   0.07
  15   6    -0.00  -0.01  -0.00    -0.02  -0.01   0.01     0.10   0.04  -0.07
  16   6    -0.12   0.02  -0.03     0.03  -0.06   0.03     0.11   0.06  -0.01
  17   8     0.03   0.02  -0.04    -0.00  -0.03   0.07    -0.04   0.02  -0.04
  18   8     0.01   0.03   0.03     0.01  -0.04  -0.04    -0.03   0.01   0.02
  19   1     0.01   0.02   0.02    -0.03  -0.06  -0.04     0.05   0.08   0.06
  20   1    -0.00  -0.00  -0.01     0.01   0.03   0.06     0.01  -0.03  -0.07
  21   1     0.01   0.01   0.00    -0.00  -0.00   0.04    -0.01  -0.05  -0.11
  22   1     0.02  -0.24  -0.09    -0.05   0.41   0.17     0.06   0.14   0.03
  23   1     0.03  -0.27  -0.13    -0.04   0.36   0.17     0.05   0.16   0.01
  24   1    -0.04   0.32   0.13     0.05   0.06   0.03    -0.22  -0.03  -0.04
  25   1    -0.05   0.39   0.16    -0.01   0.40   0.16    -0.06   0.08   0.05
  26   1    -0.03   0.31   0.15     0.00   0.23   0.07    -0.08   0.02   0.07
  27   1     0.03  -0.22  -0.09    -0.07   0.11   0.04     0.22   0.01   0.04
  28   1    -0.00   0.02   0.01    -0.01   0.01   0.01     0.04   0.02  -0.03
  29   1    -0.01  -0.00  -0.01    -0.01  -0.00  -0.00     0.01   0.01  -0.02
  30   1     0.01  -0.01   0.00     0.00  -0.01   0.01     0.01   0.01  -0.01
  31   1    -0.01   0.01   0.05     0.02  -0.02  -0.08    -0.01   0.01   0.05
                     34                     35                     36
                        a                      a                      a 
 Frequencies --   859.4592               865.3446               888.4060
 Red. masses --     8.3793                 3.7395                 3.4304
 Frc consts  --     0.0000                 0.0000                 0.0000
 IR Inten    --    26.8725                12.3055                 3.9408
 Raman Activ --     0.0000                 0.0000                 0.0000
 Depolar     --     0.0000                 0.0000                 0.0000
 Atom AN      X      Y      Z        X      Y      Z        X      Y      Z
   1   6    -0.02   0.25   0.04    -0.00  -0.06  -0.01     0.02   0.05   0.02
   2   6    -0.18   0.35  -0.29     0.03  -0.07   0.06    -0.00   0.02  -0.02
   3   1    -0.09   0.07  -0.10     0.02  -0.01   0.02    -0.00  -0.01  -0.01
   4   6    -0.09  -0.08  -0.06     0.02   0.05   0.02    -0.02  -0.03  -0.01
   5   6     0.11   0.08  -0.06    -0.01  -0.07  -0.01     0.02  -0.08  -0.05
   6   6     0.10   0.02   0.11    -0.01  -0.06  -0.05     0.02  -0.13  -0.04
   7   6    -0.06  -0.01  -0.00     0.00   0.10   0.04    -0.00   0.01   0.01
   8   6    -0.12  -0.07  -0.09     0.05  -0.37  -0.15     0.00  -0.01   0.01
   9   6    -0.03  -0.01   0.03     0.00   0.02   0.00    -0.00  -0.01  -0.00
  10   6    -0.01   0.04   0.03    -0.01   0.14   0.06     0.00   0.09   0.03
  11   6    -0.01   0.04  -0.03    -0.01   0.10   0.05     0.01  -0.01  -0.02
  12   6     0.04   0.00   0.01    -0.00  -0.01  -0.00    -0.00  -0.09  -0.04
  13   6     0.06  -0.05   0.12    -0.00  -0.01  -0.03    -0.05   0.37   0.17
  14   8     0.02  -0.01   0.03    -0.00  -0.02  -0.01     0.00   0.00   0.00
  15   6     0.04   0.01  -0.03    -0.00  -0.01   0.00     0.00   0.00  -0.00
  16   6     0.00  -0.23   0.10     0.01   0.05  -0.02    -0.03  -0.02  -0.00
  17   8     0.01  -0.11   0.27    -0.01   0.02  -0.05     0.01  -0.00   0.02
  18   8     0.07  -0.15  -0.15    -0.02   0.03   0.03     0.01  -0.01  -0.01
  19   1    -0.02  -0.17  -0.08     0.00   0.04   0.02    -0.01  -0.02  -0.01
  20   1     0.11   0.18   0.32    -0.03  -0.04  -0.07     0.01   0.02   0.04
  21   1     0.01  -0.10   0.04    -0.00   0.02  -0.01     0.01   0.01   0.01
  22   1     0.05  -0.05  -0.03    -0.02   0.12   0.05    -0.00   0.08   0.03
  23   1     0.03  -0.11  -0.02    -0.01   0.09   0.03    -0.03   0.30   0.13
  24   1    -0.08   0.16   0.06    -0.05   0.71   0.29     0.00  -0.02  -0.00
  25   1     0.02  -0.07  -0.02     0.01  -0.18  -0.08     0.02  -0.16  -0.07
  26   1    -0.00  -0.06  -0.03     0.02  -0.27  -0.11    -0.00   0.08   0.03
  27   1     0.03   0.03   0.04    -0.01   0.05   0.02     0.06  -0.73  -0.31
  28   1     0.01   0.01  -0.02    -0.00  -0.01   0.00     0.00  -0.00  -0.00
  29   1     0.00   0.00  -0.00    -0.01  -0.00   0.01    -0.00   0.00   0.00
  30   1     0.00   0.00  -0.01     0.00   0.01  -0.00     0.00   0.00  -0.00
  31   1     0.05  -0.07  -0.28    -0.01   0.01   0.06     0.00  -0.00  -0.02
                     37                     38                     39
                        a                      a                      a 
 Frequencies --   905.6143               915.1126               924.6776
 Red. masses --     3.3210                 3.6129                10.1205
 Frc consts  --     0.0000                 0.0000                 0.0000
 IR Inten    --     0.6647                 0.7664                76.4922
 Raman Activ --     0.0000                 0.0000                 0.0000
 Depolar     --     0.0000                 0.0000                 0.0000
 Atom AN      X      Y      Z        X      Y      Z        X      Y      Z
   1   6    -0.00  -0.01  -0.01    -0.01  -0.00  -0.00     0.14   0.02   0.03
   2   6    -0.00  -0.00   0.01    -0.01   0.01  -0.01     0.18  -0.08  -0.02
   3   1     0.00   0.00   0.00    -0.00   0.01   0.00     0.02  -0.09  -0.04
   4   6     0.00   0.01   0.00     0.00   0.02   0.01    -0.20  -0.04   0.05
   5   6     0.01  -0.10  -0.04    -0.03   0.29   0.13     0.15   0.14  -0.28
   6   6    -0.01   0.08   0.03     0.02  -0.27  -0.11     0.05   0.03  -0.07
   7   6    -0.01   0.08   0.03     0.00   0.01   0.00    -0.08  -0.03   0.06
   8   6     0.01  -0.06  -0.03     0.00  -0.04  -0.02    -0.13  -0.13   0.27
   9   6    -0.00   0.04   0.01     0.00   0.02   0.01    -0.26  -0.04   0.04
  10   6    -0.02   0.24   0.10    -0.01   0.06   0.03     0.17   0.17  -0.38
  11   6     0.02  -0.30  -0.12     0.01  -0.12  -0.05     0.04   0.00  -0.01
  12   6     0.00  -0.00  -0.00    -0.00   0.08   0.03    -0.09  -0.03   0.07
  13   6     0.01  -0.05  -0.03     0.01  -0.12  -0.06    -0.15  -0.11   0.18
  14   8    -0.00   0.00   0.00    -0.00  -0.00  -0.00     0.06  -0.07   0.18
  15   6    -0.00  -0.00  -0.00    -0.00  -0.00   0.00     0.19   0.07  -0.13
  16   6     0.01   0.00  -0.00     0.01  -0.00   0.00    -0.04   0.03  -0.01
  17   8    -0.00   0.00  -0.00    -0.00  -0.00   0.00     0.01   0.02  -0.03
  18   8    -0.00   0.00   0.00     0.00  -0.00  -0.00    -0.00   0.03   0.01
  19   1     0.00   0.01   0.00     0.00   0.00   0.00    -0.08  -0.05  -0.06
  20   1    -0.00  -0.01  -0.01     0.00   0.00   0.00    -0.08  -0.05  -0.04
  21   1    -0.00  -0.00  -0.00    -0.00  -0.01  -0.01     0.01   0.15   0.19
  22   1    -0.02   0.22   0.09     0.05  -0.56  -0.23     0.09   0.01  -0.05
  23   1     0.02  -0.17  -0.07    -0.04   0.51   0.21    -0.08  -0.01   0.01
  24   1    -0.00   0.03   0.01    -0.00   0.05   0.02    -0.07  -0.04   0.09
  25   1     0.04  -0.48  -0.20     0.01  -0.12  -0.05     0.07   0.04  -0.09
  26   1    -0.05   0.59   0.25    -0.02   0.21   0.09    -0.11  -0.02   0.04
  27   1    -0.01   0.12   0.05    -0.01   0.14   0.06    -0.07   0.00   0.08
  28   1     0.00  -0.01  -0.01    -0.00  -0.00   0.00     0.09   0.05  -0.11
  29   1    -0.00   0.00   0.01    -0.00  -0.00   0.00    -0.01   0.01  -0.02
  30   1     0.00   0.01  -0.01     0.00   0.00  -0.00    -0.01   0.01  -0.02
  31   1    -0.00   0.00   0.00     0.00  -0.00  -0.00    -0.00   0.02   0.05
                     40                     41                     42
                        a                      a                      a 
 Frequencies --   951.1471              1036.0423              1049.6456
 Red. masses --     9.1381                 5.2909                10.8573
 Frc consts  --     0.0000                 0.0000                 0.0000
 IR Inten    --     3.6968                38.4172                92.7008
 Raman Activ --     0.0000                 0.0000                 0.0000
 Depolar     --     0.0000                 0.0000                 0.0000
 Atom AN      X      Y      Z        X      Y      Z        X      Y      Z
   1   6    -0.15  -0.03  -0.06     0.13   0.28   0.04    -0.01   0.02  -0.01
   2   6    -0.14   0.10   0.02    -0.20  -0.34   0.11    -0.00  -0.02   0.02
   3   1    -0.01   0.10   0.04    -0.17  -0.47  -0.16     0.00  -0.04  -0.00
   4   6     0.24   0.03  -0.01     0.00   0.02  -0.03     0.01   0.01   0.00
   5   6    -0.07  -0.14   0.31    -0.04  -0.06   0.13     0.03   0.01  -0.02
   6   6     0.01   0.09  -0.21     0.01   0.01  -0.02     0.01  -0.00   0.01
   7   6    -0.00   0.03  -0.08     0.01   0.01  -0.01    -0.10   0.01  -0.05
   8   6    -0.02  -0.11   0.26    -0.01   0.01  -0.03    -0.05  -0.07   0.16
   9   6    -0.19  -0.02   0.00    -0.02   0.00  -0.01     0.16  -0.03   0.10
  10   6     0.04   0.12  -0.28    -0.04  -0.02   0.03     0.05   0.10  -0.23
  11   6    -0.02  -0.09   0.21    -0.01  -0.01   0.02    -0.05   0.00  -0.02
  12   6     0.01  -0.03   0.07     0.09  -0.01   0.02    -0.01  -0.02   0.04
  13   6     0.04   0.13  -0.28     0.09   0.06  -0.16     0.03  -0.01   0.02
  14   8     0.02  -0.06   0.14    -0.02  -0.01   0.02     0.43   0.18  -0.35
  15   6     0.16   0.05  -0.09     0.03   0.01  -0.02    -0.39  -0.16   0.31
  16   6     0.01  -0.03   0.01     0.07   0.08   0.00     0.00   0.01   0.00
  17   8    -0.00  -0.02   0.03    -0.04   0.06  -0.06    -0.00   0.01   0.00
  18   8     0.01  -0.03  -0.01    -0.00   0.02  -0.12     0.00  -0.00  -0.03
  19   1     0.08   0.03   0.05    -0.11  -0.24  -0.16     0.00  -0.02  -0.01
  20   1     0.08   0.06   0.05    -0.00   0.10   0.27     0.01   0.02   0.04
  21   1    -0.01  -0.16  -0.20     0.02   0.04   0.26    -0.00  -0.02  -0.01
  22   1     0.02  -0.04   0.12    -0.00  -0.02   0.04    -0.00   0.01  -0.01
  23   1     0.18   0.07  -0.12     0.10   0.03  -0.04     0.02   0.00  -0.00
  24   1    -0.03  -0.04   0.08     0.01   0.01  -0.01    -0.30  -0.09   0.15
  25   1    -0.05   0.05  -0.12    -0.02  -0.00   0.01    -0.05   0.04  -0.11
  26   1    -0.16  -0.06   0.11    -0.02  -0.01   0.01    -0.18  -0.04   0.05
  27   1     0.04   0.01  -0.10     0.12   0.07  -0.07     0.02   0.00   0.00
  28   1     0.08   0.04  -0.09     0.01   0.01  -0.01    -0.13  -0.08   0.15
  29   1    -0.02   0.00  -0.01    -0.00   0.00  -0.00     0.03  -0.02   0.03
  30   1    -0.02   0.00  -0.01    -0.00   0.00  -0.00     0.02  -0.01   0.04
  31   1     0.01  -0.02  -0.05    -0.05   0.04   0.23    -0.00   0.01   0.03
                     43                     44                     45
                        a                      a                      a 
 Frequencies --  1067.9537              1097.9036              1113.8530
 Red. masses --     5.3623                 9.3733                 3.6884
 Frc consts  --     0.0000                 0.0000                 0.0000
 IR Inten    --    76.4372               195.6415                 3.0601
 Raman Activ --     0.0000                 0.0000                 0.0000
 Depolar     --     0.0000                 0.0000                 0.0000
 Atom AN      X      Y      Z        X      Y      Z        X      Y      Z
   1   6    -0.28   0.07  -0.16     0.14  -0.22  -0.26     0.00   0.00   0.00
   2   6     0.23  -0.03   0.18    -0.07   0.35   0.28    -0.00  -0.00  -0.01
   3   1     0.26  -0.16   0.10    -0.14   0.18   0.04     0.00   0.00  -0.00
   4   6     0.09   0.03   0.08    -0.00  -0.07  -0.02    -0.00   0.00  -0.00
   5   6     0.04   0.05  -0.14    -0.01   0.00   0.02    -0.00  -0.00   0.00
   6   6    -0.06   0.00  -0.03    -0.00   0.01  -0.01     0.00  -0.00   0.00
   7   6    -0.00  -0.01   0.03    -0.01  -0.01   0.01    -0.00   0.00   0.00
   8   6     0.02   0.00  -0.00    -0.01   0.01  -0.02    -0.00  -0.00  -0.00
   9   6    -0.00   0.00  -0.01    -0.02  -0.00   0.00    -0.00  -0.00  -0.00
  10   6     0.02  -0.00   0.01    -0.01  -0.01   0.01    -0.00   0.00   0.00
  11   6     0.01   0.00  -0.00     0.00   0.00  -0.00     0.00  -0.00  -0.00
  12   6    -0.06   0.00  -0.03     0.03   0.00   0.02     0.00  -0.00  -0.00
  13   6    -0.05  -0.06   0.12     0.03   0.04  -0.05    -0.00  -0.00   0.00
  14   8    -0.03  -0.01   0.02     0.02   0.00  -0.00     0.02  -0.20  -0.08
  15   6     0.02   0.01  -0.02    -0.01  -0.00   0.00    -0.03   0.39   0.16
  16   6    -0.05   0.05   0.06    -0.07   0.10   0.15     0.00   0.00   0.00
  17   8    -0.01   0.02   0.07     0.00  -0.08   0.26    -0.00  -0.00   0.00
  18   8     0.04  -0.03  -0.28     0.09  -0.11  -0.42     0.00   0.00  -0.00
  19   1     0.12  -0.12  -0.02    -0.15  -0.11  -0.16     0.00   0.00   0.00
  20   1     0.18   0.18   0.25    -0.15  -0.15  -0.15     0.00  -0.00  -0.00
  21   1    -0.02  -0.33  -0.27    -0.00   0.14   0.15     0.00   0.00  -0.00
  22   1     0.00   0.02  -0.04    -0.00  -0.01   0.00     0.00   0.00   0.00
  23   1    -0.15  -0.02   0.04     0.03   0.00  -0.02     0.00   0.00  -0.00
  24   1     0.04   0.01  -0.01     0.01   0.01  -0.01     0.00   0.01   0.00
  25   1     0.01  -0.00   0.01     0.01  -0.00   0.01     0.00  -0.02  -0.01
  26   1     0.03   0.01  -0.01    -0.01  -0.00   0.00     0.00   0.00   0.00
  27   1    -0.17  -0.05   0.09     0.04  -0.01  -0.03     0.00   0.00  -0.00
  28   1     0.01   0.00  -0.01    -0.00  -0.00   0.00     0.02  -0.21  -0.09
  29   1    -0.00   0.00  -0.00     0.00   0.00  -0.00     0.37   0.04  -0.47
  30   1    -0.00   0.00  -0.00     0.00   0.00  -0.00    -0.35  -0.35   0.34
  31   1    -0.04   0.06   0.33    -0.05   0.04   0.32    -0.00   0.00   0.00
                     46                     47                     48
                        a                      a                      a 
 Frequencies --  1116.7020              1137.1551              1147.8576
 Red. masses --     8.3551                 5.5629                 6.1507
 Frc consts  --     0.0000                 0.0000                 0.0000
 IR Inten    --   112.7953                11.1626               296.7194
 Raman Activ --     0.0000                 0.0000                 0.0000
 Depolar     --     0.0000                 0.0000                 0.0000
 Atom AN      X      Y      Z        X      Y      Z        X      Y      Z
   1   6     0.00  -0.01  -0.34     0.01   0.00   0.00    -0.02  -0.01  -0.02
   2   6    -0.00   0.10   0.50    -0.03  -0.00   0.00     0.06   0.02   0.01
   3   1    -0.13   0.03   0.07    -0.04   0.00  -0.02     0.14  -0.03   0.05
   4   6     0.17  -0.06   0.09     0.03  -0.00   0.00    -0.13   0.00  -0.03
   5   6     0.03   0.05  -0.09     0.01   0.02  -0.04     0.04  -0.01   0.03
   6   6    -0.06   0.03  -0.07    -0.00  -0.02   0.06    -0.01   0.06  -0.14
   7   6    -0.01  -0.02   0.05    -0.03   0.02  -0.07    -0.14  -0.08   0.17
   8   6    -0.01   0.01  -0.02    -0.01  -0.05   0.12    -0.12   0.02  -0.08
   9   6     0.00  -0.00   0.00    -0.08   0.04  -0.10    -0.30  -0.02  -0.02
  10   6    -0.01  -0.01   0.01    -0.05  -0.03   0.06     0.01  -0.03   0.07
  11   6     0.01  -0.00   0.00     0.07  -0.05   0.13     0.01   0.03  -0.07
  12   6     0.01   0.01   0.00     0.01   0.06  -0.13    -0.01  -0.06   0.14
  13   6     0.03   0.02  -0.02     0.06  -0.03   0.08    -0.06   0.03  -0.08
  14   8     0.01  -0.00  -0.00    -0.04   0.11  -0.28     0.31   0.08  -0.13
  15   6    -0.01   0.00   0.00     0.19  -0.13   0.35    -0.09  -0.08   0.18
  16   6     0.00  -0.07  -0.12     0.00   0.00   0.00    -0.01   0.04   0.01
  17   8     0.00   0.08  -0.21    -0.00  -0.00   0.00     0.00   0.00  -0.02
  18   8    -0.03  -0.02   0.32     0.00  -0.00  -0.00     0.00  -0.02   0.02
  19   1    -0.10  -0.27  -0.23    -0.01   0.00  -0.00     0.01  -0.01  -0.00
  20   1    -0.03   0.02   0.13    -0.01  -0.01  -0.00     0.01   0.01   0.01
  21   1    -0.01  -0.07   0.08     0.00   0.01   0.01    -0.00  -0.02  -0.02
  22   1    -0.01   0.01  -0.05    -0.09   0.03  -0.08     0.28  -0.06   0.21
  23   1    -0.15  -0.02   0.02     0.01  -0.00   0.01     0.12   0.04  -0.08
  24   1     0.01   0.00  -0.01     0.01  -0.01   0.03     0.40   0.11  -0.18
  25   1    -0.01  -0.00   0.00    -0.19   0.03  -0.11     0.30  -0.07   0.24
  26   1    -0.01  -0.00   0.00     0.21   0.03  -0.03    -0.01   0.01  -0.02
  27   1    -0.09  -0.03   0.03    -0.02  -0.02   0.04     0.09   0.03  -0.06
  28   1    -0.00  -0.00   0.00     0.29   0.19  -0.40     0.06   0.05  -0.10
  29   1     0.01   0.00  -0.01    -0.31  -0.10   0.05    -0.04  -0.02   0.02
  30   1    -0.00  -0.00   0.00    -0.32  -0.01   0.08    -0.04  -0.01   0.03
  31   1     0.08  -0.08  -0.40    -0.00   0.00   0.00     0.02  -0.01  -0.07
                     49                     50                     51
                        a                      a                      a 
 Frequencies --  1162.6123              1169.1264              1182.3703
 Red. masses --     3.9103                 5.6983                 2.6887
 Frc consts  --     0.0000                 0.0000                 0.0000
 IR Inten    --    64.4111                11.4570                11.2398
 Raman Activ --     0.0000                 0.0000                 0.0000
 Depolar     --     0.0000                 0.0000                 0.0000
 Atom AN      X      Y      Z        X      Y      Z        X      Y      Z
   1   6    -0.02   0.01   0.01    -0.00  -0.05  -0.13    -0.02   0.01  -0.03
   2   6    -0.01  -0.04   0.01     0.11   0.10   0.16     0.06  -0.02   0.04
   3   1    -0.14   0.04  -0.05     0.41  -0.19   0.17    -0.03   0.05   0.00
   4   6     0.10  -0.01   0.05    -0.35   0.04  -0.20    -0.01   0.02  -0.04
   5   6    -0.05   0.05  -0.14    -0.11  -0.05   0.10    -0.08  -0.01   0.01
   6   6     0.07  -0.01   0.03     0.07  -0.06   0.17     0.05  -0.02   0.06
   7   6    -0.20   0.01  -0.07     0.01   0.05  -0.11     0.12   0.05  -0.10
   8   6     0.04  -0.04   0.10     0.06  -0.02   0.07     0.06   0.05  -0.10
   9   6    -0.15  -0.03   0.03     0.08   0.00   0.00     0.04   0.00   0.01
  10   6    -0.05   0.01  -0.03     0.01   0.02  -0.04     0.11  -0.01   0.04
  11   6     0.05  -0.04   0.11     0.00   0.01  -0.02    -0.08   0.02  -0.06
  12   6    -0.08   0.03  -0.10    -0.06  -0.01   0.01     0.03  -0.05   0.12
  13   6     0.09  -0.05   0.14    -0.04  -0.05   0.10    -0.11  -0.03   0.05
  14   8     0.18  -0.01   0.05    -0.08  -0.02   0.03    -0.11   0.01  -0.05
  15   6    -0.10   0.01  -0.05     0.02   0.02  -0.04     0.06  -0.02   0.06
  16   6    -0.00  -0.04  -0.02    -0.03   0.19   0.08     0.01  -0.05  -0.03
  17   8     0.00   0.00   0.01     0.00   0.01  -0.08    -0.00   0.01  -0.00
  18   8    -0.01   0.02   0.01     0.03  -0.12  -0.00    -0.01   0.03   0.02
  19   1     0.00   0.00   0.01    -0.01  -0.06  -0.05     0.00  -0.02  -0.01
  20   1     0.01   0.01   0.01    -0.00  -0.01   0.02     0.01   0.01   0.02
  21   1    -0.00  -0.01  -0.01    -0.00  -0.02   0.01    -0.00  -0.02  -0.01
  22   1    -0.36   0.09  -0.30    -0.07  -0.01   0.00    -0.35   0.07  -0.25
  23   1     0.38   0.08  -0.12     0.35   0.06  -0.07     0.25   0.05  -0.07
  24   1     0.45   0.09  -0.13    -0.07  -0.03   0.05    -0.15  -0.03   0.03
  25   1    -0.12   0.02  -0.08    -0.09   0.03  -0.08     0.44  -0.09   0.31
  26   1     0.09   0.01   0.00     0.14   0.04  -0.06    -0.43  -0.09   0.13
  27   1    -0.05  -0.03   0.07     0.30   0.06  -0.08    -0.08  -0.02   0.03
  28   1    -0.10  -0.06   0.13    -0.01  -0.01   0.02     0.10   0.07  -0.15
  29   1     0.10   0.02  -0.02     0.00   0.00  -0.00    -0.08  -0.02   0.02
  30   1     0.10   0.01  -0.02     0.00   0.00  -0.00    -0.08  -0.02   0.02
  31   1    -0.01   0.01   0.03     0.05  -0.06  -0.23    -0.00   0.01   0.02
                     52                     53                     54
                        a                      a                      a 
 Frequencies --  1189.2422              1216.5324              1249.1489
 Red. masses --     6.7258                 5.2427                 8.2470
 Frc consts  --     0.0000                 0.0000                 0.0000
 IR Inten    --   126.5327                70.3329               219.9465
 Raman Activ --     0.0000                 0.0000                 0.0000
 Depolar     --     0.0000                 0.0000                 0.0000
 Atom AN      X      Y      Z        X      Y      Z        X      Y      Z
   1   6     0.02  -0.08   0.11     0.11   0.04  -0.07    -0.04  -0.00   0.03
   2   6    -0.16   0.07  -0.04    -0.18  -0.01  -0.02     0.10  -0.02   0.01
   3   1     0.07  -0.37  -0.08     0.34   0.12   0.23    -0.14   0.02  -0.07
   4   6     0.15   0.00  -0.00    -0.12   0.07  -0.20    -0.01  -0.03   0.07
   5   6     0.03   0.01  -0.02     0.00  -0.01   0.02    -0.04   0.06  -0.15
   6   6    -0.03   0.00  -0.01    -0.04  -0.05   0.11    -0.02   0.05  -0.12
   7   6     0.01   0.01  -0.02    -0.02   0.02  -0.05    -0.22  -0.15   0.32
   8   6    -0.02  -0.00  -0.00    -0.05  -0.03   0.05     0.02   0.02  -0.04
   9   6    -0.02   0.00  -0.01     0.06   0.00   0.00     0.38  -0.06   0.21
  10   6     0.00  -0.02   0.05     0.03  -0.04   0.10     0.03   0.01  -0.02
  11   6    -0.01  -0.03   0.07    -0.01  -0.03   0.07     0.05   0.10  -0.23
  12   6     0.12   0.05  -0.10     0.24   0.10  -0.19     0.00  -0.08   0.18
  13   6     0.04   0.00   0.00    -0.00  -0.01   0.04     0.01   0.04  -0.10
  14   8     0.02   0.00   0.00    -0.02   0.00  -0.00    -0.25   0.01  -0.07
  15   6    -0.01   0.00  -0.00     0.01   0.00  -0.01     0.10   0.01   0.01
  16   6    -0.10   0.45   0.26     0.13  -0.24  -0.13    -0.04   0.04   0.03
  17   8     0.00  -0.03  -0.05    -0.02   0.03  -0.00     0.01  -0.01   0.00
  18   8     0.08  -0.24  -0.13    -0.05   0.12   0.07     0.01  -0.02  -0.01
  19   1    -0.00   0.08   0.06    -0.06  -0.06  -0.08     0.02   0.01   0.02
  20   1    -0.03  -0.06  -0.12    -0.04  -0.00   0.04     0.02   0.01  -0.01
  21   1     0.00   0.05  -0.04     0.01   0.07   0.10    -0.00  -0.03  -0.04
  22   1    -0.02   0.01  -0.03     0.16  -0.04   0.13     0.16  -0.02   0.08
  23   1    -0.08  -0.02   0.02     0.10   0.01  -0.01     0.39   0.10  -0.17
  24   1     0.08   0.02  -0.03     0.16   0.03  -0.05     0.01   0.00  -0.00
  25   1    -0.00  -0.01   0.01    -0.16   0.03  -0.09    -0.17   0.04  -0.14
  26   1    -0.21  -0.06   0.09    -0.31  -0.08   0.13    -0.07   0.01  -0.04
  27   1    -0.35  -0.09   0.13    -0.35  -0.09   0.13    -0.19  -0.03   0.04
  28   1    -0.01  -0.00   0.01    -0.01  -0.01   0.03     0.03   0.01  -0.02
  29   1     0.01   0.00  -0.00    -0.00  -0.00  -0.01    -0.09  -0.02   0.01
  30   1     0.01   0.00  -0.00    -0.00   0.01  -0.00    -0.09  -0.00   0.01
  31   1     0.06  -0.09  -0.32    -0.04   0.04   0.14     0.01  -0.01  -0.02
                     55                     56                     57
                        a                      a                      a 
 Frequencies --  1257.3187              1278.8047              1306.4226
 Red. masses --     4.5142                 8.8500                 6.9736
 Frc consts  --     0.0000                 0.0000                 0.0000
 IR Inten    --    38.9076               227.7916                85.6058
 Raman Activ --     0.0000                 0.0000                 0.0000
 Depolar     --     0.0000                 0.0000                 0.0000
 Atom AN      X      Y      Z        X      Y      Z        X      Y      Z
   1   6     0.06   0.01   0.00    -0.08   0.04  -0.01    -0.09  -0.15   0.09
   2   6    -0.20   0.02  -0.05     0.38  -0.17   0.09     0.10   0.48   0.13
   3   1     0.19  -0.03   0.10    -0.36   0.22  -0.12    -0.11  -0.55  -0.26
   4   6     0.13   0.03  -0.05    -0.29   0.05  -0.15    -0.07  -0.02  -0.05
   5   6    -0.04   0.00  -0.01     0.01  -0.02   0.05     0.02   0.00   0.01
   6   6     0.00   0.04  -0.08    -0.06  -0.03   0.07    -0.03  -0.00   0.01
   7   6     0.16  -0.07   0.21     0.23   0.01   0.02     0.08  -0.00   0.02
   8   6    -0.04   0.02  -0.06    -0.16  -0.01  -0.01    -0.08  -0.01   0.00
   9   6    -0.17   0.05  -0.16    -0.17   0.05  -0.16    -0.03   0.01  -0.04
  10   6    -0.10   0.01  -0.05    -0.01  -0.05   0.13     0.03  -0.02   0.05
  11   6    -0.02  -0.01   0.01    -0.00  -0.03   0.06    -0.01   0.00  -0.01
  12   6     0.07  -0.08   0.21     0.38   0.05  -0.06     0.12   0.02  -0.01
  13   6    -0.03   0.01  -0.02    -0.16   0.01  -0.06    -0.10  -0.01   0.00
  14   8     0.13  -0.01   0.05     0.13  -0.00   0.03     0.03   0.00   0.00
  15   6    -0.05  -0.00  -0.01    -0.04  -0.00  -0.01    -0.01  -0.00   0.00
  16   6     0.06  -0.06  -0.02    -0.11   0.13   0.06     0.13  -0.33  -0.19
  17   8    -0.01   0.01  -0.01     0.02  -0.02   0.01    -0.01   0.04   0.00
  18   8    -0.01   0.02   0.01     0.02  -0.04  -0.02    -0.04   0.10   0.10
  19   1    -0.04  -0.01  -0.02     0.06  -0.03   0.01     0.02   0.08   0.08
  20   1    -0.03  -0.02  -0.01     0.06   0.05   0.03     0.01  -0.05  -0.16
  21   1     0.01   0.04   0.03    -0.01  -0.08  -0.05    -0.01  -0.01  -0.14
  22   1    -0.08   0.02  -0.05     0.03  -0.01   0.04     0.01  -0.01  -0.00
  23   1     0.23   0.06  -0.10     0.13   0.02  -0.03     0.05   0.01  -0.02
  24   1    -0.33  -0.07   0.10    -0.10  -0.01   0.02    -0.00   0.00  -0.01
  25   1     0.09  -0.02   0.08    -0.14   0.01  -0.06    -0.06   0.01  -0.04
  26   1     0.46   0.11  -0.16     0.01  -0.01   0.02    -0.02  -0.00   0.01
  27   1    -0.39  -0.09   0.13    -0.14  -0.01   0.01     0.00  -0.00  -0.01
  28   1    -0.01  -0.00   0.01    -0.02  -0.02   0.03    -0.01  -0.00   0.01
  29   1     0.05   0.01  -0.00     0.04   0.01  -0.02     0.01  -0.00  -0.01
  30   1     0.05   0.00  -0.01     0.04   0.01  -0.01     0.01   0.00  -0.00
  31   1    -0.01   0.01   0.03     0.02  -0.01  -0.07    -0.02   0.03   0.11
                     58                     59                     60
                        a                      a                      a 
 Frequencies --  1329.3737              1367.7689              1390.0726
 Red. masses --     7.3700                10.3133                 3.2405
 Frc consts  --     0.0000                 0.0000                 0.0000
 IR Inten    --     6.3529                76.5737                 6.7707
 Raman Activ --     0.0000                 0.0000                 0.0000
 Depolar     --     0.0000                 0.0000                 0.0000
 Atom AN      X      Y      Z        X      Y      Z        X      Y      Z
   1   6    -0.03  -0.01   0.02    -0.02  -0.01  -0.00     0.00  -0.01  -0.02
   2   6     0.09   0.01   0.08     0.08   0.03   0.01    -0.04  -0.00  -0.02
   3   1    -0.20  -0.02  -0.10     0.06  -0.02   0.02     0.02   0.00   0.01
   4   6    -0.02   0.04  -0.11    -0.25  -0.08   0.14     0.07  -0.02   0.06
   5   6    -0.16   0.05  -0.16    -0.27  -0.01  -0.02     0.06   0.02  -0.04
   6   6    -0.05  -0.09   0.21     0.34   0.02   0.02    -0.09   0.00  -0.02
   7   6    -0.20   0.03  -0.12    -0.00   0.01  -0.02    -0.01  -0.04   0.09
   8   6     0.30  -0.01   0.09     0.21   0.11  -0.23    -0.02  -0.02   0.05
   9   6     0.03   0.07  -0.16    -0.28  -0.13   0.25     0.09   0.05  -0.10
  10   6    -0.14   0.03  -0.09    -0.26  -0.00  -0.05     0.08  -0.02   0.07
  11   6    -0.02  -0.08   0.19     0.38   0.04  -0.02    -0.05   0.00  -0.01
  12   6    -0.19   0.07  -0.20    -0.01  -0.03   0.06    -0.01   0.03  -0.09
  13   6     0.30  -0.00   0.07     0.16   0.09  -0.18    -0.06  -0.02   0.03
  14   8    -0.03  -0.03   0.06     0.04   0.00   0.01    -0.11  -0.04   0.07
  15   6    -0.03   0.01  -0.03    -0.04  -0.03   0.06    -0.23  -0.09   0.17
  16   6    -0.01  -0.02  -0.01     0.01  -0.03  -0.02    -0.00   0.01   0.01
  17   8     0.00   0.00   0.00     0.00   0.00   0.00     0.00  -0.00  -0.00
  18   8    -0.00   0.01   0.01    -0.00   0.01   0.01     0.00  -0.00  -0.00
  19   1     0.01  -0.01   0.01     0.01  -0.00   0.01     0.00   0.02   0.01
  20   1     0.01  -0.00  -0.03     0.02   0.01  -0.01     0.00   0.00   0.03
  21   1    -0.00  -0.03  -0.04    -0.00   0.01  -0.01    -0.00   0.01   0.02
  22   1     0.33  -0.07   0.24    -0.07  -0.01   0.01     0.02   0.01  -0.01
  23   1     0.16   0.01  -0.01    -0.11  -0.04   0.08     0.07   0.02  -0.04
  24   1    -0.12  -0.05   0.10    -0.11  -0.01  -0.01    -0.02  -0.01   0.02
  25   1     0.26  -0.06   0.20    -0.13   0.01  -0.05    -0.05   0.01  -0.03
  26   1     0.07  -0.01   0.03    -0.12  -0.04   0.08    -0.05  -0.01   0.01
  27   1    -0.12  -0.05   0.09    -0.14  -0.02   0.01     0.10   0.02  -0.03
  28   1     0.01   0.01  -0.03     0.06   0.05  -0.12     0.20   0.19  -0.43
  29   1     0.04   0.02   0.02     0.09  -0.00  -0.07     0.42   0.01  -0.28
  30   1     0.04  -0.02   0.01     0.09   0.06  -0.04     0.40   0.25  -0.18
  31   1     0.00   0.00  -0.00     0.00   0.00   0.00    -0.00  -0.00  -0.00
                     61                     62                     63
                        a                      a                      a 
 Frequencies --  1399.0696              1403.7198              1424.8162
 Red. masses --     5.8273                 6.5726                11.3861
 Frc consts  --     0.0000                 0.0000                 0.0000
 IR Inten    --     8.2191                17.5637                10.8238
 Raman Activ --     0.0000                 0.0000                 0.0000
 Depolar     --     0.0000                 0.0000                 0.0000
 Atom AN      X      Y      Z        X      Y      Z        X      Y      Z
   1   6    -0.07  -0.21  -0.23    -0.07  -0.19  -0.19     0.01   0.01   0.01
   2   6    -0.02   0.03  -0.02     0.04   0.01   0.05    -0.04   0.01  -0.05
   3   1     0.06  -0.04   0.02    -0.12  -0.02  -0.06     0.07  -0.00   0.03
   4   6    -0.02  -0.10   0.24     0.02   0.10  -0.26     0.06  -0.06   0.15
   5   6    -0.05   0.04  -0.11     0.08  -0.04   0.12     0.27   0.04  -0.05
   6   6     0.03   0.03  -0.06    -0.06  -0.03   0.06    -0.31  -0.03   0.02
   7   6     0.01  -0.11   0.26    -0.05   0.12  -0.30    -0.36   0.05  -0.19
   8   6     0.01  -0.01   0.02     0.01   0.01  -0.01     0.32   0.02   0.03
   9   6    -0.05   0.08  -0.21     0.07  -0.09   0.22    -0.03   0.05  -0.12
  10   6    -0.01  -0.05   0.11    -0.03   0.06  -0.14    -0.30  -0.03   0.02
  11   6     0.04  -0.02   0.05    -0.04   0.01  -0.04     0.30   0.03  -0.00
  12   6    -0.01   0.11  -0.26     0.04  -0.12   0.30     0.36  -0.04   0.17
  13   6     0.02   0.03  -0.06    -0.02  -0.02   0.05    -0.31  -0.02  -0.02
  14   8     0.06  -0.00   0.02    -0.06   0.00  -0.02     0.00  -0.02   0.04
  15   6     0.03   0.02  -0.05    -0.02  -0.02   0.04    -0.00   0.01  -0.03
  16   6    -0.00  -0.01   0.01    -0.00  -0.01   0.01    -0.00   0.00  -0.00
  17   8    -0.00   0.01  -0.01    -0.00   0.01  -0.01     0.00  -0.00   0.00
  18   8     0.00  -0.00  -0.00     0.00  -0.00   0.00    -0.00   0.00  -0.00
  19   1     0.13   0.34   0.17     0.11   0.29   0.15    -0.01  -0.01  -0.01
  20   1     0.15   0.12   0.35     0.15   0.11   0.30    -0.02  -0.01  -0.01
  21   1    -0.05   0.25   0.27    -0.05   0.23   0.23     0.00  -0.01  -0.01
  22   1    -0.01   0.01  -0.03     0.02  -0.01   0.03     0.03   0.03  -0.06
  23   1     0.09   0.03  -0.04    -0.10  -0.03   0.04     0.03   0.02  -0.04
  24   1    -0.13  -0.03   0.06     0.14   0.04  -0.06    -0.08  -0.04   0.07
  25   1    -0.01  -0.01   0.03     0.04   0.01  -0.01    -0.01  -0.03   0.06
  26   1    -0.12  -0.04   0.06     0.15   0.04  -0.07    -0.02  -0.02   0.04
  27   1     0.12   0.03  -0.06    -0.18  -0.05   0.08     0.11   0.04  -0.07
  28   1    -0.05  -0.04   0.09     0.04   0.03  -0.07    -0.01  -0.01   0.01
  29   1    -0.06   0.00   0.06     0.05  -0.00  -0.04    -0.00   0.01   0.04
  30   1    -0.06  -0.05   0.03     0.04   0.04  -0.02     0.00  -0.04   0.02
  31   1     0.00   0.00   0.00     0.00  -0.00  -0.00    -0.00   0.00   0.00
                     64                     65                     66
                        a                      a                      a 
 Frequencies --  1456.8221              1461.0815              1471.3548
 Red. masses --     9.1088                 1.5423                 2.0837
 Frc consts  --     0.0000                 0.0000                 0.0000
 IR Inten    --   111.9610                 7.3700                 6.8564
 Raman Activ --     0.0000                 0.0000                 0.0000
 Depolar     --     0.0000                 0.0000                 0.0000
 Atom AN      X      Y      Z        X      Y      Z        X      Y      Z
   1   6    -0.03   0.00   0.02     0.00  -0.00  -0.00    -0.02  -0.00   0.01
   2   6     0.07   0.02   0.01    -0.00  -0.00  -0.00     0.01   0.00   0.00
   3   1     0.05  -0.01   0.02    -0.00   0.00  -0.00     0.01  -0.00   0.01
   4   6    -0.33  -0.04   0.03     0.00   0.00  -0.00    -0.08  -0.01   0.01
   5   6     0.13  -0.06   0.18    -0.00   0.00  -0.00     0.04  -0.01   0.04
   6   6     0.22   0.09  -0.18    -0.00  -0.00   0.00     0.05   0.02  -0.05
   7   6    -0.27  -0.08   0.13     0.00   0.00  -0.00    -0.11  -0.02   0.02
   8   6    -0.10  -0.07   0.15     0.00   0.00  -0.00     0.02  -0.02   0.04
   9   6     0.33   0.06  -0.07    -0.00  -0.00   0.00     0.06   0.03  -0.06
  10   6    -0.17   0.05  -0.15     0.00   0.00   0.00    -0.05   0.01  -0.04
  11   6    -0.12  -0.07   0.15     0.00   0.00  -0.00    -0.03  -0.02   0.05
  12   6     0.23   0.06  -0.11    -0.00  -0.00   0.00     0.06   0.01  -0.02
  13   6     0.12   0.07  -0.14    -0.00  -0.00   0.00     0.04   0.02  -0.04
  14   8    -0.09  -0.01  -0.01     0.00  -0.03  -0.01     0.01  -0.02   0.05
  15   6    -0.06   0.01  -0.04     0.02  -0.20  -0.08     0.14  -0.05   0.14
  16   6     0.00  -0.01  -0.02    -0.00   0.00   0.00     0.00  -0.00  -0.01
  17   8     0.00  -0.00   0.01    -0.00  -0.00  -0.00     0.00  -0.00   0.00
  18   8    -0.00   0.00   0.01     0.00  -0.00  -0.00    -0.00   0.00   0.00
  19   1     0.05  -0.08  -0.01    -0.00   0.00  -0.00     0.02  -0.04  -0.01
  20   1     0.07   0.02  -0.07    -0.00  -0.00   0.00     0.05   0.02  -0.04
  21   1    -0.01   0.03   0.00     0.00  -0.00  -0.00    -0.00   0.04   0.00
  22   1    -0.20   0.03  -0.12     0.00  -0.00   0.00    -0.05   0.01  -0.03
  23   1    -0.18  -0.03   0.03     0.00   0.00  -0.00    -0.04  -0.01   0.01
  24   1     0.09   0.01   0.01    -0.00   0.00  -0.00     0.00  -0.01   0.01
  25   1     0.17  -0.03   0.12    -0.00  -0.02  -0.01     0.10  -0.02   0.08
  26   1     0.14   0.02  -0.02    -0.00   0.00   0.00     0.04   0.00  -0.00
  27   1    -0.11  -0.01   0.00     0.00   0.00  -0.00    -0.03  -0.00   0.00
  28   1     0.04   0.04  -0.09    -0.05   0.66   0.27    -0.11  -0.10   0.25
  29   1     0.08   0.05   0.15     0.45   0.09   0.10    -0.18  -0.16  -0.58
  30   1     0.09  -0.12   0.08    -0.46   0.07  -0.03    -0.25   0.49  -0.31
  31   1    -0.00   0.00   0.00     0.00   0.00   0.00     0.00   0.00  -0.00
                     67                     68                     69
                        a                      a                      a 
 Frequencies --  1479.2986              1488.2626              1504.0246
 Red. masses --     1.7485                 1.6183                10.8426
 Frc consts  --     0.0000                 0.0000                 0.0000
 IR Inten    --     0.3876                 2.9621                75.0632
 Raman Activ --     0.0000                 0.0000                 0.0000
 Depolar     --     0.0000                 0.0000                 0.0000
 Atom AN      X      Y      Z        X      Y      Z        X      Y      Z
   1   6     0.16   0.07  -0.10     0.13  -0.14   0.11    -0.01  -0.00   0.00
   2   6     0.06   0.03  -0.01     0.04  -0.04   0.02    -0.03   0.01  -0.04
   3   1    -0.01  -0.03  -0.03    -0.01   0.03   0.01     0.06  -0.00   0.03
   4   6    -0.06  -0.00   0.00    -0.03  -0.00   0.00     0.06  -0.13   0.33
   5   6     0.00  -0.01   0.02     0.00  -0.00   0.01    -0.15   0.09  -0.25
   6   6     0.05   0.01  -0.02     0.02   0.00  -0.01    -0.12  -0.08   0.17
   7   6    -0.03  -0.01   0.02    -0.01  -0.00   0.00     0.30   0.06  -0.09
   8   6    -0.02  -0.01   0.01    -0.01  -0.00   0.01    -0.18   0.02  -0.09
   9   6     0.05   0.00   0.01     0.02   0.00  -0.01     0.12  -0.13   0.34
  10   6    -0.04   0.01  -0.03    -0.01   0.00  -0.01    -0.16   0.10  -0.28
  11   6    -0.01  -0.01   0.03    -0.00  -0.00   0.01    -0.15  -0.10   0.20
  12   6     0.05   0.01  -0.02     0.02   0.00  -0.01     0.29   0.08  -0.14
  13   6     0.01   0.01  -0.02     0.00   0.00  -0.01    -0.13   0.03  -0.10
  14   8    -0.01  -0.00   0.00    -0.00  -0.00   0.00    -0.04   0.01  -0.04
  15   6     0.01  -0.00   0.01     0.00  -0.00   0.00     0.01  -0.01   0.02
  16   6     0.00  -0.01  -0.01    -0.01  -0.00   0.02    -0.01   0.00   0.01
  17   8     0.00  -0.00   0.00     0.00   0.01  -0.02     0.00  -0.00  -0.00
  18   8    -0.00   0.00   0.00     0.00  -0.00   0.00     0.00  -0.00  -0.00
  19   1    -0.13   0.39   0.09    -0.63   0.17  -0.17     0.00  -0.01  -0.00
  20   1    -0.60  -0.20   0.31     0.08   0.08   0.30     0.01   0.00  -0.01
  21   1     0.05  -0.50   0.04     0.02   0.30  -0.55    -0.00   0.01   0.00
  22   1    -0.02   0.00  -0.01    -0.01   0.00  -0.00     0.10  -0.01   0.04
  23   1    -0.02  -0.00   0.01    -0.01  -0.00   0.00     0.13   0.01  -0.01
  24   1     0.01   0.00  -0.00     0.00   0.00   0.00     0.09   0.04  -0.07
  25   1     0.03  -0.01   0.02     0.01  -0.00   0.01     0.14  -0.01   0.06
  26   1     0.02   0.00  -0.00     0.01   0.00  -0.00     0.14   0.02  -0.01
  27   1    -0.03  -0.01   0.00     0.01   0.01  -0.00     0.08   0.04  -0.07
  28   1    -0.01  -0.01   0.01    -0.00  -0.00   0.00     0.01   0.01  -0.02
  29   1    -0.01  -0.01  -0.03    -0.00  -0.00  -0.00    -0.01  -0.01  -0.02
  30   1    -0.01   0.03  -0.02    -0.00   0.00  -0.00    -0.01   0.02  -0.01
  31   1     0.00   0.00   0.00     0.00  -0.00  -0.00     0.00  -0.00   0.00
                     70                     71                     72
                        a                      a                      a 
 Frequencies --  1556.9948              1602.8664              1609.1453
 Red. masses --    11.6868                11.5383                11.5213
 Frc consts  --     0.0000                 0.0000                 0.0000
 IR Inten    --     2.8929               187.0211                14.9901
 Raman Activ --     0.0000                 0.0000                 0.0000
 Depolar     --     0.0000                 0.0000                 0.0000
 Atom AN      X      Y      Z        X      Y      Z        X      Y      Z
   1   6     0.00  -0.00   0.00     0.00   0.00   0.00     0.00   0.00   0.00
   2   6    -0.00  -0.01   0.02     0.02   0.01  -0.01     0.02   0.02  -0.02
   3   1    -0.05   0.00  -0.02     0.03  -0.01   0.01     0.05  -0.01   0.02
   4   6     0.05   0.13  -0.32    -0.16  -0.06   0.12    -0.28  -0.11   0.20
   5   6     0.28  -0.06   0.21     0.18   0.00   0.03     0.37   0.00   0.07
   6   6    -0.20   0.03  -0.11    -0.15  -0.01  -0.01    -0.46  -0.06   0.06
   7   6     0.09  -0.13   0.34    -0.20  -0.01  -0.01     0.27   0.06  -0.09
   8   6     0.12   0.09  -0.20     0.40   0.11  -0.20    -0.14  -0.03   0.04
   9   6    -0.05  -0.13   0.31    -0.27  -0.11   0.21     0.04   0.02  -0.04
  10   6    -0.23   0.06  -0.20     0.41   0.01   0.07    -0.08  -0.00  -0.01
  11   6     0.16  -0.03   0.11    -0.49  -0.07   0.06     0.16   0.04  -0.05
  12   6    -0.11   0.13  -0.34     0.13   0.04  -0.07    -0.30  -0.05   0.07
  13   6    -0.10  -0.09   0.20     0.14   0.06  -0.11     0.40   0.12  -0.20
  14   8    -0.00   0.01  -0.02     0.00   0.01  -0.02     0.01  -0.00   0.00
  15   6     0.01  -0.00   0.01     0.02   0.00   0.00    -0.01  -0.00  -0.00
  16   6     0.00   0.00  -0.00     0.00   0.00  -0.03     0.00  -0.00  -0.03
  17   8    -0.00  -0.00   0.00     0.00  -0.01   0.02     0.00  -0.01   0.02
  18   8    -0.00  -0.00   0.00    -0.00   0.00   0.01    -0.00   0.00   0.01
  19   1    -0.00  -0.01  -0.00    -0.00   0.00   0.00    -0.00   0.01   0.00
  20   1     0.00   0.00  -0.00    -0.00  -0.00   0.00    -0.01  -0.00   0.00
  21   1     0.00   0.01  -0.00     0.00  -0.00  -0.01     0.00  -0.01  -0.01
  22   1    -0.05   0.01  -0.04    -0.03   0.02  -0.05    -0.04   0.03  -0.09
  23   1     0.02   0.02  -0.06     0.00   0.01  -0.02     0.08   0.03  -0.06
  24   1    -0.07  -0.00  -0.01    -0.10  -0.02   0.02     0.04   0.01  -0.02
  25   1     0.05  -0.01   0.03    -0.04   0.04  -0.09    -0.00  -0.01   0.01
  26   1    -0.02  -0.02   0.05     0.08   0.03  -0.06    -0.05  -0.01   0.02
  27   1     0.07   0.00   0.02    -0.04  -0.00  -0.01    -0.12  -0.02   0.02
  28   1     0.01   0.00  -0.01     0.01   0.00  -0.01    -0.00  -0.00   0.00
  29   1    -0.01  -0.00  -0.00    -0.01   0.00   0.01     0.00  -0.00  -0.00
  30   1    -0.01   0.00   0.00    -0.00  -0.01   0.01     0.00   0.00  -0.00
  31   1    -0.00  -0.00  -0.00     0.00   0.00  -0.00     0.00   0.00  -0.00
                     73                     74                     75
                        a                      a                      a 
 Frequencies --  1712.5176              2944.6814              2956.1957
 Red. masses --    13.2704                 1.9585                 1.4427
 Frc consts  --     0.0000                 0.0000                 0.0000
 IR Inten    --   709.8521                46.3728                55.1841
 Raman Activ --     0.0000                 0.0000                 0.0000
 Depolar     --     0.0000                 0.0000                 0.0000
 Atom AN      X      Y      Z        X      Y      Z        X      Y      Z
   1   6    -0.00   0.00   0.00    -0.00  -0.00   0.00     0.00   0.00   0.00
   2   6     0.01   0.06  -0.03     0.00  -0.00  -0.00     0.00   0.00  -0.00
   3   1    -0.03   0.06  -0.01    -0.00  -0.00   0.00    -0.00  -0.00   0.00
   4   6    -0.04  -0.01   0.01     0.00   0.00  -0.00    -0.00  -0.00   0.00
   5   6     0.02  -0.00   0.01     0.00   0.00   0.00     0.00   0.00  -0.00
   6   6    -0.01  -0.00   0.00    -0.00   0.00  -0.00    -0.00   0.00  -0.00
   7   6    -0.00   0.00  -0.00     0.00  -0.00  -0.00    -0.00  -0.00   0.00
   8   6     0.01   0.00  -0.00    -0.00  -0.00  -0.00     0.00  -0.00   0.00
   9   6    -0.01  -0.00   0.00     0.00   0.00   0.00    -0.00  -0.00  -0.00
  10   6     0.01  -0.00   0.00    -0.00   0.00   0.00    -0.00  -0.00   0.00
  11   6    -0.01  -0.00   0.00    -0.00  -0.00  -0.00    -0.00  -0.00   0.00
  12   6    -0.00   0.00  -0.00     0.00  -0.00  -0.00     0.00  -0.00   0.00
  13   6     0.02   0.01  -0.01     0.00   0.00   0.00     0.00  -0.00   0.00
  14   8     0.00   0.00   0.00     0.00  -0.01  -0.00     0.01   0.01  -0.01
  15   6    -0.00  -0.00   0.00     0.02  -0.27  -0.11    -0.05   0.06  -0.18
  16   6     0.03  -0.35   0.71    -0.00   0.00  -0.00    -0.00   0.00  -0.00
  17   8    -0.01   0.24  -0.53    -0.00  -0.00   0.00     0.00  -0.00   0.00
  18   8     0.01  -0.00  -0.07     0.00   0.00  -0.00     0.00  -0.00  -0.00
  19   1     0.01  -0.01   0.00     0.00   0.00  -0.00     0.00   0.00  -0.00
  20   1    -0.01  -0.01  -0.03    -0.00   0.00  -0.00     0.00  -0.00   0.00
  21   1     0.00  -0.02   0.01     0.00  -0.00   0.00    -0.00  -0.00   0.00
  22   1    -0.00   0.00  -0.01    -0.00  -0.00   0.00    -0.00  -0.00   0.00
  23   1     0.00   0.00  -0.00     0.00  -0.00   0.00     0.00  -0.00   0.00
  24   1    -0.00  -0.00   0.00     0.00  -0.00   0.00    -0.00   0.00  -0.00
  25   1    -0.00   0.00  -0.00    -0.00   0.00   0.00     0.01   0.00  -0.01
  26   1     0.00   0.00  -0.00     0.00  -0.00   0.00    -0.00   0.00  -0.00
  27   1     0.01  -0.00  -0.01     0.00  -0.00   0.00    -0.00   0.00  -0.00
  28   1    -0.00  -0.00   0.00     0.00  -0.04  -0.02     0.01   0.00  -0.01
  29   1    -0.00  -0.00   0.00    -0.13   0.66  -0.16     0.11  -0.66   0.11
  30   1    -0.00  -0.00   0.00     0.04   0.34   0.56     0.02   0.41   0.57
  31   1    -0.02   0.02   0.07     0.00  -0.00   0.00    -0.00   0.00  -0.00
                     76                     77                     78
                        a                      a                      a 
 Frequencies --  2967.5715              3034.4351              3038.1938
 Red. masses --     1.7625                 1.6986                 1.8534
 Frc consts  --     0.0000                 0.0000                 0.0000
 IR Inten    --    28.5798                17.8742                62.1601
 Raman Activ --     0.0000                 0.0000                 0.0000
 Depolar     --     0.0000                 0.0000                 0.0000
 Atom AN      X      Y      Z        X      Y      Z        X      Y      Z
   1   6     0.01   0.01  -0.01    -0.00  -0.00   0.00     0.27   0.01  -0.03
   2   6    -0.11  -0.07   0.22    -0.00  -0.00   0.00     0.01   0.00  -0.01
   3   1     0.42   0.27  -0.82     0.00   0.00  -0.00    -0.02  -0.01   0.03
   4   6    -0.01  -0.00   0.01     0.00  -0.00   0.00    -0.00   0.00   0.00
   5   6     0.00   0.00  -0.00    -0.00  -0.00   0.00    -0.00  -0.00   0.00
   6   6    -0.00  -0.00   0.00     0.00  -0.00   0.00     0.00  -0.00   0.00
   7   6     0.00   0.00  -0.00    -0.00  -0.00   0.00    -0.00  -0.00   0.00
   8   6    -0.00   0.00  -0.00     0.00  -0.00   0.00     0.00  -0.00   0.00
   9   6     0.00   0.00  -0.00     0.00   0.00  -0.00    -0.00  -0.00  -0.00
  10   6     0.00  -0.00   0.00    -0.00  -0.00   0.00     0.00   0.00  -0.00
  11   6    -0.00  -0.00   0.00     0.00   0.00  -0.00    -0.00   0.00  -0.00
  12   6     0.00  -0.00   0.00    -0.00  -0.00   0.00    -0.00  -0.00   0.00
  13   6     0.00   0.00  -0.00    -0.00   0.00  -0.00     0.00  -0.00   0.00
  14   8    -0.00   0.00  -0.00    -0.01  -0.00   0.00     0.00  -0.00   0.00
  15   6    -0.00   0.00  -0.00    -0.22   0.03  -0.11    -0.00   0.00  -0.00
  16   6    -0.00  -0.00   0.01     0.00  -0.00   0.00     0.00  -0.00  -0.00
  17   8     0.00   0.00  -0.00    -0.00   0.00  -0.00    -0.00   0.00  -0.00
  18   8    -0.00   0.00  -0.00    -0.00   0.00   0.00     0.00  -0.00   0.00
  19   1    -0.02  -0.02   0.05     0.00   0.00  -0.00    -0.04  -0.07   0.18
  20   1     0.01  -0.01   0.00     0.00  -0.00   0.00    -0.00   0.10  -0.03
  21   1    -0.03  -0.00  -0.00     0.00   0.00   0.00    -0.93  -0.08  -0.06
  22   1    -0.01  -0.00   0.00     0.00   0.00  -0.00     0.00   0.00  -0.00
  23   1     0.00   0.00  -0.00    -0.00   0.00  -0.00    -0.00   0.00  -0.00
  24   1     0.00  -0.00   0.00    -0.00   0.00  -0.00    -0.00   0.00  -0.00
  25   1     0.00   0.00  -0.00     0.00   0.00  -0.00    -0.00  -0.00   0.00
  26   1     0.00   0.00  -0.00     0.00  -0.00   0.00     0.00  -0.00   0.00
  27   1     0.00  -0.00   0.00     0.00  -0.00   0.00    -0.01   0.00  -0.01
  28   1    -0.00   0.00  -0.00     0.87  -0.10   0.41     0.00  -0.00   0.00
  29   1     0.00  -0.00   0.00    -0.03   0.02  -0.02    -0.00   0.00  -0.00
  30   1     0.00   0.00   0.00    -0.03  -0.00  -0.03    -0.00  -0.00  -0.00
  31   1     0.00  -0.01   0.00     0.00  -0.00   0.00    -0.00   0.00  -0.00
                     79                     80                     81
                        a                      a                      a 
 Frequencies --  3049.8561              3053.8589              3073.7353
 Red. masses --     1.8847                 1.4211                 1.8200
 Frc consts  --     0.0000                 0.0000                 0.0000
 IR Inten    --    32.0874                21.2183                30.5253
 Raman Activ --     0.0000                 0.0000                 0.0000
 Depolar     --     0.0000                 0.0000                 0.0000
 Atom AN      X      Y      Z        X      Y      Z        X      Y      Z
   1   6    -0.06   0.25  -0.13     0.06  -0.01  -0.18     0.01   0.00  -0.02
   2   6     0.00   0.01  -0.01     0.00   0.00  -0.01     0.00   0.00  -0.00
   3   1    -0.01  -0.01   0.03    -0.02  -0.01   0.03    -0.00  -0.00   0.01
   4   6     0.00  -0.00  -0.00     0.00   0.00  -0.00    -0.01   0.00  -0.00
   5   6    -0.00  -0.00   0.00    -0.00  -0.00   0.00     0.03   0.02  -0.03
   6   6    -0.00   0.00  -0.00     0.00   0.00  -0.00     0.01  -0.01   0.02
   7   6    -0.00   0.00  -0.00     0.00   0.00  -0.00    -0.00  -0.00   0.00
   8   6     0.00  -0.00   0.00    -0.00  -0.00   0.00    -0.00   0.00  -0.01
   9   6    -0.00  -0.00   0.00     0.00   0.00  -0.00     0.00   0.00  -0.00
  10   6    -0.00  -0.00   0.00     0.00   0.00  -0.00     0.00   0.00  -0.01
  11   6    -0.00   0.00  -0.00     0.00   0.00  -0.00     0.03  -0.02   0.06
  12   6    -0.00  -0.00   0.00    -0.00  -0.00   0.00     0.00   0.00  -0.01
  13   6     0.00  -0.00   0.00     0.01  -0.01   0.02    -0.09   0.09  -0.22
  14   8     0.00   0.00  -0.00    -0.00   0.00  -0.00    -0.00  -0.00   0.00
  15   6     0.00  -0.00   0.00     0.00  -0.00  -0.00    -0.00   0.00  -0.00
  16   6     0.00  -0.00  -0.00    -0.00   0.00  -0.00     0.00  -0.00  -0.00
  17   8     0.00  -0.00   0.00     0.00  -0.00   0.00    -0.00  -0.00   0.00
  18   8    -0.00  -0.00   0.00    -0.00   0.00  -0.00     0.00   0.00  -0.00
  19   1    -0.14  -0.10   0.31    -0.31  -0.32   0.75    -0.02  -0.03   0.06
  20   1     0.37  -0.79   0.16    -0.14   0.33  -0.09    -0.01   0.02  -0.01
  21   1    -0.02   0.03  -0.02     0.24   0.02  -0.01     0.00   0.00  -0.00
  22   1     0.01   0.00  -0.01     0.00   0.00  -0.00    -0.11  -0.06   0.12
  23   1     0.00  -0.00   0.00     0.00  -0.00   0.00    -0.03   0.03  -0.07
  24   1    -0.00   0.00  -0.00     0.00  -0.00   0.00     0.01  -0.01   0.02
  25   1     0.00   0.00  -0.00     0.00  -0.00   0.00    -0.03  -0.01   0.03
  26   1     0.00  -0.00   0.00     0.00   0.00  -0.00    -0.10   0.08  -0.22
  27   1    -0.00   0.00  -0.01    -0.03   0.03  -0.06     0.34  -0.30   0.78
  28   1    -0.00  -0.00   0.00    -0.00   0.00  -0.00     0.00  -0.00   0.00
  29   1    -0.00   0.00  -0.00     0.00  -0.00   0.00     0.00  -0.00   0.00
  30   1    -0.00  -0.00  -0.00     0.00   0.00   0.00     0.00   0.00   0.00
  31   1    -0.00   0.00  -0.00     0.00  -0.00   0.00     0.00  -0.00   0.00
                     82                     83                     84
                        a                      a                      a 
 Frequencies --  3076.5274              3078.2195              3089.1957
 Red. masses --     1.7728                 1.8025                 1.8842
 Frc consts  --     0.0000                 0.0000                 0.0000
 IR Inten    --    37.6923                90.9611                96.0746
 Raman Activ --     0.0000                 0.0000                 0.0000
 Depolar     --     0.0000                 0.0000                 0.0000
 Atom AN      X      Y      Z        X      Y      Z        X      Y      Z
   1   6     0.00  -0.00  -0.00    -0.00   0.00   0.00     0.00   0.00   0.00
   2   6    -0.00  -0.00   0.00    -0.00  -0.00   0.00     0.00   0.00  -0.00
   3   1     0.00   0.00  -0.00     0.00   0.00  -0.00    -0.00  -0.00   0.00
   4   6    -0.01  -0.00   0.00     0.00  -0.00   0.00     0.01   0.00   0.00
   5   6    -0.11  -0.06   0.13    -0.02  -0.01   0.02     0.12   0.07  -0.14
   6   6    -0.07   0.06  -0.16     0.00  -0.00   0.00    -0.08   0.06  -0.17
   7   6    -0.01   0.00  -0.00    -0.00   0.00  -0.00    -0.01  -0.00  -0.00
   8   6     0.00  -0.00   0.01     0.00  -0.00   0.01     0.02  -0.01   0.04
   9   6     0.00   0.00  -0.00     0.00   0.00  -0.00     0.00   0.00  -0.00
  10   6    -0.00  -0.00   0.00     0.03   0.02  -0.03     0.00   0.00  -0.01
  11   6    -0.00   0.00  -0.01     0.10  -0.08   0.22     0.01  -0.01   0.01
  12   6     0.00   0.00  -0.00     0.01  -0.00   0.01     0.00  -0.00   0.00
  13   6    -0.02   0.02  -0.05     0.03  -0.02   0.06     0.01  -0.01   0.02
  14   8    -0.00  -0.00  -0.00     0.00  -0.00   0.00     0.00  -0.00   0.00
  15   6    -0.00  -0.00   0.00    -0.00   0.00  -0.00    -0.00  -0.00   0.00
  16   6     0.00  -0.00   0.00    -0.00  -0.00   0.00     0.00  -0.00   0.00
  17   8    -0.00   0.00   0.00     0.00   0.00  -0.00    -0.00   0.00  -0.00
  18   8    -0.00   0.00  -0.00    -0.00   0.00   0.00     0.00  -0.00   0.00
  19   1    -0.00  -0.00   0.01     0.01   0.01  -0.02     0.00   0.00  -0.00
  20   1    -0.00   0.01  -0.00     0.00  -0.01   0.00     0.00  -0.00   0.00
  21   1     0.00  -0.00  -0.00    -0.00  -0.00   0.00    -0.01  -0.00  -0.00
  22   1     0.40   0.22  -0.47     0.07   0.04  -0.09    -0.41  -0.23   0.48
  23   1     0.26  -0.22   0.59    -0.00   0.00  -0.00     0.25  -0.22   0.58
  24   1    -0.01   0.01  -0.02    -0.01   0.01  -0.02    -0.06   0.05  -0.12
  25   1     0.01   0.00  -0.01    -0.11  -0.07   0.13    -0.02  -0.01   0.02
  26   1     0.01  -0.01   0.03    -0.34   0.30  -0.78    -0.02   0.02  -0.05
  27   1     0.07  -0.07   0.17    -0.09   0.08  -0.21    -0.03   0.03  -0.07
  28   1     0.00  -0.00   0.00     0.00  -0.00   0.00     0.00  -0.00   0.00
  29   1    -0.00   0.00  -0.00     0.00  -0.00   0.00    -0.00   0.00  -0.00
  30   1    -0.00  -0.00  -0.00     0.00   0.00   0.00    -0.00  -0.00  -0.00
  31   1     0.00  -0.00   0.00     0.00  -0.00  -0.00    -0.00   0.00  -0.00
                     85                     86                     87
                        a                      a                      a 
 Frequencies --  3097.3162              3109.7417              3334.8096
 Red. masses --     1.8211                 1.8475                 1.8506
 Frc consts  --     0.0000                 0.0000                 0.0000
 IR Inten    --    77.5154                62.8016               182.9027
 Raman Activ --     0.0000                 0.0000                 0.0000
 Depolar     --     0.0000                 0.0000                 0.0000
 Atom AN      X      Y      Z        X      Y      Z        X      Y      Z
   1   6    -0.00  -0.00  -0.00     0.00   0.00   0.00     0.00   0.00   0.00
   2   6     0.00  -0.00   0.00    -0.00   0.00  -0.00     0.00  -0.00  -0.00
   3   1     0.00   0.00  -0.00    -0.00  -0.00   0.00    -0.00  -0.00   0.01
   4   6    -0.00   0.00  -0.00     0.00   0.00   0.00    -0.00  -0.00  -0.00
   5   6    -0.01  -0.01   0.02     0.00   0.00  -0.00     0.00   0.00  -0.00
   6   6     0.01  -0.01   0.03    -0.00   0.00  -0.01    -0.00   0.00  -0.00
   7   6    -0.00  -0.00   0.01     0.00   0.00  -0.00    -0.00  -0.00   0.00
   8   6     0.10  -0.09   0.23    -0.01   0.01  -0.02     0.00   0.00  -0.00
   9   6     0.01  -0.00   0.00    -0.01  -0.00  -0.00    -0.00  -0.00   0.00
  10   6    -0.02  -0.01   0.02    -0.16  -0.09   0.19     0.00  -0.00  -0.00
  11   6    -0.00   0.00  -0.00     0.02  -0.02   0.05     0.00  -0.00  -0.00
  12   6     0.00   0.00  -0.00     0.00   0.00  -0.00    -0.00   0.00   0.00
  13   6    -0.00   0.00  -0.01     0.00  -0.00   0.00     0.00  -0.00   0.00
  14   8    -0.00  -0.00   0.00     0.00  -0.00   0.00    -0.00  -0.00   0.00
  15   6     0.00  -0.00   0.00     0.00  -0.00   0.00     0.00   0.00  -0.00
  16   6    -0.00   0.00  -0.00     0.00  -0.00   0.00    -0.00   0.01   0.01
  17   8     0.00  -0.00   0.00    -0.00   0.00  -0.00     0.00   0.00  -0.00
  18   8     0.00   0.00  -0.00    -0.00   0.00   0.00    -0.06   0.22  -0.05
  19   1    -0.00  -0.00   0.00     0.00   0.00  -0.00     0.00   0.00  -0.00
  20   1    -0.00   0.00  -0.00     0.00  -0.00   0.00     0.00  -0.00   0.00
  21   1     0.00   0.00   0.00    -0.00  -0.00  -0.00    -0.00  -0.00  -0.00
  22   1     0.05   0.03  -0.05    -0.01  -0.01   0.01    -0.00  -0.00   0.00
  23   1    -0.04   0.04  -0.10     0.01  -0.01   0.02     0.00  -0.00   0.00
  24   1    -0.37   0.31  -0.81     0.03  -0.03   0.08    -0.00  -0.00   0.00
  25   1     0.06   0.03  -0.07     0.56   0.33  -0.67    -0.00  -0.00   0.00
  26   1     0.00  -0.00   0.01    -0.07   0.06  -0.17    -0.00  -0.00   0.00
  27   1     0.01  -0.01   0.03    -0.01   0.01  -0.01    -0.00   0.00  -0.00
  28   1    -0.00   0.00  -0.00    -0.01   0.00  -0.00    -0.00   0.00   0.00
  29   1     0.00   0.00  -0.00    -0.00   0.01  -0.00    -0.00  -0.00   0.00
  30   1     0.00  -0.00  -0.00    -0.00  -0.00  -0.01    -0.00  -0.00   0.00
  31   1     0.00  -0.00   0.00     0.00   0.00  -0.00     0.24  -0.93   0.17
