      -----------------------------------------------------------      
     |                   =====================                   |     
     |                           x T B                           |     
     |                   =====================                   |     
     |                         S. Grimme                         |     
     |          Mulliken Center for Theoretical Chemistry        |     
     |                    University of Bonn                     |     
      -----------------------------------------------------------      

   * xtb version 6.7.1 (edcfbbe) compiled by 'albert@albert-system' on 2024-07-22

   xtb is free software: you can redistribute it and/or modify it under
   the terms of the GNU Lesser General Public License as published by
   the Free Software Foundation, either version 3 of the License, or
   (at your option) any later version.
   
   xtb is distributed in the hope that it will be useful,
   but WITHOUT ANY WARRANTY; without even the implied warranty of
   MERCHANTABILITY or FITNESS FOR A PARTICULAR PURPOSE.  See the
   GNU Lesser General Public License for more details.
   
   Cite this work as:
   * C. Bannwarth, E. Caldeweyher, S. Ehlert, A. Hansen, P. Pracht,
     J. Seibert, S. Spicher, S. Grimme, WIREs Comput. Mol. Sci., 2020, 11,
     e01493. DOI: 10.1002/wcms.1493
   
   for GFN2-xTB:
   * C. Bannwarth, S. Ehlert and S. Grimme., J. Chem. Theory Comput., 2019,
     15, 1652-1671. DOI: 10.1021/acs.jctc.8b01176
   for GFN1-xTB:
   * S. Grimme, C. Bannwarth, P. Shushkov, J. Chem. Theory Comput., 2017,
     13, 1989-2009. DOI: 10.1021/acs.jctc.7b00118
   for GFN0-xTB:
   * P. Pracht, E. Caldeweyher, S. Ehlert, S. Grimme, ChemRxiv, 2019, preprint.
     DOI: 10.26434/chemrxiv.8326202.v1
   for GFN-FF:
   * S. Spicher and S. Grimme, Angew. Chem. Int. Ed., 2020, 59, 15665-15673.
     DOI: 10.1002/anie.202004239
   
   for ALPB and GBSA implicit solvation:
   * S. Ehlert, M. Stahn, S. Spicher, S. Grimme, J. Chem. Theory Comput.,
     2021, 17, 4250-4261. DOI: 10.1021/acs.jctc.1c00471
   
   for ddCOSMO and CPCM-X implicit solvation:
   * M. Stahn, S. Ehlert, S. Grimme, J. Phys. Chem. A,
     2023, XX, XXXX-XXXX. DOI: 10.1021/acs.jpca.3c04382
   
   for DFT-D4:
   * E. Caldeweyher, C. Bannwarth and S. Grimme, J. Chem. Phys., 2017,
     147, 034112. DOI: 10.1063/1.4993215
   * E. Caldeweyher, S. Ehlert, A. Hansen, H. Neugebauer, S. Spicher,
     C. Bannwarth and S. Grimme, J. Chem. Phys., 2019, 150, 154122.
     DOI: 10.1063/1.5090222
   * E. Caldeweyher, J.-M. Mewes, S. Ehlert and S. Grimme, Phys. Chem. Chem. Phys.
     2020, 22, 8499-8512. DOI: 10.1039/D0CP00502A
   
   for sTDA-xTB:
   * S. Grimme and C. Bannwarth, J. Chem. Phys., 2016, 145, 054103.
     DOI: 10.1063/1.4959605
   
   in the mass-spec context:
   * V. Asgeirsson, C. Bauer and S. Grimme, Chem. Sci., 2017, 8, 4879.
     DOI: 10.1039/c7sc00601b
   * J. Koopman and S. Grimme, ACS Omega 2019, 4, 12, 15120-15133.
     DOI: 10.1021/acsomega.9b02011
   
   for metadynamics refer to:
   * S. Grimme, J. Chem. Theory Comput., 2019, 155, 2847-2862
     DOI: 10.1021/acs.jctc.9b00143
   
   for SPH calculations refer to:
   * S. Spicher and S. Grimme, J. Chem. Theory Comput., 2021, 17, 1701-1714
     DOI: 10.1021/acs.jctc.0c01306
   
   for ONIOM refer to:
   * C. Plett, A. Katbashev, S. Ehlert, S. Grimme, M. Bursch,
     Phys. Chem. Chem. Phys., 2023, 25, 17860-17868. DOI: 10.1039/D3CP02178E
   
   for DIPRO refer to:
   * J. Kohn, N. Gildemeister, S. Grimme, D. Fazzi, A. Hansen,
     J. Chem. Phys., 2023, just accepted.
   
   for PTB refer to:
   * S. Grimme, M. Mueller, A. Hansen, J. Chem. Phys., 2023, 158, 124111.
     DOI: 10.1063/5.0137838
   
   with help from (in alphabetical order)
   P. Atkinson, C. Bannwarth, F. Bohle, G. Brandenburg, E. Caldeweyher
   M. Checinski, S. Dohm, S. Ehlert, S. Ehrlich, I. Gerasimov, C. Hölzer
   A. Katbashev, J. Kohn, J. Koopman, C. Lavigne, S. Lehtola, F. März, M. Müller,
   F. Musil, H. Neugebauer, J. Pisarek, C. Plett, P. Pracht, F. Pultar,
   J. Seibert, P. Shushkov, S. Spicher, M. Stahn, M. Steiner, T. Strunk,
   J. Stückrath, T. Rose, and J. Unsleber
   
 * started run on 2025/04/11 at 16:16:00.914     
   ID    Z sym.   atoms
    1    6 C      1, 2, 4-13, 15, 16
    2    1 H      3, 19-31
    3    8 O      14, 17, 18

           -------------------------------------------------
          |                Calculation Setup                |
           -------------------------------------------------

          program call               : /srv/scratch/z5358697/.xtb/bin/xtb xtb_rrho.coord --gfn2 --bhess vtight --chrg 0 --enso --norestart -I rrho-xcontrol-inp --parallel 1 --alpb water
          hostname                   : k061
          coordinate file            : xtb_rrho.coord
          omp threads                :                     1


           -------------------------------------------------
          |                 G F N 2 - x T B                 |
           -------------------------------------------------

        Reference                      10.1021/acs.jctc.8b01176
      * Hamiltonian:
        H0-scaling (s, p, d)           1.850000    2.230000    2.230000
        zeta-weighting                 0.500000
      * Dispersion:
        s8                             2.700000
        a1                             0.520000
        a2                             5.000000
        s9                             5.000000
      * Repulsion:
        kExp                           1.500000    1.000000
        rExp                           1.000000
      * Coulomb:
        alpha                          2.000000
        third order                    shell-resolved
        anisotropic                    true
        a3                             3.000000
        a5                             4.000000
        cn-shift                       1.200000
        cn-exp                         4.000000
        max-rad                        5.000000

      * Solvation model:               ALPB
        Solvent                        water
        Parameter file                 internal GFN2-xTB/ALPB
        Dielectric constant                8.0200E+01
        Reference state                gsolv [1 M gas/solution]
        Free energy shift                  1.0808E-03 Eh       6.7819E-01 kcal/mol
        Temperature                        2.9815E+02 K
        Density                            1.0000E+00 kg/L
        Solvent mass                       1.8000E+01 g/mol
        Interaction kernel             P16
        Born radius scaling (c1)           1.4744E+00
        Born radii integrator          GBOBC
        Born offset                        0.0000E+00 a0       0.0000E+00 AA
        H-bond correction              true
        Ion screening                  false
        Surface tension                    1.0000E-05 Eh       1.5569E+01 dyn/cm
        Grid points                               974 per atom

          ...................................................
          :                      SETUP                      :
          :.................................................:
          :  # basis functions                  82          :
          :  # atomic orbitals                  82          :
          :  # shells                           48          :
          :  # electrons                        88          :
          :  max. iterations                   250          :
          :  Hamiltonian                  GFN2-xTB          :
          :  restarted?                      false          :
          :  GBSA solvation                   true          :
          :  PC potential                    false          :
          :  electronic temp.          300.0000000     K    :
          :  accuracy                    1.0000000          :
          :  -> integral cutoff          0.2500000E+02      :
          :  -> integral neglect         0.1000000E-07      :
          :  -> SCF convergence          0.1000000E-05 Eh   :
          :  -> wf. convergence          0.1000000E-03 e    :
          :  Broyden damping             0.4000000          :
          :  net charge                          0          :
          :  unpaired electrons                  0          :
          ...................................................

 iter      E             dE          RMSdq      gap      omega  full diag
   1    -49.9636221 -0.499636E+02  0.455E+00    3.00       0.0  T
   2    -50.0196773 -0.560551E-01  0.251E+00    2.92       1.0  T
   3    -50.0164242  0.325304E-02  0.110E+00    2.94       1.0  T
   4    -50.0255247 -0.910045E-02  0.262E-01    2.91       1.0  T
   5    -50.0265439 -0.101921E-02  0.910E-02    2.93       1.0  T
   6    -50.0266147 -0.707759E-04  0.474E-02    2.93       1.0  T
   7    -50.0266220 -0.730683E-05  0.221E-02    2.93       1.0  T
   8    -50.0266277 -0.568714E-05  0.651E-03    2.93       2.8  T
   9    -50.0266280 -0.318253E-06  0.271E-03    2.93       6.6  T
  10    -50.0266280 -0.203238E-07  0.150E-03    2.93      12.0  T
  11    -50.0266280 -0.234626E-07  0.574E-04    2.93      31.3  T
  12    -50.0266280 -0.191422E-08  0.228E-04    2.93      78.8  T

   *** convergence criteria satisfied after 12 iterations ***

         #    Occupation            Energy/Eh            Energy/eV
      -------------------------------------------------------------
         1        2.0000           -0.7439377             -20.2436
       ...           ...                  ...                  ...
        38        2.0000           -0.4360899             -11.8666
        39        2.0000           -0.4312187             -11.7341
        40        2.0000           -0.4230431             -11.5116
        41        2.0000           -0.4164361             -11.3318
        42        2.0000           -0.4129769             -11.2377
        43        2.0000           -0.3922031             -10.6724
        44        2.0000           -0.3691791             -10.0459 (HOMO)
        45                         -0.2614340              -7.1140 (LUMO)
        46                         -0.2494132              -6.7869
        47                         -0.2252181              -6.1285
        48                         -0.1909059              -5.1948
        49                         -0.1470013              -4.0001
       ...                                ...                  ...
        82                          0.6738354              18.3360
      -------------------------------------------------------------
                  HL-Gap            0.1077452 Eh            2.9319 eV
             Fermi-level           -0.3153065 Eh           -8.5799 eV

 SCC (total)                   0 d,  0 h,  0 min,  0.056 sec
 SCC setup                      ...        0 min,  0.002 sec (  4.231%)
 Dispersion                     ...        0 min,  0.000 sec (  0.600%)
 classical contributions        ...        0 min,  0.000 sec (  0.096%)
 integral evaluation            ...        0 min,  0.005 sec (  8.899%)
 iterations                     ...        0 min,  0.033 sec ( 59.346%)
 molecular gradient             ...        0 min,  0.015 sec ( 26.408%)
 printout                       ...        0 min,  0.000 sec (  0.388%)

         :::::::::::::::::::::::::::::::::::::::::::::::::::::
         ::                     SUMMARY                     ::
         :::::::::::::::::::::::::::::::::::::::::::::::::::::
         :: total energy             -49.344105931858 Eh    ::
         :: total w/o Gsasa/hb       -49.337183362677 Eh    ::
         :: gradient norm              0.038982806474 Eh/a0 ::
         :: HOMO-LUMO gap              2.931895000600 eV    ::
         ::.................................................::
         :: SCC energy               -50.026602269916 Eh    ::
         :: -> isotropic ES            0.081800516426 Eh    ::
         :: -> anisotropic ES          0.003799716705 Eh    ::
         :: -> anisotropic XC          0.016748324401 Eh    ::
         :: -> dispersion             -0.030378714650 Eh    ::
         :: -> Gsolv                  -0.018233237104 Eh    ::
         ::    -> Gelec               -0.011310667924 Eh    ::
         ::    -> Gsasa                0.001690334385 Eh    ::
         ::    -> Ghb                 -0.009693663263 Eh    ::
         ::    -> Gshift               0.001080759698 Eh    ::
         :: repulsion energy           0.682496338058 Eh    ::
         :: add. restraining           0.000000000000 Eh    ::
         :: total charge               0.000000000000 e     ::
         :::::::::::::::::::::::::::::::::::::::::::::::::::::

metadynamics with 1 initial structures loaded
           -------------------------------------------------
          |           Optimal kpush determination           |
           -------------------------------------------------
      ----------------------------------------------------------- 
     |                   =====================                   |
     |                        A N C O P T                        |
     |                   =====================                   |
     |               Approximate Normal Coordinate               |
     |                Rational Function Optimizer                |
      ----------------------------------------------------------- 
target rmsd / Å         0.100000
unbiased initial rmsd   0.080254
 
iter. min.        max.        rmsd       kpush
final kpush:  0.000000
           -------------------------------------------------
          |            Biased Numerical Hessian             |
           -------------------------------------------------
kpush                :   0.00000
alpha                :   1.00000
step length          :   0.00500
SCC accuracy         :   0.30000
Hessian scale factor :   1.00000
frozen atoms in %    :   0.00000    0
RMS gradient         :   0.00008
estimated CPU  time      0.09 min
estimated wall time      0.09 min

writing file <hessian>.

 projected vibrational frequencies (cm⁻¹)
eigval :       -0.00    -0.00    -0.00     0.00     0.00     0.00
eigval :       27.69    35.48    48.00    77.66   105.28   135.08
eigval :      163.72   167.04   182.43   220.28   227.21   255.92
eigval :      288.25   337.90   370.51   378.66   402.09   445.62
eigval :      450.65   501.91   511.30   546.47   567.04   599.79
eigval :      631.07   638.54   665.03   714.40   723.69   769.97
eigval :      794.98   830.47   840.28   859.46   865.34   888.41
eigval :      905.61   915.11   924.68   951.15  1036.04  1049.65
eigval :     1067.95  1097.90  1113.85  1116.70  1137.16  1147.86
eigval :     1162.61  1169.13  1182.37  1189.24  1216.53  1249.15
eigval :     1257.32  1278.80  1306.42  1329.37  1367.77  1390.07
eigval :     1399.07  1403.72  1424.82  1456.82  1461.08  1471.35
eigval :     1479.30  1488.26  1504.02  1556.99  1602.87  1609.15
eigval :     1712.52  2944.68  2956.20  2967.57  3034.44  3038.19
eigval :     3049.86  3053.86  3073.74  3076.53  3078.22  3089.20
eigval :     3097.32  3109.74  3334.81
           -------------------------------------------------
          |                Property Printout                |
           -------------------------------------------------

    * Orbital Energies and Occupations

         #    Occupation            Energy/Eh            Energy/eV
      -------------------------------------------------------------
         1        2.0000           -0.7470443             -20.3281
       ...           ...                  ...                  ...
        32        2.0000           -0.4684282             -12.7466
        33        2.0000           -0.4670126             -12.7081
        34        2.0000           -0.4647489             -12.6465
        35        2.0000           -0.4609301             -12.5425
        36        2.0000           -0.4485758             -12.2064
        37        2.0000           -0.4425876             -12.0434
        38        2.0000           -0.4362836             -11.8719
        39        2.0000           -0.4305670             -11.7163
        40        2.0000           -0.4214780             -11.4690
        41        2.0000           -0.4160646             -11.3217
        42        2.0000           -0.4108585             -11.1800
        43        2.0000           -0.3928790             -10.6908
        44        2.0000           -0.3688958             -10.0382 (HOMO)
        45                         -0.2599714              -7.0742 (LUMO)
        46                         -0.2421622              -6.5896
        47                         -0.2212438              -6.0204
        48                         -0.1887233              -5.1354
        49                         -0.1432326              -3.8976
        50                         -0.0563423              -1.5332
        51                          0.0236046               0.6423
        52                          0.0514844               1.4010
        53                          0.0840178               2.2862
        54                          0.1068709               2.9081
        55                          0.1203770               3.2756
       ...                                ...                  ...
        82                          0.6961706              18.9438
      -------------------------------------------------------------
                  HL-Gap            0.1089244 Eh            2.9640 eV
             Fermi-level           -0.3144336 Eh           -8.5562 eV

     #   Z          covCN         q      C6AA      α(0)
     1   6 C        3.756    -0.113    22.716     6.796
     2   6 C        3.858    -0.045    21.345     6.571
     3   1 H        0.924     0.071     2.073     2.251
     4   6 C        2.978     0.010    27.796     8.648
     5   6 C        2.919    -0.041    29.018     8.834
     6   6 C        2.917    -0.042    29.042     8.837
     7   6 C        2.986     0.011    27.773     8.645
     8   6 C        2.920    -0.072    29.791     8.951
     9   6 C        2.858     0.140    24.937     8.185
    10   6 C        2.914    -0.066    29.641     8.928
    11   6 C        2.919    -0.041    29.018     8.834
    12   6 C        2.986     0.002    27.964     8.674
    13   6 C        2.922    -0.043    29.079     8.843
    14   8 O        1.705    -0.304    19.067     5.895
    15   6 C        3.640     0.022    20.559     6.521
    16   6 C        2.701     0.371    20.711     7.449
    17   8 O        0.856    -0.484    23.427     6.489
    18   8 O        1.659    -0.420    21.236     6.221
    19   1 H        0.925     0.054     2.265     2.354
    20   1 H        0.925     0.060     2.200     2.320
    21   1 H        0.925     0.051     2.312     2.378
    22   1 H        0.926     0.047     2.358     2.402
    23   1 H        0.926     0.046     2.369     2.407
    24   1 H        0.926     0.049     2.332     2.388
    25   1 H        0.926     0.050     2.325     2.384
    26   1 H        0.926     0.045     2.384     2.415
    27   1 H        0.926     0.038     2.476     2.461
    28   1 H        0.925     0.080     1.980     2.201
    29   1 H        0.924     0.054     2.273     2.358
    30   1 H        0.924     0.054     2.269     2.356
    31   1 H        0.803     0.416     0.456     1.060

 Mol. C6AA /au·bohr⁶  :      11155.825294
 Mol. C8AA /au·bohr⁸  :     267702.949032
 Mol. α(0) /au        :        165.051933


Wiberg/Mayer (AO) data.
largest (>0.10) Wiberg bond orders for each atom

 ---------------------------------------------------------------------------
     #   Z sym  total        # sym  WBO       # sym  WBO       # sym  WBO
 ---------------------------------------------------------------------------
     1   6 C    3.988 --     2 C    0.992    21 H    0.985    20 H    0.985
                            19 H    0.984
     2   6 C    3.990 --     1 C    0.992     4 C    0.963     3 H    0.959
                            16 C    0.959
     3   1 H    0.995 --     2 C    0.959
     4   6 C    3.977 --    13 C    1.523     5 C    1.292     2 C    0.963
     5   6 C    3.990 --     6 C    1.566     4 C    1.292    22 H    0.967
     6   6 C    3.989 --     5 C    1.566     7 C    1.269    23 H    0.967
                            13 C    0.115
     7   6 C    3.989 --     8 C    1.306     6 C    1.269    12 C    1.240
     8   6 C    3.985 --     9 C    1.451     7 C    1.306    24 H    0.966
                            11 C    0.115
     9   6 C    3.930 --     8 C    1.451    10 C    1.273    14 O    1.056
    10   6 C    3.988 --    11 C    1.555     9 C    1.273    25 H    0.964
    11   6 C    3.989 --    10 C    1.555    12 C    1.281    26 H    0.967
                             8 C    0.115
    12   6 C    3.991 --    13 C    1.284    11 C    1.281     7 C    1.240
    13   6 C    3.991 --     4 C    1.523    12 C    1.284    27 H    0.965
                             6 C    0.115
    14   8 O    2.200 --     9 C    1.056    15 C    0.971
    15   6 C    3.931 --    28 H    0.978    29 H    0.977    30 H    0.977
                            14 O    0.971
    16   6 C    3.901 --    17 O    1.704    18 O    1.177     2 C    0.959
    17   8 O    1.977 --    16 C    1.704    18 O    0.171
    18   8 O    2.181 --    16 C    1.177    31 H    0.801    17 O    0.171
    19   1 H    0.997 --     1 C    0.984
    20   1 H    0.996 --     1 C    0.985
    21   1 H    0.997 --     1 C    0.985
    22   1 H    0.997 --     5 C    0.967
    23   1 H    0.997 --     6 C    0.967
    24   1 H    0.997 --     8 C    0.966
    25   1 H    0.997 --    10 C    0.964
    26   1 H    0.997 --    11 C    0.967
    27   1 H    0.998 --    13 C    0.965
    28   1 H    0.993 --    15 C    0.978
    29   1 H    0.996 --    15 C    0.977
    30   1 H    0.996 --    15 C    0.977
    31   1 H    0.826 --    18 O    0.801
 ---------------------------------------------------------------------------

Topologies differ in total number of bonds
Writing topology from bond orders to xtbtopo.mol

molecular dipole:
                 x           y           z       tot (Debye)
 q only:        0.413      -0.017       0.427
   full:        0.384       0.168       0.322       1.345
molecular quadrupole (traceless):
                xx          xy          yy          xz          yz          zz
 q only:        7.038       4.239      -0.190     -16.609       3.128      -6.848
  q+dip:        9.120       3.595      -2.635     -17.628       0.149      -6.484
   full:        8.244       3.626      -0.128     -17.904       2.540      -8.117

           -------------------------------------------------
          |                Geometry Summary                 |
           -------------------------------------------------

      molecular mass/u    :      230.2596879
   center of mass at/Å    :        0.0003516      -0.0002509       0.0003024
  moments of inertia/u·Å² :        0.4064410E+03   0.2343668E+04   0.2491858E+04
rotational constants/cm⁻¹ :        0.4147621E-01   0.7192841E-02   0.6765087E-02

 * 30 selected distances

     #   Z          #   Z                                           value/Å
     1   6 C        2   6 C                                       1.5285347 (max)
     2   6 C        3   1 H                                       1.0926165
     4   6 C        5   6 C                                       1.4086393
     5   6 C        6   6 C                                       1.3654228
     6   6 C        7   6 C                                       1.4119084
     7   6 C        8   6 C                                       1.4039457
     8   6 C        9   6 C                                       1.3779180
     9   6 C       10   6 C                                       1.4095216
    10   6 C       11   6 C                                       1.3672650
     7   6 C       12   6 C                                       1.4201975
    11   6 C       12   6 C                                       1.4083227
     4   6 C       13   6 C                                       1.3708783
    12   6 C       13   6 C                                       1.4087882
     9   6 C       14   8 O                                       1.3652946
    14   8 O       15   6 C                                       1.4151350
    16   6 C       17   8 O                                       1.2117502
    16   6 C       18   8 O                                       1.3239788
     1   6 C       19   1 H                                       1.0865929
     1   6 C       20   1 H                                       1.0860968
     1   6 C       21   1 H                                       1.0870288
     5   6 C       22   1 H                                       1.0796983
     6   6 C       23   1 H                                       1.0796531
     8   6 C       24   1 H                                       1.0790230
    10   6 C       25   1 H                                       1.0779637
    11   6 C       26   1 H                                       1.0800927
    13   6 C       27   1 H                                       1.0809850
    15   6 C       28   1 H                                       1.0877075
    15   6 C       29   1 H                                       1.0931062
    15   6 C       30   1 H                                       1.0930712
    18   8 O       31   1 H                                       0.9772298 (min)

 * 4 distinct bonds (by element types)

   Z      Z             #   av. dist./Å        max./Å        min./Å
   1 H    6 C          13     1.0848951     1.0931062     1.0779637
   6 C    6 C          12     1.4067785     1.5285347     1.3654228
   1 H    8 O           1     0.9772298     0.9772298     0.9772298
   6 C    8 O           4     1.3290396     1.4151350     1.2117502

           -------------------------------------------------
          |               Frequency Printout                |
           -------------------------------------------------
 projected vibrational frequencies (cm⁻¹)
eigval :       -0.00    -0.00    -0.00     0.00     0.00     0.00
eigval :       27.69    35.48    48.00    77.66   105.28   135.08
eigval :      163.72   167.04   182.43   220.28   227.21   255.92
eigval :      288.25   337.90   370.51   378.66   402.09   445.62
eigval :      450.65   501.91   511.30   546.47   567.04   599.79
eigval :      631.07   638.54   665.03   714.40   723.69   769.97
eigval :      794.98   830.47   840.28   859.46   865.34   888.41
eigval :      905.61   915.11   924.68   951.15  1036.04  1049.65
eigval :     1067.95  1097.90  1113.85  1116.70  1137.16  1147.86
eigval :     1162.61  1169.13  1182.37  1189.24  1216.53  1249.15
eigval :     1257.32  1278.80  1306.42  1329.37  1367.77  1390.07
eigval :     1399.07  1403.72  1424.82  1456.82  1461.08  1471.35
eigval :     1479.30  1488.26  1504.02  1556.99  1602.87  1609.15
eigval :     1712.52  2944.68  2956.20  2967.57  3034.44  3038.19
eigval :     3049.86  3053.86  3073.74  3076.53  3078.22  3089.20
eigval :     3097.32  3109.74  3334.81
 reduced masses (amu)
   1: 11.26   2: 12.12   3: 11.86   4: 11.89   5: 12.40   6: 12.92   7: 11.37   8: 13.31
   9: 12.86  10: 11.61  11: 11.98  12: 10.35  13:  2.90  14:  8.58  15:  9.95  16:  8.59
  17:  6.91  18:  8.29  19: 11.36  20: 11.59  21:  9.66  22: 10.99  23: 10.98  24:  9.09
  25: 10.99  26: 11.07  27: 10.70  28: 10.36  29:  9.97  30:  6.96  31: 10.64  32:  9.73
  33: 10.54  34: 11.46  35: 11.57  36: 10.65  37:  4.98  38:  4.95  39:  9.68  40:  8.38
  41:  3.74  42:  3.43  43:  3.32  44:  3.61  45: 10.12  46:  9.14  47:  5.29  48: 10.86
  49:  5.36  50:  9.37  51:  3.69  52:  8.36  53:  5.56  54:  6.15  55:  3.91  56:  5.70
  57:  2.69  58:  6.73  59:  5.24  60:  8.25  61:  4.51  62:  8.85  63:  6.97  64:  7.37
  65: 10.31  66:  3.24  67:  5.83  68:  6.57  69: 11.39  70:  9.11  71:  1.54  72:  2.08
  73:  1.75  74:  1.62  75: 10.84  76: 11.69  77: 11.54  78: 11.52  79: 13.27  80:  1.96
  81:  1.44  82:  1.76  83:  1.70  84:  1.85  85:  1.88  86:  1.42  87:  1.82  88:  1.77
  89:  1.80  90:  1.88  91:  1.82  92:  1.85  93:  1.85
 IR intensities (km·mol⁻¹)
   1:  0.02   2:  0.01   3:  0.08   4:  0.01   5:  0.00   6:  0.06   7:  1.43   8:  3.17
   9:  4.47  10:  3.15  11:  2.26  12:  1.52  13:  0.15  14:  1.05  15:  3.89  16:  1.23
  17:  1.65  18:  0.63  19:  4.47  20:  1.46  21:  0.46  22:  4.59  23:  2.00  24:  8.64
  25: 12.11  26:  4.77  27:  3.46  28: 45.04  29: 38.44  30:123.28  31: 32.70  32: 49.45
  33: 18.30  34: 50.78  35:107.04  36:  0.64  37: 14.29  38: 26.21  39:  5.17  40: 26.87
  41: 12.31  42:  3.94  43:  0.66  44:  0.77  45: 76.49  46:  3.70  47: 38.42  48: 92.70
  49: 76.44  50:195.64  51:  3.06  52:112.80  53: 11.16  54:296.72  55: 64.41  56: 11.46
  57: 11.24  58:126.53  59: 70.33  60:219.95  61: 38.91  62:227.79  63: 85.61  64:  6.35
  65: 76.57  66:  6.77  67:  8.22  68: 17.56  69: 10.82  70:111.96  71:  7.37  72:  6.86
  73:  0.39  74:  2.96  75: 75.06  76:  2.89  77:187.02  78: 14.99  79:709.85  80: 46.37
  81: 55.18  82: 28.58  83: 17.87  84: 62.16  85: 32.09  86: 21.22  87: 30.53  88: 37.69
  89: 90.96  90: 96.07  91: 77.52  92: 62.80  93:182.90
 Raman intensities (Ä⁴*amu⁻¹)
   1:  0.00   2:  0.00   3:  0.00   4:  0.00   5:  0.00   6:  0.00   7:  0.00   8:  0.00
   9:  0.00  10:  0.00  11:  0.00  12:  0.00  13:  0.00  14:  0.00  15:  0.00  16:  0.00
  17:  0.00  18:  0.00  19:  0.00  20:  0.00  21:  0.00  22:  0.00  23:  0.00  24:  0.00
  25:  0.00  26:  0.00  27:  0.00  28:  0.00  29:  0.00  30:  0.00  31:  0.00  32:  0.00
  33:  0.00  34:  0.00  35:  0.00  36:  0.00  37:  0.00  38:  0.00  39:  0.00  40:  0.00
  41:  0.00  42:  0.00  43:  0.00  44:  0.00  45:  0.00  46:  0.00  47:  0.00  48:  0.00
  49:  0.00  50:  0.00  51:  0.00  52:  0.00  53:  0.00  54:  0.00  55:  0.00  56:  0.00
  57:  0.00  58:  0.00  59:  0.00  60:  0.00  61:  0.00  62:  0.00  63:  0.00  64:  0.00
  65:  0.00  66:  0.00  67:  0.00  68:  0.00  69:  0.00  70:  0.00  71:  0.00  72:  0.00
  73:  0.00  74:  0.00  75:  0.00  76:  0.00  77:  0.00  78:  0.00  79:  0.00  80:  0.00
  81:  0.00  82:  0.00  83:  0.00  84:  0.00  85:  0.00  86:  0.00  87:  0.00  88:  0.00
  89:  0.00  90:  0.00  91:  0.00  92:  0.00  93:  0.00
 output can be read by thermo (or use thermo option).
 writing <g98.out> molden fake output.
 recommended (thermochemical) frequency scaling factor: 1.0
           -------------------------------------------------
          |             Thermodynamic Functions             |
           -------------------------------------------------

Molecule has no symmetry elements
It seems to be the C1 point group
c1  symmetry found (for desy threshold:  0.10E+00) used in thermo

          ...................................................
          :                      SETUP                      :
          :.................................................:
          :  # frequencies                          87      :
          :  # imaginary freq.                       0      :
          :  linear?                             false      :
          :  only rotor calc.                    false      :
          :  symmetry                               c1      :
          :  rotational number                       1      :
          :  scaling factor                  1.0000000      :
          :  rotor cutoff                    0.0000000 cm⁻¹ :
          :  imag. cutoff                 -100.0000000 cm⁻¹ :
          :.................................................:

    mode    ω/cm⁻¹     T·S(HO)/kcal·mol⁻¹    T·S(FR)/kcal·mol⁻¹   T·S(vib)
   ------------------------------------------------------------------------
       1     27.69    -1.78536 (100.00%)    -1.23148 (  0.00%)    -1.78536
       2     35.48    -1.63888 (100.00%)    -1.15812 (  0.00%)    -1.63888
       3     48.00    -1.46038 (100.00%)    -1.06859 (  0.00%)    -1.46038
       4     77.66    -1.17746 (100.00%)    -0.92609 (  0.00%)    -1.17746
       5    105.28    -1.00002 (100.00%)    -0.83593 (  0.00%)    -1.00002
       6    135.08    -0.85642 (100.00%)    -0.76211 (  0.00%)    -0.85642
       7    163.72    -0.74729 (100.00%)    -0.70516 (  0.00%)    -0.74729
       8    167.04    -0.73601 (100.00%)    -0.69921 (  0.00%)    -0.73601
       9    182.43    -0.68675 (100.00%)    -0.67309 (  0.00%)    -0.68675
      10    220.28    -0.58342 (100.00%)    -0.61725 (  0.00%)    -0.58342
      11    227.21    -0.56675 (100.00%)    -0.60808 (  0.00%)    -0.56675
      12    255.92    -0.50371 (100.00%)    -0.57283 (  0.00%)    -0.50371
      13    288.25    -0.44251 (100.00%)    -0.53758 (  0.00%)    -0.44251
   ------------------------------------------------------------------------

   temp. (K)  partition function   enthalpy   heat capacity  entropy
                                   cal/mol     cal/K/mol   cal/K/mol   J/K/mol
 298.15  VIB  0.613E+06             8245.272     54.878     54.138
         ROT  0.372E+07              888.752      2.981     33.048
         INT  0.228E+13             9134.024     57.859     87.186
         TR   0.338E+28             1481.254      4.968     42.185
         TOT                       10615.2784    62.8273   129.3706   541.2868

       T/K    H(0)-H(T)+PV         H(T)/Eh          T*S/Eh         G(T)/Eh
   ------------------------------------------------------------------------
    298.15    0.169165E-01    0.259096E+00    0.614682E-01    0.197628E+00
   ------------------------------------------------------------------------

         :::::::::::::::::::::::::::::::::::::::::::::::::::::
         ::                  THERMODYNAMIC                  ::
         :::::::::::::::::::::::::::::::::::::::::::::::::::::
         :: total free energy         -49.149159448006 Eh   ::
         ::.................................................::
         :: total energy              -49.346787008950 Eh   ::
         :: zero point energy           0.242179206108 Eh   ::
         :: G(RRHO) w/o ZPVE           -0.044551645164 Eh   ::
         :: G(RRHO) contrib.            0.197627560944 Eh   ::
         :::::::::::::::::::::::::::::::::::::::::::::::::::::

optimized geometry written to: xtbopt.coord


           -------------------------------------------------
          | TOTAL ENERGY              -49.346787008950 Eh   |
          | TOTAL ENTHALPY            -49.087691279937 Eh   |
          | TOTAL FREE ENERGY         -49.149159448006 Eh   |
          | GRADIENT NORM               0.000076845044 Eh/α |
          | HOMO-LUMO GAP               2.963984034247 eV   |
           -------------------------------------------------

------------------------------------------------------------------------
 * finished run on 2025/04/11 at 16:16:07.561     
------------------------------------------------------------------------
 total:
 * wall-time:     0 d,  0 h,  0 min,  6.647 sec
 *  cpu-time:     0 d,  0 h,  0 min,  6.525 sec
 * ratio c/w:     0.982 speedup
 SCF:
 * wall-time:     0 d,  0 h,  0 min,  0.056 sec
 *  cpu-time:     0 d,  0 h,  0 min,  0.044 sec
 * ratio c/w:     0.785 speedup
 analytical hessian:
 * wall-time:     0 d,  0 h,  0 min,  5.665 sec
 *  cpu-time:     0 d,  0 h,  0 min,  5.625 sec
 * ratio c/w:     0.993 speedup

