20
 energy: -386.243891076980 gnorm: 0.001274335508 xtb: 6.7.1 (edcfbbe)
C           -2.40211832027883       -1.35601345968896       -0.32697833451369
C           -2.55583817951112        0.10592377894336        0.08113136508683
C           -1.32445940801438        0.63114231298029        0.83057832053438
C           -0.10485662505232        0.61016455825875       -0.04821822569657
O           -0.04532022206979        1.13284178800125       -1.15130706593437
O            0.92605856921458       -0.05026722022720        0.50653300638235
C            2.15865386501050       -0.10986736095772       -0.28061009658479
C            3.15281425329443       -0.92229738894988        0.50910068112072
H           -2.24697869472512       -1.99349571354121        0.55054050191869
H           -3.29303702704335       -1.71455374862807       -0.85178147190029
H           -1.54461988083303       -1.49370640425908       -0.99684893085888
H           -3.42676871951820        0.22459446668737        0.73426853376554
H           -2.73143456439376        0.72970079467362       -0.80236215147967
H           -1.14106716017721        0.04738492997819        1.73613524968615
H           -1.48143327026692        1.67599288120444        1.12477646936287
H            1.92810951582337       -0.57068943904912       -1.24582266694082
H            2.50667356418305        0.91374677232950       -0.44984603117013
H            3.36295785643503       -0.45768616437395        1.47698022485640
H            2.78712155371979       -1.94008546081785        0.67430429268380
H            4.08940371052616       -0.98154646673010       -0.05340491859152
20
 energy: -386.243892984955 gnorm: 0.000503609715 xtb: 6.7.1 (edcfbbe)
C           -2.40221795624031       -1.35572762179032       -0.32729643399105
C           -2.55591382288381        0.10589010461192        0.08091545003914
C           -1.32438383350643        0.63048028988997        0.83032737530138
C           -0.10439735688963        0.61181060465998       -0.04800048055623
O           -0.04435645847888        1.13414672872222       -1.15081267042984
O            0.92611360896569       -0.04983104121253        0.50683186855508
C            2.15897351917112       -0.11053970269334       -0.28110418451012
C            3.15309351253758       -0.92195750311643        0.50929930658127
H           -2.24599470276994       -1.99277135129395        0.55005791601147
H           -3.29365540373680       -1.71419799359861       -0.85086363782824
H           -1.54558808328758       -1.49307973653142       -0.99794868179791
H           -3.42645509384278        0.22408464265548        0.73440891613479
H           -2.73163635915645        0.72970195191873       -0.80224093845855
H           -1.14059602404790        0.04536584389459        1.73489554236466
H           -1.48203195320037        1.67478926925113        1.12600026268909
H            1.92729803677530       -0.57221456014662       -1.24540822400378
H            2.50644595640134        0.91283068171502       -0.45166042808245
H            3.36275905909495       -0.45605400760048        1.47634235544177
H            2.78666929239490       -1.93891885626684        0.67608572441217
H            4.08973483568542       -0.98252454716539       -0.05266044043506
20
 energy: -386.243892984955 gnorm: 0.000503609715 xtb: 6.7.1 (edcfbbe)
C           -2.40221795624031       -1.35572762179032       -0.32729643399105
C           -2.55591382288381        0.10589010461192        0.08091545003914
C           -1.32438383350643        0.63048028988997        0.83032737530138
C           -0.10439735688963        0.61181060465998       -0.04800048055623
O           -0.04435645847888        1.13414672872222       -1.15081267042984
O            0.92611360896569       -0.04983104121253        0.50683186855508
C            2.15897351917112       -0.11053970269334       -0.28110418451012
C            3.15309351253758       -0.92195750311643        0.50929930658127
H           -2.24599470276994       -1.99277135129395        0.55005791601147
H           -3.29365540373680       -1.71419799359861       -0.85086363782824
H           -1.54558808328758       -1.49307973653142       -0.99794868179791
H           -3.42645509384278        0.22408464265548        0.73440891613479
H           -2.73163635915645        0.72970195191873       -0.80224093845855
H           -1.14059602404790        0.04536584389459        1.73489554236466
H           -1.48203195320037        1.67478926925113        1.12600026268909
H            1.92729803677530       -0.57221456014662       -1.24540822400378
H            2.50644595640134        0.91283068171502       -0.45166042808245
H            3.36275905909495       -0.45605400760048        1.47634235544177
H            2.78666929239490       -1.93891885626684        0.67608572441217
H            4.08973483568542       -0.98252454716539       -0.05266044043506
