      -----------------------------------------------------------      
     |                   =====================                   |     
     |                           x T B                           |     
     |                   =====================                   |     
     |                         S. Grimme                         |     
     |          Mulliken Center for Theoretical Chemistry        |     
     |                    University of Bonn                     |     
      -----------------------------------------------------------      

   * xtb version 6.7.1 (edcfbbe) compiled by 'albert@albert-system' on 2024-07-22

   xtb is free software: you can redistribute it and/or modify it under
   the terms of the GNU Lesser General Public License as published by
   the Free Software Foundation, either version 3 of the License, or
   (at your option) any later version.
   
   xtb is distributed in the hope that it will be useful,
   but WITHOUT ANY WARRANTY; without even the implied warranty of
   MERCHANTABILITY or FITNESS FOR A PARTICULAR PURPOSE.  See the
   GNU Lesser General Public License for more details.
   
   Cite this work as:
   * C. Bannwarth, E. Caldeweyher, S. Ehlert, A. Hansen, P. Pracht,
     J. Seibert, S. Spicher, S. Grimme, WIREs Comput. Mol. Sci., 2020, 11,
     e01493. DOI: 10.1002/wcms.1493
   
   for GFN2-xTB:
   * C. Bannwarth, S. Ehlert and S. Grimme., J. Chem. Theory Comput., 2019,
     15, 1652-1671. DOI: 10.1021/acs.jctc.8b01176
   for GFN1-xTB:
   * S. Grimme, C. Bannwarth, P. Shushkov, J. Chem. Theory Comput., 2017,
     13, 1989-2009. DOI: 10.1021/acs.jctc.7b00118
   for GFN0-xTB:
   * P. Pracht, E. Caldeweyher, S. Ehlert, S. Grimme, ChemRxiv, 2019, preprint.
     DOI: 10.26434/chemrxiv.8326202.v1
   for GFN-FF:
   * S. Spicher and S. Grimme, Angew. Chem. Int. Ed., 2020, 59, 15665-15673.
     DOI: 10.1002/anie.202004239
   
   for ALPB and GBSA implicit solvation:
   * S. Ehlert, M. Stahn, S. Spicher, S. Grimme, J. Chem. Theory Comput.,
     2021, 17, 4250-4261. DOI: 10.1021/acs.jctc.1c00471
   
   for ddCOSMO and CPCM-X implicit solvation:
   * M. Stahn, S. Ehlert, S. Grimme, J. Phys. Chem. A,
     2023, XX, XXXX-XXXX. DOI: 10.1021/acs.jpca.3c04382
   
   for DFT-D4:
   * E. Caldeweyher, C. Bannwarth and S. Grimme, J. Chem. Phys., 2017,
     147, 034112. DOI: 10.1063/1.4993215
   * E. Caldeweyher, S. Ehlert, A. Hansen, H. Neugebauer, S. Spicher,
     C. Bannwarth and S. Grimme, J. Chem. Phys., 2019, 150, 154122.
     DOI: 10.1063/1.5090222
   * E. Caldeweyher, J.-M. Mewes, S. Ehlert and S. Grimme, Phys. Chem. Chem. Phys.
     2020, 22, 8499-8512. DOI: 10.1039/D0CP00502A
   
   for sTDA-xTB:
   * S. Grimme and C. Bannwarth, J. Chem. Phys., 2016, 145, 054103.
     DOI: 10.1063/1.4959605
   
   in the mass-spec context:
   * V. Asgeirsson, C. Bauer and S. Grimme, Chem. Sci., 2017, 8, 4879.
     DOI: 10.1039/c7sc00601b
   * J. Koopman and S. Grimme, ACS Omega 2019, 4, 12, 15120-15133.
     DOI: 10.1021/acsomega.9b02011
   
   for metadynamics refer to:
   * S. Grimme, J. Chem. Theory Comput., 2019, 155, 2847-2862
     DOI: 10.1021/acs.jctc.9b00143
   
   for SPH calculations refer to:
   * S. Spicher and S. Grimme, J. Chem. Theory Comput., 2021, 17, 1701-1714
     DOI: 10.1021/acs.jctc.0c01306
   
   for ONIOM refer to:
   * C. Plett, A. Katbashev, S. Ehlert, S. Grimme, M. Bursch,
     Phys. Chem. Chem. Phys., 2023, 25, 17860-17868. DOI: 10.1039/D3CP02178E
   
   for DIPRO refer to:
   * J. Kohn, N. Gildemeister, S. Grimme, D. Fazzi, A. Hansen,
     J. Chem. Phys., 2023, just accepted.
   
   for PTB refer to:
   * S. Grimme, M. Mueller, A. Hansen, J. Chem. Phys., 2023, 158, 124111.
     DOI: 10.1063/5.0137838
   
   with help from (in alphabetical order)
   P. Atkinson, C. Bannwarth, F. Bohle, G. Brandenburg, E. Caldeweyher
   M. Checinski, S. Dohm, S. Ehlert, S. Ehrlich, I. Gerasimov, C. Hölzer
   A. Katbashev, J. Kohn, J. Koopman, C. Lavigne, S. Lehtola, F. März, M. Müller,
   F. Musil, H. Neugebauer, J. Pisarek, C. Plett, P. Pracht, F. Pultar,
   J. Seibert, P. Shushkov, S. Spicher, M. Stahn, M. Steiner, T. Strunk,
   J. Stückrath, T. Rose, and J. Unsleber
   
 * started run on 2025/04/11 at 15:54:53.597     
   ID    Z sym.   atoms
    1    6 C      1, 2, 4-13, 15, 16
    2    1 H      3, 19-31
    3    8 O      14, 17, 18

           -------------------------------------------------
          |                Calculation Setup                |
           -------------------------------------------------

          program call               : /srv/scratch/z5358697/.xtb/bin/xtb gas.coord --gfn2 --sp --chrg 0 --norestart --parallel 1
          hostname                   : k061
          coordinate file            : gas.coord
          omp threads                :                     1


           -------------------------------------------------
          |                 G F N 2 - x T B                 |
           -------------------------------------------------

        Reference                      10.1021/acs.jctc.8b01176
      * Hamiltonian:
        H0-scaling (s, p, d)           1.850000    2.230000    2.230000
        zeta-weighting                 0.500000
      * Dispersion:
        s8                             2.700000
        a1                             0.520000
        a2                             5.000000
        s9                             5.000000
      * Repulsion:
        kExp                           1.500000    1.000000
        rExp                           1.000000
      * Coulomb:
        alpha                          2.000000
        third order                    shell-resolved
        anisotropic                    true
        a3                             3.000000
        a5                             4.000000
        cn-shift                       1.200000
        cn-exp                         4.000000
        max-rad                        5.000000


          ...................................................
          :                      SETUP                      :
          :.................................................:
          :  # basis functions                  82          :
          :  # atomic orbitals                  82          :
          :  # shells                           48          :
          :  # electrons                        88          :
          :  max. iterations                   250          :
          :  Hamiltonian                  GFN2-xTB          :
          :  restarted?                      false          :
          :  GBSA solvation                  false          :
          :  PC potential                    false          :
          :  electronic temp.          300.0000000     K    :
          :  accuracy                    1.0000000          :
          :  -> integral cutoff          0.2500000E+02      :
          :  -> integral neglect         0.1000000E-07      :
          :  -> SCF convergence          0.1000000E-05 Eh   :
          :  -> wf. convergence          0.1000000E-03 e    :
          :  Broyden damping             0.4000000          :
          :  net charge                          0          :
          :  unpaired electrons                  0          :
          ...................................................

 iter      E             dE          RMSdq      gap      omega  full diag
   1    -49.9716518 -0.499717E+02  0.440E+00    2.96       0.0  T
   2    -50.0340214 -0.623697E-01  0.249E+00    2.96       1.0  T
   3    -50.0295743  0.444714E-02  0.123E+00    2.96       1.0  T
   4    -50.0419949 -0.124206E-01  0.330E-01    2.95       1.0  T
   5    -50.0441600 -0.216510E-02  0.110E-01    2.97       1.0  T
   6    -50.0443523 -0.192287E-03  0.544E-02    2.96       1.0  T
   7    -50.0443714 -0.191290E-04  0.276E-02    2.96       1.0  T
   8    -50.0443834 -0.119723E-04  0.803E-03    2.96       2.2  T
   9    -50.0443838 -0.392717E-06  0.306E-03    2.96       5.9  T
  10    -50.0443838 -0.821606E-07  0.159E-03    2.96      11.3  T
  11    -50.0443839 -0.284560E-07  0.613E-04    2.96      29.3  T
  12    -50.0443839 -0.180965E-08  0.253E-04    2.96      71.0  T

   *** convergence criteria satisfied after 12 iterations ***

         #    Occupation            Energy/Eh            Energy/eV
      -------------------------------------------------------------
         1        2.0000           -0.7465247             -20.3140
       ...           ...                  ...                  ...
        38        2.0000           -0.4359615             -11.8631
        39        2.0000           -0.4277544             -11.6398
        40        2.0000           -0.4200566             -11.4303
        41        2.0000           -0.4143040             -11.2738
        42        2.0000           -0.4074324             -11.0868
        43        2.0000           -0.3917482             -10.6600
        44        2.0000           -0.3673054              -9.9949 (HOMO)
        45                         -0.2585002              -7.0341 (LUMO)
        46                         -0.2360974              -6.4245
        47                         -0.2186114              -5.9487
        48                         -0.1871789              -5.0934
        49                         -0.1418985              -3.8613
       ...                                ...                  ...
        82                          0.6975275              18.9807
      -------------------------------------------------------------
                  HL-Gap            0.1088052 Eh            2.9607 eV
             Fermi-level           -0.3129028 Eh           -8.5145 eV

 SCC (total)                   0 d,  0 h,  0 min,  0.042 sec
 SCC setup                      ...        0 min,  0.001 sec (  1.269%)
 Dispersion                     ...        0 min,  0.001 sec (  1.438%)
 classical contributions        ...        0 min,  0.000 sec (  0.262%)
 integral evaluation            ...        0 min,  0.005 sec ( 12.823%)
 iterations                     ...        0 min,  0.019 sec ( 46.287%)
 molecular gradient             ...        0 min,  0.016 sec ( 37.279%)
 printout                       ...        0 min,  0.000 sec (  0.582%)

         :::::::::::::::::::::::::::::::::::::::::::::::::::::
         ::                     SUMMARY                     ::
         :::::::::::::::::::::::::::::::::::::::::::::::::::::
         :: total energy             -49.331894355817 Eh    ::
         :: gradient norm              0.030485409523 Eh/a0 ::
         :: HOMO-LUMO gap              2.960741100028 eV    ::
         ::.................................................::
         :: SCC energy               -50.044358365424 Eh    ::
         :: -> isotropic ES            0.065401054682 Eh    ::
         :: -> anisotropic ES          0.004393939253 Eh    ::
         :: -> anisotropic XC          0.014733693314 Eh    ::
         :: -> dispersion             -0.030667527134 Eh    ::
         :: repulsion energy           0.712464009607 Eh    ::
         :: add. restraining           0.000000000000 Eh    ::
         :: total charge               0.000000000000 e     ::
         :::::::::::::::::::::::::::::::::::::::::::::::::::::

           -------------------------------------------------
          |                Property Printout                |
           -------------------------------------------------

    * Orbital Energies and Occupations

         #    Occupation            Energy/Eh            Energy/eV
      -------------------------------------------------------------
         1        2.0000           -0.7465247             -20.3140
       ...           ...                  ...                  ...
        32        2.0000           -0.4694384             -12.7741
        33        2.0000           -0.4685765             -12.7506
        34        2.0000           -0.4658011             -12.6751
        35        2.0000           -0.4606402             -12.5347
        36        2.0000           -0.4489707             -12.2171
        37        2.0000           -0.4411180             -12.0034
        38        2.0000           -0.4359615             -11.8631
        39        2.0000           -0.4277544             -11.6398
        40        2.0000           -0.4200566             -11.4303
        41        2.0000           -0.4143040             -11.2738
        42        2.0000           -0.4074324             -11.0868
        43        2.0000           -0.3917482             -10.6600
        44        2.0000           -0.3673054              -9.9949 (HOMO)
        45                         -0.2585002              -7.0341 (LUMO)
        46                         -0.2360974              -6.4245
        47                         -0.2186114              -5.9487
        48                         -0.1871789              -5.0934
        49                         -0.1418985              -3.8613
        50                         -0.0547947              -1.4910
        51                          0.0225867               0.6146
        52                          0.0398624               1.0847
        53                          0.0839458               2.2843
        54                          0.1064543               2.8968
        55                          0.1154807               3.1424
       ...                                ...                  ...
        82                          0.6975275              18.9807
      -------------------------------------------------------------
                  HL-Gap            0.1088052 Eh            2.9607 eV
             Fermi-level           -0.3129028 Eh           -8.5145 eV

     #   Z          covCN         q      C6AA      α(0)
     1   6 C        3.756    -0.104    22.534     6.768
     2   6 C        3.858    -0.042    21.288     6.562
     3   1 H        0.924     0.058     2.222     2.331
     4   6 C        2.978     0.010    27.790     8.647
     5   6 C        2.919    -0.037    28.915     8.818
     6   6 C        2.917    -0.037    28.925     8.819
     7   6 C        2.986     0.012    27.732     8.638
     8   6 C        2.920    -0.065    29.627     8.926
     9   6 C        2.858     0.143    24.892     8.178
    10   6 C        2.914    -0.062    29.539     8.912
    11   6 C        2.919    -0.036    28.902     8.816
    12   6 C        2.986     0.005    27.904     8.665
    13   6 C        2.922    -0.042    29.044     8.838
    14   8 O        1.705    -0.275    18.561     5.817
    15   6 C        3.640     0.037    20.307     6.480
    16   6 C        2.701     0.363    20.844     7.473
    17   8 O        0.856    -0.421    22.103     6.303
    18   8 O        1.659    -0.371    20.301     6.082
    19   1 H        0.925     0.061     2.192     2.315
    20   1 H        0.925     0.046     2.372     2.408
    21   1 H        0.925     0.044     2.397     2.421
    22   1 H        0.926     0.034     2.536     2.491
    23   1 H        0.926     0.036     2.501     2.473
    24   1 H        0.926     0.047     2.354     2.399
    25   1 H        0.926     0.036     2.499     2.472
    26   1 H        0.926     0.039     2.460     2.453
    27   1 H        0.926     0.048     2.350     2.397
    28   1 H        0.925     0.063     2.169     2.303
    29   1 H        0.924     0.041     2.429     2.438
    30   1 H        0.924     0.042     2.429     2.437
    31   1 H        0.803     0.329     0.641     1.257

 Mol. C6AA /au·bohr⁶  :      11185.792284
 Mol. C8AA /au·bohr⁸  :     267680.662867
 Mol. α(0) /au        :        165.338990


Wiberg/Mayer (AO) data.
largest (>0.10) Wiberg bond orders for each atom

 ---------------------------------------------------------------------------
     #   Z sym  total        # sym  WBO       # sym  WBO       # sym  WBO
 ---------------------------------------------------------------------------
     1   6 C    3.990 --     2 C    0.992    20 H    0.986    21 H    0.986
                            19 H    0.983
     2   6 C    3.992 --     1 C    0.992     4 C    0.966     3 H    0.961
                            16 C    0.954
     3   1 H    0.996 --     2 C    0.961
     4   6 C    3.977 --    13 C    1.523     5 C    1.293     2 C    0.966
     5   6 C    3.991 --     6 C    1.565     4 C    1.293    22 H    0.968
     6   6 C    3.990 --     5 C    1.565     7 C    1.269    23 H    0.968
                            13 C    0.115
     7   6 C    3.989 --     8 C    1.307     6 C    1.269    12 C    1.239
     8   6 C    3.985 --     9 C    1.450     7 C    1.307    24 H    0.966
                            11 C    0.115
     9   6 C    3.932 --     8 C    1.450    10 C    1.273    14 O    1.059
    10   6 C    3.989 --    11 C    1.555     9 C    1.273    25 H    0.966
    11   6 C    3.990 --    10 C    1.555    12 C    1.282    26 H    0.968
                             8 C    0.115
    12   6 C    3.991 --    13 C    1.285    11 C    1.282     7 C    1.239
    13   6 C    3.990 --     4 C    1.523    12 C    1.285    27 H    0.964
                             6 C    0.115
    14   8 O    2.217 --     9 C    1.059    15 C    0.983
    15   6 C    3.947 --    14 O    0.983    28 H    0.980    29 H    0.978
                            30 H    0.978
    16   6 C    3.907 --    17 O    1.748    18 O    1.146     2 C    0.954
    17   8 O    2.023 --    16 C    1.748    18 O    0.171
    18   8 O    2.209 --    16 C    1.146    31 H    0.863    17 O    0.171
    19   1 H    0.996 --     1 C    0.983
    20   1 H    0.997 --     1 C    0.986
    21   1 H    0.997 --     1 C    0.986
    22   1 H    0.998 --     5 C    0.968
    23   1 H    0.997 --     6 C    0.968
    24   1 H    0.997 --     8 C    0.966
    25   1 H    0.998 --    10 C    0.966
    26   1 H    0.998 --    11 C    0.968
    27   1 H    0.997 --    13 C    0.964
    28   1 H    0.996 --    15 C    0.980
    29   1 H    0.998 --    15 C    0.978
    30   1 H    0.998 --    15 C    0.978
    31   1 H    0.891 --    18 O    0.863
 ---------------------------------------------------------------------------

Topologies differ in total number of bonds
Writing topology from bond orders to xtbtopo.mol

molecular dipole:
                 x           y           z       tot (Debye)
 q only:        0.398      -0.083       0.222
   full:        0.375       0.124       0.168       1.091
molecular quadrupole (traceless):
                xx          xy          yy          xz          yz          zz
 q only:        5.303       4.419      -0.264     -12.578       2.612      -5.039
  q+dip:        8.072       3.820      -2.806     -14.878      -0.307      -5.266
   full:        7.180       3.834      -0.267     -15.146       2.105      -6.913


           -------------------------------------------------
          | TOTAL ENERGY              -49.331894355817 Eh   |
          | GRADIENT NORM               0.030485409523 Eh/α |
          | HOMO-LUMO GAP               2.960741100028 eV   |
           -------------------------------------------------

------------------------------------------------------------------------
 * finished run on 2025/04/11 at 15:54:53.684     
------------------------------------------------------------------------
 total:
 * wall-time:     0 d,  0 h,  0 min,  0.087 sec
 *  cpu-time:     0 d,  0 h,  0 min,  0.057 sec
 * ratio c/w:     0.660 speedup
 SCF:
 * wall-time:     0 d,  0 h,  0 min,  0.042 sec
 *  cpu-time:     0 d,  0 h,  0 min,  0.042 sec
 * ratio c/w:     0.992 speedup

