
                                 *****************
                                 * O   R   C   A *
                                 *****************

                                            #,                                       
                                            ###                                      
                                            ####                                     
                                            #####                                    
                                            ######                                   
                                           ########,                                 
                                     ,,################,,,,,                         
                               ,,#################################,,                 
                          ,,##########################################,,             
                       ,#########################################, ''#####,          
                    ,#############################################,,   '####,        
                  ,##################################################,,,,####,       
                ,###########''''           ''''###############################       
              ,#####''   ,,,,##########,,,,          '''####'''          '####       
            ,##' ,,,,###########################,,,                        '##       
           ' ,,###''''                  '''############,,,                           
         ,,##''                                '''############,,,,        ,,,,,,###''
      ,#''                                            '''#######################'''  
     '                                                          ''''####''''         
             ,#######,   #######,   ,#######,      ##                                
            ,#'     '#,  ##    ##  ,#'     '#,    #''#        ,####,   ,####,        
            ##       ##  ##   ,#'  ##            #'  '#       #'       #'  '#        
            ##       ##  #######   ##           ,######,      #####,   #    #        
            '#,     ,#'  ##    ##  '#,     ,#' ,#      #,     #,   #   #,  ,#        
             '#######'   ##     ##  '#######'  #'      '#     '####' # '####'        



                #########################################################
                #                        -***-                          #
                #          Department of theory and spectroscopy        #
                #                                                       #
                #                      Frank Neese                      #
                #                                                       #
                #     Directorship, Architecture, Infrastructure        #
                #                    SHARK, DRIVERS                     #
                #        Core code/Algorithms in most modules           #
                #                                                       #
                #        Max Planck Institute fuer Kohlenforschung      #
                #                Kaiser Wilhelm Platz 1                 #
                #                 D-45470 Muelheim/Ruhr                 #
                #                      Germany                          #
                #                                                       #
                #                  All rights reserved                  #
                #                        -***-                          #
                #########################################################


                         Program Version 6.0.0  -   RELEASE  -


 With contributions from (in alphabetic order):
   Daniel Aravena         : Magnetic Suceptibility
   Michael Atanasov       : Ab Initio Ligand Field Theory (pilot matlab implementation)
   Alexander A. Auer      : GIAO ZORA, VPT2 properties, NMR spectrum
   Ute Becker             : All parallelization in ORCA, NUMFREQ, NUMCALC
   Giovanni Bistoni       : ED, misc. LED, open-shell LED, HFLD
   Martin Brehm           : Molecular dynamics
   Dmytro Bykov           : pre 5.0 version of the SCF Hessian
   Marcos Casanova-Páez   : Triplet and SCS-CIS(D). UHF-(DLPNO)-IP/EA/STEOM-CCSD. UHF-CVS-IP/STEOM-CCSD
   Vijay G. Chilkuri      : MRCI spin determinant printing, contributions to CSF-ICE
   Pauline Colinet        : FMM embedding
   Dipayan Datta          : RHF DLPNO-CCSD density
   Achintya Kumar Dutta   : EOM-CC, STEOM-CC
   Nicolas Foglia         : Exact transition moments, OPA infrastructure, MCD improvements
   Dmitry Ganyushin       : Spin-Orbit,Spin-Spin,Magnetic field MRCI
   Miquel Garcia          : C-PCM and meta-GGA Hessian, CCSD/C-PCM, Gaussian charge scheme
   Tiago L. C. Gouveia    : GS-ROHF, GS-ROCIS
   Yang Guo               : DLPNO-NEVPT2, F12-NEVPT2, CIM, IAO-localization
   Andreas Hansen         : Spin unrestricted coupled pair/coupled cluster methods
   Ingolf Harden          : AUTO-CI MPn and infrastructure 
   Benjamin Helmich-Paris : MC-RPA, TRAH-(SCF,CASSCF), AVAS, COSX integrals, SCF dyn. polar.
   Lee Huntington         : MR-EOM, pCC
   Robert Izsak           : Overlap fitted RIJCOSX, COSX-SCS-MP3, EOM
   Riya Kayal             : Wick's Theorem for AUTO-CI, AUTO-CI UHF-CCSDT
   Emily Kempfer          : AUTO-CI, RHF CISDT and CCSDT
   Christian Kollmar      : KDIIS, OOCD, Brueckner-CCSD(T), CCSD density, CASPT2, CASPT2-K, improved NEVPT2
   Axel Koslowski         : Symmetry handling
   Simone Kossmann        : Meta GGA functionals, TD-DFT gradient, OOMP2, (MP2 Hessian; deprecated post 5.0)
   Lucas Lang             : DCDCAS
   Marvin Lechner         : AUTO-CI (C++ implementation), FIC-MRCC
   Spencer Leger          : CASSCF response
   Dagmar Lenk            : GEPOL surface, SMD, ORCA-2-JSON
   Dimitrios Liakos       : Extrapolation schemes; Compound Job, initial MDCI parallelization
   Dimitrios Manganas     : Further ROCIS development; embedding schemes. LFT, Crystal Embedding
   Dimitrios Pantazis     : SARC Basis sets
   Anastasios Papadopoulos: AUTO-CI, single reference methods and gradients
   Taras Petrenko         : pre 6.0 DFT Hessian and TD-DFT gradient, (ASA, deprecated), ECA, 1-Electron XAS/XES, NRVS
   Peter Pinski           : DLPNO-MP2, DLPNO-MP2 Gradient
   Christoph Reimann      : Effective Core Potentials
   Marius Retegan         : Local ZFS, SOC
   Christoph Riplinger    : Optimizer, TS searches, QM/MM, DLPNO-CCSD(T), (RO)-DLPNO pert. Triples
   Michael Roemelt        : Original ROCIS implementation
   Masaaki Saitow         : Open-shell DLPNO-CCSD energy and density
   Barbara Sandhoefer     : DKH picture change effects
   Kantharuban Sivalingam : CASSCF convergence/infrastructure, NEVPT2 and variants, FIC-MRCI
   Bernardo de Souza      : ESD, SOC TD-DFT
   Georgi Stoychev        : AutoAux, RI-MP2 NMR, DLPNO-MP2 response, X2C
   Van Anh Tran           : RI-MP2 g-tensors
   Willem Van den Heuvel  : Paramagnetic NMR
   Zikuan Wang            : NOTCH, Electric field optimization 
   Frank Wennmohs         : Technical directorship and infrastructure
   Hang Xu                : AUTO-CI-Response properties 


 We gratefully acknowledge several colleagues who have allowed us to
 interface, adapt or use parts of their codes:
   Stefan Grimme, W. Hujo, H. Kruse, P. Pracht,  : VdW corrections, initial TS optimization,
                  C. Bannwarth, S. Ehlert,         DFT functionals, gCP, sTDA/sTD-DF
                  L. Wittmann, M. Mueller
   Ed Valeev, F. Pavosevic, A. Kumar             : LibInt (2-el integral package), F12 methods
   Garnet Chan, S. Sharma, J. Yang, R. Olivares  : DMRG
   Ulf Ekstrom                                   : XCFun DFT Library
   Mihaly Kallay                                 : mrcc  (arbitrary order and MRCC methods)
   Frank Weinhold                                : gennbo (NPA and NBO analysis)
   Simon Mueller                                 : openCOSMO-RS
   Christopher J. Cramer and Donald G. Truhlar   : smd solvation model
   Lars Goerigk                                  : TD-DFT with DH, B97 family of functionals
   V. Asgeirsson, H. Jonsson                     : NEB implementation
   FAccTs GmbH                                   : IRC, NEB, NEB-TS, DLPNO-Multilevel, CI-OPT
                                                   MM, QMMM, 2- and 3-layer-ONIOM, Crystal-QMMM,
                                                   LR-CPCM, SF, NACMEs, symmetry and pop. for TD-DFT,
                                                   nearIR, NL-DFT gradient (VV10), updates on ESD,
                                                   ML-optimized integration grids, MBIS, APM,
                                                   GOAT, DOCKER, SOLVATOR, interface openCOSMO-RS
   S Lehtola, MJT Oliveira, MAL Marques          : LibXC Library
   Liviu Ungur et al                             : ANISO software


 Your calculation uses the libint2 library for the computation of 2-el integrals
 For citations please refer to: http://libint.valeyev.net

 Your ORCA version has been built with support for libXC version: 6.2.2
 For citations please refer to: https://libxc.gitlab.io

 This ORCA versions uses:
   CBLAS   interface :  Fast vector & matrix operations
   LAPACKE interface :  Fast linear algebra routines
   SCALAPACK package :  Parallel linear algebra routines
   Shared memory     :  Shared parallel matrices
   BLAS/LAPACK       :  OpenBLAS 0.3.27  USE64BITINT DYNAMIC_ARCH NO_AFFINITY SkylakeX SINGLE_THREADED
        Core in use  :  SkylakeX
   Copyright (c) 2011-2014, The OpenBLAS Project


Your calculation utilizes the geometrical counterpoise correction gCP
Please cite in your paper:
H.Kruse, S. Grimme J.Chem.Phys., 136, (2012), 154101 
   

Your calculation utilizes the atom-pairwise dispersion correction
based on EEQ partial charges (D4)


================================================================================

----- Orbital basis set information -----
Your calculation utilizes the basis: def2-mTZVPP
   Stefan Grimme, Andreas Hansen, Sebastian Ehlert, and Jan-Michael Mewes 
   J. Chem. Phys. 154, 064103 (2021). DOI: 10.1063/5.0040021

----- AuxJ basis set information -----
Your calculation utilizes the auxiliary basis: def2/J
   F. Weigend, Phys. Chem. Chem. Phys. 8, 1057 (2006).

================================================================================
                                        WARNINGS
                       Please study these warnings very carefully!
================================================================================

Using LibXC functional ID 497 : Re-regularized SCAN exchange by Furness et al
[ 1]  J. W. Furness, A. D. Kaplan, J. Ning, J. P. Perdew, and J. Sun.,  J. Phys. Chem. Lett. 11, 8208-8215 (2020)
[ 2]  J. W. Furness, A. D. Kaplan, J. Ning, J. P. Perdew, and J. Sun.,  J. Phys. Chem. Lett. 11, 9248-9248 (2020)
Using LibXC functional ID 498 : Re-regularized SCAN correlation by Furness et al
[ 1]  J. W. Furness, A. D. Kaplan, J. Ning, J. P. Perdew, and J. Sun.,  J. Phys. Chem. Lett. 11, 8208-8215 (2020)
[ 2]  J. W. Furness, A. D. Kaplan, J. Ning, J. P. Perdew, and J. Sun.,  J. Phys. Chem. Lett. 11, 9248-9248 (2020)
Using LibXC functional ID 497 : Re-regularized SCAN exchange by Furness et al
[ 1]  J. W. Furness, A. D. Kaplan, J. Ning, J. P. Perdew, and J. Sun.,  J. Phys. Chem. Lett. 11, 8208-8215 (2020)
[ 2]  J. W. Furness, A. D. Kaplan, J. Ning, J. P. Perdew, and J. Sun.,  J. Phys. Chem. Lett. 11, 9248-9248 (2020)
Using LibXC functional ID 498 : Re-regularized SCAN correlation by Furness et al
[ 1]  J. W. Furness, A. D. Kaplan, J. Ning, J. P. Perdew, and J. Sun.,  J. Phys. Chem. Lett. 11, 8208-8215 (2020)
[ 2]  J. W. Furness, A. D. Kaplan, J. Ning, J. P. Perdew, and J. Sun.,  J. Phys. Chem. Lett. 11, 9248-9248 (2020)

================================================================================
                                       INPUT FILE
================================================================================
NAME = sp_gas.inp
|  1> ! r2scan-3c def2/J RI DEFGRID2 scfconv6 printgap
|  2> %output
|  3>     printlevel normal
|  4> end
|  5> * xyz 0 1
|  6> C -3.4941437381 1.7060082304 -0.933779993
|  7> C -3.152792524 0.2417764789 -0.6715374345
|  8> H -3.5915871254 -0.3908230759 -1.4487886669
|  9> C -1.6663371689 -0.0557587142 -0.5994133546
| 10> C -1.2298201035 -1.3536466428 -0.9399684775
| 11> C 0.0893977346 -1.6946264739 -0.870493643
| 12> C 1.0575269275 -0.7539562291 -0.4544720102
| 13> C 2.4232711263 -1.0677983372 -0.375737738
| 14> C 3.3454971241 -0.1303996639 0.0367607416
| 15> C 2.9138455208 1.1648947692 0.3854928456
| 16> C 1.5869612398 1.488375272 0.3159125248
| 17> C 0.6229137816 0.5505590978 -0.1016736798
| 18> C -0.7489316526 0.8683788803 -0.1750377368
| 19> O 4.6470405317 -0.5414351323 0.077420045
| 20> C 5.6432920446 0.3744771761 0.4915248628
| 21> C -3.6923769669 -0.2490834284 0.6570156992
| 22> O -4.1664384608 -1.3540795886 0.8257611628
| 23> O -3.5465991059 0.620733304 1.6389777959
| 24> H -3.2378484472 2.3245631928 -0.0794566555
| 25> H -2.9505984575 2.0558495275 -1.806855875
| 26> H -4.5605063819 1.8055180766 -1.1205297334
| 27> H -1.9642977009 -2.0825412385 -1.2512792091
| 28> H 0.4123986297 -2.6909225708 -1.1333838998
| 29> H 2.7668886385 -2.0560332577 -0.6400436019
| 30> H 3.6255051426 1.9073698598 0.7083246778
| 31> H 1.2628977852 2.4827587845 0.5844064361
| 32> H -1.0551830055 1.8619996183 0.1107982371
| 33> H 5.6935812502 1.2356371843 -0.1797858968
| 34> H 6.5772750791 -0.1808325723 0.4419713366
| 35> H 5.4714649241 0.7103066448 1.5174323968
| 36> H -3.8525188743 0.2731788144 2.4988567265
| 37> *
| 38> 
| 39>                          ****END OF INPUT****
================================================================================

                       ****************************
                       * Single Point Calculation *
                       ****************************

---------------------------------
CARTESIAN COORDINATES (ANGSTROEM)
---------------------------------
  C     -3.494144    1.706008   -0.933780
  C     -3.152793    0.241776   -0.671537
  H     -3.591587   -0.390823   -1.448789
  C     -1.666337   -0.055759   -0.599413
  C     -1.229820   -1.353647   -0.939968
  C      0.089398   -1.694626   -0.870494
  C      1.057527   -0.753956   -0.454472
  C      2.423271   -1.067798   -0.375738
  C      3.345497   -0.130400    0.036761
  C      2.913846    1.164895    0.385493
  C      1.586961    1.488375    0.315913
  C      0.622914    0.550559   -0.101674
  C     -0.748932    0.868379   -0.175038
  O      4.647041   -0.541435    0.077420
  C      5.643292    0.374477    0.491525
  C     -3.692377   -0.249083    0.657016
  O     -4.166438   -1.354080    0.825761
  O     -3.546599    0.620733    1.638978
  H     -3.237848    2.324563   -0.079457
  H     -2.950598    2.055850   -1.806856
  H     -4.560506    1.805518   -1.120530
  H     -1.964298   -2.082541   -1.251279
  H      0.412399   -2.690923   -1.133384
  H      2.766889   -2.056033   -0.640044
  H      3.625505    1.907370    0.708325
  H      1.262898    2.482759    0.584406
  H     -1.055183    1.862000    0.110798
  H      5.693581    1.235637   -0.179786
  H      6.577275   -0.180833    0.441971
  H      5.471465    0.710307    1.517432
  H     -3.852519    0.273179    2.498857

----------------------------
CARTESIAN COORDINATES (A.U.)
----------------------------
  NO LB      ZA    FRAG     MASS         X           Y           Z
   0 C     6.0000    0    12.011   -6.602975    3.223888   -1.764588
   1 C     6.0000    0    12.011   -5.957914    0.456891   -1.269022
   2 H     1.0000    0     1.008   -6.787116   -0.738549   -2.737814
   3 C     6.0000    0    12.011   -3.148921   -0.105369   -1.132727
   4 C     6.0000    0    12.011   -2.324023   -2.558021   -1.776283
   5 C     6.0000    0    12.011    0.168937   -3.202380   -1.644995
   6 C     6.0000    0    12.011    1.998436   -1.424771   -0.858828
   7 C     6.0000    0    12.011    4.579319   -2.017846   -0.710041
   8 C     6.0000    0    12.011    6.322073   -0.246420    0.069468
   9 C     6.0000    0    12.011    5.506370    2.201332    0.728476
  10 C     6.0000    0    12.011    2.998922    2.812622    0.596988
  11 C     6.0000    0    12.011    1.177136    1.040406   -0.192135
  12 C     6.0000    0    12.011   -1.415276    1.640998   -0.330773
  13 O     8.0000    0    15.999    8.781634   -1.023164    0.146303
  14 C     6.0000    0    12.011   10.664276    0.707659    0.928847
  15 C     6.0000    0    12.011   -6.977581   -0.470699    1.241580
  16 O     8.0000    0    15.999   -7.873428   -2.558840    1.560462
  17 O     8.0000    0    15.999   -6.702101    1.173016    3.097219
  18 H     1.0000    0     1.008   -6.118647    4.392788   -0.150151
  19 H     1.0000    0     1.008   -5.575823    3.884993   -3.414463
  20 H     1.0000    0     1.008   -8.618108    3.411935   -2.117494
  21 H     1.0000    0     1.008   -3.711985   -3.935433   -2.364575
  22 H     1.0000    0     1.008    0.779320   -5.085107   -2.141785
  23 H     1.0000    0     1.008    5.228662   -3.885340   -1.209507
  24 H     1.0000    0     1.008    6.851212    3.604407    1.338540
  25 H     1.0000    0     1.008    2.386531    4.691734    1.104368
  26 H     1.0000    0     1.008   -1.994007    3.518669    0.209378
  27 H     1.0000    0     1.008   10.759309    2.335016   -0.339746
  28 H     1.0000    0     1.008   12.429249   -0.341724    0.835205
  29 H     1.0000    0     1.008   10.339570    1.342285    2.867532
  30 H     1.0000    0     1.008   -7.280206    0.516233    4.722155

--------------------------------
INTERNAL COORDINATES (ANGSTROEM)
--------------------------------
 C      0   0   0     0.000000000000     0.00000000     0.00000000
 C      1   0   0     1.526193445457     0.00000000     0.00000000
 H      2   1   0     1.094002914630   110.05856971     0.00000000
 C      2   1   3     1.517655625213   114.53943349   122.22774538
 C      4   2   1     1.411041464779   118.15485339   207.06390515
 C      5   4   2     1.364342223274   121.11230295   181.33009425
 C      6   5   4     1.412518545915   120.74944089     0.00000000
 C      7   6   5     1.403550202519   122.31281496   180.23803663
 C      8   7   6     1.378177078388   121.05351743   180.15656930
 C      9   8   7     1.409157498441   119.62407469     0.00000000
 C     10   9   8     1.367517075542   120.13624974     0.06600120
 C     11  10   9     1.408284387659   121.45167056   359.95303731
 C      4   2   1     1.369583089808   122.58238578    29.37492896
 O      9   8   7     1.365510372389   116.23082885   179.97226597
 C     14   9   8     1.415236811901   119.00423080   179.94313427
 C      2   1   3     1.515634602626   112.43950853   240.79594341
 O     16   2   1     1.214177023972   123.74979139   141.04405687
 O     16   2   1     1.319879499074   113.54034538   318.24881047
 H      1   2   3     1.085433499872   111.01909756   168.88866461
 H      1   2   3     1.086320349137   109.58201295   289.74902437
 H      1   2   3     1.087155445703   109.67695745    49.19339402
 H      5   4   2     1.080582733682   118.66618722     0.80206056
 H      6   5   4     1.079836458939   120.49196189   179.99276041
 H      8   7   6     1.079138009004   120.05772912     0.14687758
 H     10   9   8     1.077937414391   120.33266105   180.08478142
 H     11  10   9     1.079770657568   119.76165718   180.00946923
 H     13   4   2     1.078320113005   120.90743949   358.89345745
 H     15  14   9     1.093061617603   111.25733036   298.37670135
 H     15  14   9     1.087726425789   105.11266292   179.88110427
 H     15  14   9     1.093065533124   111.27258532    61.38774832
 H     18  16   2     0.976612923951   112.70126230   183.21038225

---------------------------
INTERNAL COORDINATES (A.U.)
---------------------------
 C      0   0   0     0.000000000000     0.00000000     0.00000000
 C      1   0   0     2.884087639300     0.00000000     0.00000000
 H      2   1   0     2.067365898362   110.05856971     0.00000000
 C      2   1   3     2.867953497257   114.53943349   122.22774538
 C      4   2   1     2.666481932039   118.15485339   207.06390515
 C      5   4   2     2.578233154932   121.11230295   181.33009425
 C      6   5   4     2.669273210865   120.74944089     0.00000000
 C      7   6   5     2.652325497971   122.31281496   180.23803663
 C      8   7   6     2.604377242202   121.05351743   180.15656930
 C      9   8   7     2.662921751614   119.62407469     0.00000000
 C     10   9   8     2.584232756235   120.13624974     0.06600120
 C     11  10   9     2.661271811353   121.45167056   359.95303731
 C      4   2   1     2.588136957387   122.58238578    29.37492896
 O      9   8   7     2.580440636845   116.23082885   179.97226597
 C     14   9   8     2.674409989136   119.00423080   179.94313427
 C      2   1   3     2.864134318058   112.43950853   240.79594341
 O     16   2   1     2.294462053406   123.74979139   141.04405687
 O     16   2   1     2.494210783027   113.54034538   318.24881047
 H      1   2   3     2.051172051342   111.01909756   168.88866461
 H      1   2   3     2.052847953575   109.58201295   289.74902437
 H      1   2   3     2.054426057380   109.67695745    49.19339402
 H      5   4   2     2.042005431704   118.66618722     0.80206056
 H      6   5   4     2.040595176818   120.49196189   179.99276041
 H      8   7   6     2.039275297723   120.05772912     0.14687758
 H     10   9   8     2.037006502706   120.33266105   180.08478142
 H     11  10   9     2.040470830247   119.76165718   180.00946923
 H     13   4   2     2.037729698279   120.90743949   358.89345745
 H     15  14   9     2.065587104771   111.25733036   298.37670135
 H     15  14   9     2.055505053371   105.11266292   179.88110427
 H     15  14   9     2.065594504034   111.27258532    61.38774832
 H     18  16   2     1.845530965116   112.70126230   183.21038225

---------------------
BASIS SET INFORMATION
---------------------
There are 3 groups of distinct atoms

 Group   1 Type C   : 11s6p1d contracted to 5s3p1d pattern {62111/411/1}
 Group   2 Type H   : 4s1p contracted to 2s1p pattern {31/1}
 Group   3 Type O   : 11s6p2d contracted to 5s3p2d pattern {62111/411/11}

Atom   0C    basis set group =>   1
Atom   1C    basis set group =>   1
Atom   2H    basis set group =>   2
Atom   3C    basis set group =>   1
Atom   4C    basis set group =>   1
Atom   5C    basis set group =>   1
Atom   6C    basis set group =>   1
Atom   7C    basis set group =>   1
Atom   8C    basis set group =>   1
Atom   9C    basis set group =>   1
Atom  10C    basis set group =>   1
Atom  11C    basis set group =>   1
Atom  12C    basis set group =>   1
Atom  13O    basis set group =>   3
Atom  14C    basis set group =>   1
Atom  15C    basis set group =>   1
Atom  16O    basis set group =>   3
Atom  17O    basis set group =>   3
Atom  18H    basis set group =>   2
Atom  19H    basis set group =>   2
Atom  20H    basis set group =>   2
Atom  21H    basis set group =>   2
Atom  22H    basis set group =>   2
Atom  23H    basis set group =>   2
Atom  24H    basis set group =>   2
Atom  25H    basis set group =>   2
Atom  26H    basis set group =>   2
Atom  27H    basis set group =>   2
Atom  28H    basis set group =>   2
Atom  29H    basis set group =>   2
Atom  30H    basis set group =>   2
---------------------------------
AUXILIARY/J BASIS SET INFORMATION
---------------------------------
There are 3 groups of distinct atoms

 Group   1 Type C   : 12s5p4d2f1g contracted to 6s4p3d1f1g pattern {711111/2111/211/2/1}
 Group   2 Type H   : 5s2p1d contracted to 3s1p1d pattern {311/2/1}
 Group   3 Type O   : 12s5p4d2f1g contracted to 6s4p3d1f1g pattern {711111/2111/211/2/1}

Atom   0C    basis set group =>   1
Atom   1C    basis set group =>   1
Atom   2H    basis set group =>   2
Atom   3C    basis set group =>   1
Atom   4C    basis set group =>   1
Atom   5C    basis set group =>   1
Atom   6C    basis set group =>   1
Atom   7C    basis set group =>   1
Atom   8C    basis set group =>   1
Atom   9C    basis set group =>   1
Atom  10C    basis set group =>   1
Atom  11C    basis set group =>   1
Atom  12C    basis set group =>   1
Atom  13O    basis set group =>   3
Atom  14C    basis set group =>   1
Atom  15C    basis set group =>   1
Atom  16O    basis set group =>   3
Atom  17O    basis set group =>   3
Atom  18H    basis set group =>   2
Atom  19H    basis set group =>   2
Atom  20H    basis set group =>   2
Atom  21H    basis set group =>   2
Atom  22H    basis set group =>   2
Atom  23H    basis set group =>   2
Atom  24H    basis set group =>   2
Atom  25H    basis set group =>   2
Atom  26H    basis set group =>   2
Atom  27H    basis set group =>   2
Atom  28H    basis set group =>   2
Atom  29H    basis set group =>   2
Atom  30H    basis set group =>   2

Checking for AutoStart:
The File: sp_gas.gbw exists
Trying to determine its content:
     ... Fine, the file contains calculation information
     ... Fine, the calculation information was read
     ... Fine, the file contains a basis set
     ... Fine, the basis set was read
     ... Fine, the file contains a geometry
     ... Fine, the geometry was read
     ... Fine, the file contains a set of orbitals
     ... Fine, the orbitals can be read
     => possible old guess file was deleted
     => GBW file was renamed to GES file
     => GES file is set as startup file
     => Guess is set to MORead
     ... now leaving AutoStart

------------------------------------------------------------------------------
                             ORCA STARTUP CALCULATIONS
                           -- RI-GTO INTEGRALS CHOSEN --
------------------------------------------------------------------------------
------------------------------------------------------------------------------
                   ___                                                        
                  /   \      - P O W E R E D   B Y -                         
                 /     \                                                     
                 |  |  |   _    _      __       _____    __    __             
                 |  |  |  | |  | |    /  \     |  _  \  |  |  /  |          
                  \  \/   | |  | |   /    \    | | | |  |  | /  /          
                 / \  \   | |__| |  /  /\  \   | |_| |  |  |/  /          
                |  |  |   |  __  | /  /__\  \  |    /   |      \           
                |  |  |   | |  | | |   __   |  |    \   |  |\   \          
                \     /   | |  | | |  |  |  |  | |\  \  |  | \   \       
                 \___/    |_|  |_| |__|  |__|  |_| \__\ |__|  \__/        
                                                                              
                      - O R C A' S   B I G   F R I E N D -                    
                                      &                                       
                       - I N T E G R A L  F E E D E R -                       
                                                                              
 v1 FN, 2020, v2 2021, v3 2022-2024                                           
------------------------------------------------------------------------------


----------------------
SHARK INTEGRAL PACKAGE
----------------------

Number of atoms                             ...     31
Number of basis functions                   ...    408
Number of shells                            ...    198
Maximum angular momentum                    ...      2
Integral batch strategy                     ... SHARK/LIBINT Hybrid
RI-J (if used) integral strategy            ... SPLIT-RIJ (Revised 2003 algorithm where possible)
Printlevel                                  ...      1
Contraction scheme used                     ... SEGMENTED contraction
Prescreening option                         ... SCHWARTZ
   Thresh                                   ... 1.000e-10
   Tcut                                     ... 1.000e-11
   Tpresel                                  ... 1.000e-11 
Coulomb Range Separation                    ... NOT USED
Exchange Range Separation                   ... NOT USED
Multipole approximations                    ... NOT USED
Finite Nucleus Model                        ... NOT USED
CABS basis                                  ... NOT available
Auxiliary Coulomb fitting basis             ... AVAILABLE
   # of basis functions in Aux-J            ...    987
   # of shells in Aux-J                     ...    325
   Maximum angular momentum in Aux-J        ...      4
Auxiliary J/K fitting basis                 ... NOT available
Auxiliary Correlation fitting basis         ... NOT available
Auxiliary 'external' fitting basis          ... NOT available

Checking pre-screening integrals            ... done (  0.0 sec) Dimension = 198
Check shell pair data                       ... done (  0.0 sec)
Shell pair information
Shell pair cut-off parameter TPreSel        ...   1.0e-11
Total number of shell pairs                 ...     19701
Shell pairs after pre-screening             ...     14171
Total number of primitive shell pairs       ...     72426
Primitive shell pairs kept                  ...     33886
          la=0 lb=0:   4424 shell pairs
          la=1 lb=0:   5426 shell pairs
          la=1 lb=1:   1685 shell pairs
          la=2 lb=0:   1532 shell pairs
          la=2 lb=1:    958 shell pairs
          la=2 lb=2:    146 shell pairs

Calculating one electron integrals          ... done (  0.1 sec)
Calculating RI/J V-Matrix + Cholesky decomp.... done (  0.2 sec)
Calculating Nuclear repulsion               ... done (  0.0 sec) ENN=   1139.317981638639 Eh

Diagonalization of the overlap matrix:
Smallest eigenvalue                        ... 1.286e-05
Time for diagonalization                   ...    0.023 sec
Threshold for overlap eigenvalues          ... 1.000e-07
Number of eigenvalues below threshold      ... 0
Time for construction of square roots      ...    0.031 sec
Total time needed                          ...    0.104 sec

-------------------
DFT GRID GENERATION
-------------------

General Integration Accuracy     IntAcc      ... 4.388
Radial Grid Type                 RadialGrid  ... OptM3 with GC (2021)
Angular Grid (max. ang.)         AngularGrid ... 4 (Lebedev-302)
Angular grid pruning method      GridPruning ... 4 (adaptive)
Weight generation scheme         WeightScheme... mBecke (2022)
Basis function cutoff            BFCut       ... 1.0000e-10
Integration weight cutoff        WCut        ... 1.0000e-14
Partially contracted basis set               ... off
Rotationally invariant grid construction     ... off
Angular grids for H and He will be reduced by one unit
Diffuse basis detected: some atoms will have their outermost
                        angular grid increased by 1.

Total number of grid points                  ...   147379
Total number of batches                      ...     2320
Average number of points per batch           ...       63
Average number of grid points per atom       ...     4754
Initializing property integral containers    ... done (  0.0 sec)

SHARK setup successfully completed in   3.2 seconds

Maximum memory used throughout the entire STARTUP-calculation: 72.6 MB
-------------------------------------------------------------------------------
                                 ORCA GUESS
                   Start orbitals & Density for SCF / CASSCF
-------------------------------------------------------------------------------

------------
SCF SETTINGS
------------
Hamiltonian:
 Density Functional     Method          .... DFT(GTOs)
  Functional kind                       .... Exchange
  Functional name                       .... Re-regularized SCAN exchange by Furness et al
  Functional family                     .... MGGA
  Functional refs                              
    [ 0] J. W. Furness, A. D. Kaplan, J. Ning, J. P. Perdew, and J. Sun.,  J. Phys. Chem. Lett. 11, 8208-8215 (2020), doi: 10.1021/acs.jpclett.0c02405
    [ 1] J. W. Furness, A. D. Kaplan, J. Ning, J. P. Perdew, and J. Sun.,  J. Phys. Chem. Lett. 11, 9248-9248 (2020), doi: 10.1021/acs.jpclett.0c03077
  Functional external parameters        .... 6
    Parameter  0 _c1        =  6.670000e-01 : c1 parameter        
    Parameter  1 _c2        =  8.000000e-01 : c2 parameter        
    Parameter  2 _d         =  1.240000e+00 : d parameter         
    Parameter  3 _k1        =  6.500000e-02 : k1 parameter        
    Parameter  4 _eta       =  1.000000e-03 : eta parameter       
    Parameter  5 _dp2       =  3.610000e-01 : dp2 parameter       
  Functional kind                       .... Correlation
  Functional name                       .... Re-regularized SCAN correlation by Furness et al
  Functional family                     .... MGGA
  Functional refs                              
    [ 0] J. W. Furness, A. D. Kaplan, J. Ning, J. P. Perdew, and J. Sun.,  J. Phys. Chem. Lett. 11, 8208-8215 (2020), doi: 10.1021/acs.jpclett.0c02405
    [ 1] J. W. Furness, A. D. Kaplan, J. Ning, J. P. Perdew, and J. Sun.,  J. Phys. Chem. Lett. 11, 9248-9248 (2020), doi: 10.1021/acs.jpclett.0c03077
  Functional external parameters        .... 1
    Parameter  0 _eta       =  1.000000e-03 : Regularization parameter
 Gradients option       PostSCFGGA      .... off
 RI-approximation to the Coulomb term is turned on
   Number of AuxJ basis functions       .... 987


General Settings:
 Integral files         IntName         .... sp_gas
 Hartree-Fock type      HFTyp           .... RHF
 Total Charge           Charge          ....    0
 Multiplicity           Mult            ....    1
 Number of Electrons    NEL             ....  122
 Basis Dimension        Dim             ....  408
 Nuclear Repulsion      ENuc            ....   1139.3179816386 Eh

Convergence Acceleration:
 AO-DIIS                CNVDIIS         .... on
   Start iteration      DIISMaxIt       ....    12
   Startup error        DIISStart       ....  0.200000
   # of expansion vecs  DIISMaxEq       ....     5
   Bias factor          DIISBfac        ....   1.050
   Max. coefficient     DIISMaxC        ....  10.000
 MO-DIIS                CNVKDIIS        .... off
 Trust-Rad. Augm. Hess. CNVTRAH         .... auto
   Auto Start mean grad. ratio tolernc. ....  1.125000
   Auto Start start iteration           ....     1
   Auto Start num. interpolation iter.  ....    10
   Max. Number of Micro iterations      ....    24
   Max. Number of Macro iterations      .... Maxiter - #DIIS iter
   Number of Davidson start vectors     ....     2
   Converg. threshold    (grad. norm)   ....   3.330e-04
   Grad. Scal. Fac. for Micro threshold ....   0.100
   Minimum threshold for Micro iter.    ....   1.000e-02
   NR start threshold (gradient norm)   ....   1.000e-04
   Initial trust radius                 ....   0.400
   Minimum AH scaling param. (alpha)    ....   1.000
   Maximum AH scaling param. (alpha)    .... 1000.000
   Quad. conv. algorithm                .... NR
   White noise on init. David. guess    .... on
   Maximum white noise                  ....   0.010
   Pseudo random numbers                .... off
   Inactive MOs                         .... canonical
   Orbital update algorithm             .... Taylor
   Preconditioner                       .... Diag
   Full preconditioner red. dimension   ....   250
   COSX micro iterations for RIJONX calc.... off
 SOSCF                  CNVSOSCF        .... on
   Start iteration      SOSCFMaxIt      ....   150
   Startup grad/error   SOSCFStart      ....  0.003300
   Hessian update       SOSCFHessUp     .... L-BFGS
 Level Shifting         CNVShift        .... on
   Level shift para.    LevelShift      ....    0.2500
   Turn off err/grad.   ShiftErr        ....    0.0010
 Zerner damping         CNVZerner       .... off
 Static damping         CNVDamp         .... on
   Fraction old density DampFac         ....    0.7000
   Max. Damping (<1)    DampMax         ....    0.9800
   Min. Damping (>=0)   DampMin         ....    0.0000
   Turn off err/grad.   DampErr         ....    0.1000

SCF Procedure:
 Maximum # iterations   MaxIter         ....   125
 SCF integral mode      SCFMode         .... Direct
   Integral package                     .... SHARK and LIBINT hybrid scheme
 Reset frequency        DirectResetFreq ....    20
 Integral Threshold     Thresh          ....  1.000e-10 Eh
 Primitive CutOff       TCut            ....  1.000e-11 Eh

Convergence Tolerance:
 Convergence Check Mode ConvCheckMode   .... Total+1el-Energy
 Convergence forced     ConvForced      .... 0
 Energy Change          TolE            ....  1.000e-06 Eh
 1-El. energy change                    ....  1.000e-03 Eh
 Orbital Gradient       TolG            ....  3.330e-04
 Orbital Rotation angle TolX            ....  3.330e-04
 DIIS Error             TolErr          ....  1.000e-06

---------------------
INITIAL GUESS: MOREAD
---------------------
Guess MOs are being read from file: sp_gas.ges
Input Geometry matches current geometry (good)
Atom 0: N(Shells)= 9 and 6 - projection required
Input basis set needs projection
NBasis(read)= 266
NBasis(calc)= 408
Basis set overlap was calculated
Using GuessMode=FMatrix for the initial guess
C*T matrix was formed
Effective Fockian was calculated
Effective Fockian was diagonalized
Initial density was built
                      ------------------
                      INITIAL GUESS DONE (   0.2 sec)
                      ------------------
             **** ENERGY FILE WAS UPDATED (sp_gas.en.tmp) ****
Finished Guess after   0.8 sec
Maximum memory used throughout the entire GUESS-calculation: 37.3 MB

-------------------------------------------------------------------------------------------
                                      ORCA LEAN-SCF
                              memory conserving SCF solver
-------------------------------------------------------------------------------------------

----------------------------------------D-I-I-S--------------------------------------------
Iteration    Energy (Eh)           Delta-E    RMSDP     MaxDP     DIISErr   Damp  Time(sec)
-------------------------------------------------------------------------------------------
               ***  Starting incremental Fock matrix formation  ***
    1    -767.0818850265247875     0.00e+00  1.46e-02  1.02e+00  6.24e-01  0.700   9.3
    2    -767.1897975241408858    -1.08e-01  1.12e-02  7.65e-01  4.38e-01  0.700   8.1
    3    -767.2659348197416875    -7.61e-02  7.95e-03  5.42e-01  3.07e-01  0.700   7.9
    4    -767.3193599466758315    -5.34e-02  5.59e-03  3.79e-01  2.15e-01  0.700   7.8
                               ***Turning on AO-DIIS***
    5    -767.3568220243225824    -3.75e-02  3.92e-03  2.64e-01  1.51e-01  0.700   7.7
    6    -767.3830751104146657    -2.63e-02  2.74e-03  1.84e-01  1.05e-01  0.700   7.4
    7    -767.4014759228621188    -1.84e-02  1.92e-03  1.28e-01  7.38e-02  0.700   7.3
    8    -767.4143664450234610    -1.29e-02  4.47e-03  2.98e-01  5.17e-02  0.000   7.4
                              *** Initializing SOSCF ***
---------------------------------------S-O-S-C-F--------------------------------------
Iteration    Energy (Eh)           Delta-E    RMSDP     MaxDP     MaxGrad    Time(sec)
--------------------------------------------------------------------------------------
    9    -767.4444778590441274    -3.01e-02  9.27e-06  4.90e-04  1.93e-04     7.8
               *** Restarting incremental Fock matrix formation ***
   10    -767.4444778340523499     2.50e-08  2.18e-05  1.65e-03  6.58e-05     9.2
                  *** Gradient check signals convergence ***

               *****************************************************
               *                     SUCCESS                       *
               *           SCF CONVERGED AFTER  10 CYCLES          *
               *****************************************************

             **** ENERGY FILE WAS UPDATED (sp_gas.en.tmp) ****

----------------
TOTAL SCF ENERGY
----------------

Total Energy       :       -767.44447783405235 Eh          -20883.22592 eV

Components:
Nuclear Repulsion  :       1139.31798163863868 Eh           31002.41841 eV
Electronic Energy  :      -1906.76245947269103 Eh          -51885.64434 eV
One Electron Energy:      -3304.68434442031503 Eh          -89925.03271 eV
Two Electron Energy:       1397.92188494762399 Eh           38039.38837 eV

Virial components:
Potential Energy   :      -1531.89635418400121 Eh          -41685.01902 eV
Kinetic Energy     :        764.45187634994886 Eh           20801.79310 eV
Virial Ratio       :          2.00391470225489

DFT components:
N(Alpha)           :       61.000040630154 electrons
N(Beta)            :       61.000040630154 electrons
N(Total)           :      122.000081260308 electrons
E(X)               :     -102.820845762682 Eh       
E(C)               :       -3.990076720832 Eh       
E(XC)              :     -106.810922483514 Eh       

---------------
SCF CONVERGENCE
---------------

  Last Energy change         ...   -2.4992e-08  Tolerance :   1.0000e-06
  Last MAX-Density change    ...    1.6474e-03  Tolerance :   1.0000e-05
  Last RMS-Density change    ...    2.1757e-05  Tolerance :   1.0000e-06
  Last DIIS Error            ...    1.9279e-04  Tolerance :   1.0000e-06
  Last Orbital Gradient      ...    6.5752e-05  Tolerance :   3.3300e-04
  Last Orbital Rotation      ...    2.3603e-04  Tolerance :   3.3300e-04


----------------
ORBITAL ENERGIES
----------------

  NO   OCC          E(Eh)            E(eV) 
   0   2.0000     -19.005344      -517.1617 
   1   2.0000     -18.988338      -516.6989 
   2   2.0000     -18.930637      -515.1288 
   3   2.0000     -10.160605      -276.4841 
   4   2.0000     -10.098633      -274.7978 
   5   2.0000     -10.090522      -274.5771 
   6   2.0000     -10.059661      -273.7373 
   7   2.0000     -10.047682      -273.4113 
   8   2.0000     -10.046058      -273.3671 
   9   2.0000     -10.043049      -273.2853 
  10   2.0000     -10.042501      -273.2703 
  11   2.0000     -10.041353      -273.2391 
  12   2.0000     -10.035972      -273.0927 
  13   2.0000     -10.034661      -273.0570 
  14   2.0000     -10.034084      -273.0413 
  15   2.0000     -10.030539      -272.9448 
  16   2.0000     -10.030041      -272.9313 
  17   2.0000      -1.079541       -29.3758 
  18   2.0000      -1.035569       -28.1793 
  19   2.0000      -0.976911       -26.5831 
  20   2.0000      -0.849435       -23.1143 
  21   2.0000      -0.808602       -22.0032 
  22   2.0000      -0.767692       -20.8900 
  23   2.0000      -0.746096       -20.3023 
  24   2.0000      -0.710656       -19.3379 
  25   2.0000      -0.702837       -19.1252 
  26   2.0000      -0.660927       -17.9847 
  27   2.0000      -0.642344       -17.4791 
  28   2.0000      -0.609576       -16.5874 
  29   2.0000      -0.586748       -15.9662 
  30   2.0000      -0.572704       -15.5841 
  31   2.0000      -0.554914       -15.1000 
  32   2.0000      -0.505666       -13.7599 
  33   2.0000      -0.488341       -13.2884 
  34   2.0000      -0.481616       -13.1054 
  35   2.0000      -0.457028       -12.4364 
  36   2.0000      -0.444350       -12.0914 
  37   2.0000      -0.441623       -12.0172 
  38   2.0000      -0.439671       -11.9641 
  39   2.0000      -0.432384       -11.7658 
  40   2.0000      -0.418443       -11.3864 
  41   2.0000      -0.412903       -11.2357 
  42   2.0000      -0.399960       -10.8835 
  43   2.0000      -0.390606       -10.6289 
  44   2.0000      -0.382287       -10.4026 
  45   2.0000      -0.376877       -10.2554 
  46   2.0000      -0.371429       -10.1071 
  47   2.0000      -0.363780        -9.8990 
  48   2.0000      -0.349502        -9.5104 
  49   2.0000      -0.347294        -9.4503 
  50   2.0000      -0.335112        -9.1189 
  51   2.0000      -0.327162        -8.9025 
  52   2.0000      -0.314753        -8.5649 
  53   2.0000      -0.309727        -8.4281 
  54   2.0000      -0.294889        -8.0244 
  55   2.0000      -0.290340        -7.9005 
  56   2.0000      -0.283656        -7.7187 
  57   2.0000      -0.262019        -7.1299 
  58   2.0000      -0.234913        -6.3923 
  59   2.0000      -0.221897        -6.0381 
  60   2.0000      -0.189390        -5.1536 
  61   0.0000      -0.068069        -1.8522 
  62   0.0000      -0.038746        -1.0543 
  63   0.0000      -0.008656        -0.2355 
  64   0.0000      -0.000876        -0.0238 
  65   0.0000       0.051286         1.3956 
  66   0.0000       0.061631         1.6771 
  67   0.0000       0.071700         1.9511 
  68   0.0000       0.079223         2.1558 
  69   0.0000       0.086349         2.3497 
  70   0.0000       0.091777         2.4974 
  71   0.0000       0.102229         2.7818 
*Only the first 10 virtual orbitals were printed.

                    ********************************
                    * MULLIKEN POPULATION ANALYSIS *
                    ********************************

-----------------------
MULLIKEN ATOMIC CHARGES
-----------------------
   0 C :   -0.525884
   1 C :   -0.080607
   2 H :    0.181652
   3 C :    0.182116
   4 C :   -0.232527
   5 C :   -0.289780
   6 C :    0.254656
   7 C :   -0.398527
   8 C :    0.341205
   9 C :   -0.288947
  10 C :   -0.272512
  11 C :    0.151883
  12 C :   -0.257489
  13 O :   -0.180553
  14 C :   -0.333336
  15 C :    0.295717
  16 O :   -0.384540
  17 O :   -0.333615
  18 H :    0.166392
  19 H :    0.170600
  20 H :    0.159078
  21 H :    0.155886
  22 H :    0.141837
  23 H :    0.154727
  24 H :    0.146904
  25 H :    0.142136
  26 H :    0.140724
  27 H :    0.152932
  28 H :    0.156059
  29 H :    0.152824
  30 H :    0.330988
Sum of atomic charges:    0.0000000

--------------------------------
MULLIKEN REDUCED ORBITAL CHARGES
--------------------------------
  0 C s       :     3.372366  s :     3.372366
      pz      :     1.089712  p :     3.127019
      px      :     1.111869
      py      :     0.925438
      dz2     :     0.004499  d :     0.026499
      dxz     :     0.003277
      dyz     :     0.006874
      dx2y2   :     0.008051
      dxy     :     0.003799

  1 C s       :     3.044882  s :     3.044882
      pz      :     1.001717  p :     2.990195
      px      :     0.982868
      py      :     1.005609
      dz2     :     0.008367  d :     0.045531
      dxz     :     0.008858
      dyz     :     0.009635
      dx2y2   :     0.010259
      dxy     :     0.008412

  2 H s       :     0.800979  s :     0.800979
      pz      :     0.007083  p :     0.017369
      px      :     0.004436
      py      :     0.005850

  3 C s       :     3.088657  s :     3.088657
      pz      :     1.003453  p :     2.682022
      px      :     0.801407
      py      :     0.877161
      dz2     :     0.004598  d :     0.047205
      dxz     :     0.007106
      dyz     :     0.006867
      dx2y2   :     0.014908
      dxy     :     0.013726

  4 C s       :     3.220363  s :     3.220363
      pz      :     0.984245  p :     2.974653
      px      :     0.999527
      py      :     0.990881
      dz2     :     0.003337  d :     0.037511
      dxz     :     0.005892
      dyz     :     0.004831
      dx2y2   :     0.010780
      dxy     :     0.012670

  5 C s       :     3.275308  s :     3.275308
      pz      :     0.999060  p :     2.977137
      px      :     0.960978
      py      :     1.017100
      dz2     :     0.003457  d :     0.037334
      dxz     :     0.007457
      dyz     :     0.003063
      dx2y2   :     0.011250
      dxy     :     0.012107

  6 C s       :     3.120529  s :     3.120529
      pz      :     0.942846  p :     2.576062
      px      :     0.802510
      py      :     0.830706
      dz2     :     0.004559  d :     0.048753
      dxz     :     0.008721
      dyz     :     0.006212
      dx2y2   :     0.014777
      dxy     :     0.014485

  7 C s       :     3.250808  s :     3.250808
      pz      :     1.050450  p :     3.112623
      px      :     0.990688
      py      :     1.071485
      dz2     :     0.003769  d :     0.035096
      dxz     :     0.006635
      dyz     :     0.003308
      dx2y2   :     0.009574
      dxy     :     0.011810

  8 C s       :     3.094437  s :     3.094437
      pz      :     0.942460  p :     2.492044
      px      :     0.753826
      py      :     0.795758
      dz2     :     0.006157  d :     0.072314
      dxz     :     0.015759
      dyz     :     0.007976
      dx2y2   :     0.020827
      dxy     :     0.021594

  9 C s       :     3.214261  s :     3.214261
      pz      :     1.054619  p :     3.038680
      px      :     1.019873
      py      :     0.964189
      dz2     :     0.003409  d :     0.036006
      dxz     :     0.005732
      dyz     :     0.004629
      dx2y2   :     0.010361
      dxy     :     0.011875

 10 C s       :     3.252140  s :     3.252140
      pz      :     0.992898  p :     2.982301
      px      :     0.966700
      py      :     1.022703
      dz2     :     0.003545  d :     0.038071
      dxz     :     0.008123
      dyz     :     0.003063
      dx2y2   :     0.011473
      dxy     :     0.011868

 11 C s       :     3.209419  s :     3.209419
      pz      :     0.954337  p :     2.590908
      px      :     0.781554
      py      :     0.855017
      dz2     :     0.004524  d :     0.047790
      dxz     :     0.007847
      dyz     :     0.006166
      dx2y2   :     0.014613
      dxy     :     0.014641

 12 C s       :     3.174477  s :     3.174477
      pz      :     1.016738  p :     3.045610
      px      :     1.006808
      py      :     1.022065
      dz2     :     0.003821  d :     0.037402
      dxz     :     0.007125
      dyz     :     0.003510
      dx2y2   :     0.012173
      dxy     :     0.010774

 13 O s       :     3.714001  s :     3.714001
      pz      :     1.768749  p :     4.436774
      px      :     1.077576
      py      :     1.590449
      dz2     :     0.003781  d :     0.029779
      dxz     :     0.001733
      dyz     :     0.005539
      dx2y2   :     0.006284
      dxy     :     0.012441

 14 C s       :     3.343664  s :     3.343664
      pz      :     1.054890  p :     2.942961
      px      :     0.926458
      py      :     0.961613
      dz2     :     0.009302  d :     0.046711
      dxz     :     0.005408
      dyz     :     0.010550
      dx2y2   :     0.008893
      dxy     :     0.012558

 15 C s       :     3.135661  s :     3.135661
      pz      :     0.892347  p :     2.442512
      px      :     0.790658
      py      :     0.759506
      dz2     :     0.020679  d :     0.126110
      dxz     :     0.016119
      dyz     :     0.045962
      dx2y2   :     0.022052
      dxy     :     0.021299

 16 O s       :     3.833245  s :     3.833245
      pz      :     1.779887  p :     4.527270
      px      :     1.420605
      py      :     1.326777
      dz2     :     0.004183  d :     0.024026
      dxz     :     0.001027
      dyz     :     0.001838
      dx2y2   :     0.009006
      dxy     :     0.007973

 17 O s       :     3.721926  s :     3.721926
      pz      :     1.225024  p :     4.587638
      px      :     1.746438
      py      :     1.616176
      dz2     :     0.002734  d :     0.024051
      dxz     :     0.002876
      dyz     :     0.006368
      dx2y2   :     0.007218
      dxy     :     0.004855

 18 H s       :     0.815057  s :     0.815057
      pz      :     0.008516  p :     0.018551
      px      :     0.004094
      py      :     0.005941

 19 H s       :     0.811145  s :     0.811145
      pz      :     0.008315  p :     0.018255
      px      :     0.005523
      py      :     0.004417

 20 H s       :     0.822681  s :     0.822681
      pz      :     0.003954  p :     0.018241
      px      :     0.010646
      py      :     0.003641

 21 H s       :     0.824464  s :     0.824464
      pz      :     0.004733  p :     0.019651
      px      :     0.007455
      py      :     0.007463

 22 H s       :     0.838530  s :     0.838530
      pz      :     0.004667  p :     0.019634
      px      :     0.003885
      py      :     0.011082

 23 H s       :     0.825446  s :     0.825446
      pz      :     0.004849  p :     0.019826
      px      :     0.004015
      py      :     0.010963

 24 H s       :     0.832802  s :     0.832802
      pz      :     0.005332  p :     0.020293
      px      :     0.007305
      py      :     0.007656

 25 H s       :     0.838210  s :     0.838210
      pz      :     0.004694  p :     0.019654
      px      :     0.003941
      py      :     0.011019

 26 H s       :     0.839180  s :     0.839180
      pz      :     0.004818  p :     0.020096
      px      :     0.004181
      py      :     0.011098

 27 H s       :     0.829584  s :     0.829584
      pz      :     0.006243  p :     0.017484
      px      :     0.002847
      py      :     0.008393

 28 H s       :     0.826402  s :     0.826402
      pz      :     0.003564  p :     0.017539
      px      :     0.009072
      py      :     0.004904

 29 H s       :     0.829687  s :     0.829687
      pz      :     0.010669  p :     0.017489
      px      :     0.002888
      py      :     0.003932

 30 H s       :     0.628176  s :     0.628176
      pz      :     0.019216  p :     0.040835
      px      :     0.011552
      py      :     0.010067


------------------------
MULLIKEN OVERLAP CHARGES
------------------------
B(  0-C ,  1-C ) :   0.0683 B(  0-C ,  2-H ) :  -0.0721 B(  0-C , 18-H ) :   0.8022 
B(  0-C , 19-H ) :   0.8632 B(  0-C , 20-H ) :   0.8103 B(  1-C ,  2-H ) :   0.9867 
B(  1-C ,  3-C ) :  -0.1340 B(  1-C ,  4-C ) :  -0.2753 B(  1-C ,  5-C ) :   0.0716 
B(  1-C , 11-C ) :   0.1243 B(  1-C , 15-C ) :   0.3458 B(  1-C , 16-O ) :  -0.1200 
B(  1-C , 17-O ) :  -0.1290 B(  1-C , 19-H ) :  -0.1386 B(  1-C , 20-H ) :  -0.0940 
B(  2-H ,  3-C ) :  -0.1096 B(  2-H , 15-C ) :  -0.1240 B(  3-C ,  4-C ) :   0.6852 
B(  3-C ,  5-C ) :   0.1188 B(  3-C ,  6-C ) :  -0.1139 B(  3-C ,  7-C ) :  -0.0591 
B(  3-C , 10-C ) :   0.0766 B(  3-C , 11-C ) :   0.2951 B(  3-C , 16-O ) :  -0.0939 
B(  3-C , 18-H ) :  -0.0513 B(  3-C , 21-H ) :  -0.0755 B(  3-C , 26-H ) :  -0.1009 
B(  4-C ,  5-C ) :   0.3695 B(  4-C ,  6-C ) :  -0.0741 B(  4-C ,  7-C ) :   0.0997 
B(  4-C , 11-C ) :  -0.2876 B(  4-C , 12-C ) :   0.2838 B(  4-C , 21-H ) :   0.7944 
B(  5-C ,  6-C ) :   0.5915 B(  5-C ,  7-C ) :  -0.5457 B(  5-C ,  8-C ) :   0.0607 
B(  5-C , 10-C ) :   0.1231 B(  5-C , 11-C ) :   0.1725 B(  5-C , 12-C ) :  -0.7749 
B(  5-C , 21-H ) :  -0.0530 B(  5-C , 22-H ) :   0.7987 B(  6-C ,  7-C ) :  -0.3308 
B(  6-C ,  8-C ) :   0.2311 B(  6-C ,  9-C ) :   0.0797 B(  6-C , 10-C ) :  -0.1260 
B(  6-C , 11-C ) :   0.9618 B(  6-C , 22-H ) :  -0.0849 B(  6-C , 23-H ) :  -0.0949 
B(  7-C ,  8-C ) :   0.4048 B(  7-C ,  9-C ) :  -0.3464 B(  7-C , 10-C ) :  -0.4578 
B(  7-C , 11-C ) :   0.0751 B(  7-C , 12-C ) :   0.2675 B(  7-C , 13-O ) :  -0.1366 
B(  7-C , 23-H ) :   0.8016 B(  8-C ,  9-C ) :   0.8487 B(  8-C , 11-C ) :  -0.0881 
B(  8-C , 13-O ) :   0.5788 B(  8-C , 14-C ) :  -0.2981 B(  8-C , 24-H ) :  -0.0500 
B(  9-C , 10-C ) :   0.3671 B(  9-C , 11-C ) :  -0.1709 B(  9-C , 12-C ) :   0.0617 
B(  9-C , 13-O ) :  -0.1340 B(  9-C , 24-H ) :   0.7198 B( 10-C , 11-C ) :   0.6204 
B( 10-C , 12-C ) :  -0.4677 B( 10-C , 25-H ) :   0.7907 B( 11-C , 12-C ) :  -0.6273 
B( 11-C , 25-H ) :  -0.0684 B( 11-C , 26-H ) :  -0.0958 B( 12-C , 26-H ) :   0.8576 
B( 13-O , 14-C ) :   0.3762 B( 13-O , 27-H ) :  -0.0829 B( 13-O , 28-H ) :  -0.0842 
B( 13-O , 29-H ) :  -0.0825 B( 14-C , 27-H ) :   0.8274 B( 14-C , 28-H ) :   0.7759 
B( 14-C , 29-H ) :   0.8288 B( 15-C , 16-O ) :   1.1281 B( 15-C , 17-O ) :   0.3348 
B( 16-O , 17-O ) :  -0.2246 B( 17-O , 30-H ) :   0.5767 B( 27-H , 29-H ) :  -0.0811 



                     *******************************
                     * LOEWDIN POPULATION ANALYSIS *
                     *******************************

----------------------
LOEWDIN ATOMIC CHARGES
----------------------
   0 C :   -0.382270
   1 C :   -0.143448
   2 H :    0.188573
   3 C :   -0.079381
   4 C :   -0.138944
   5 C :   -0.141373
   6 C :   -0.048165
   7 C :   -0.119163
   8 C :    0.190319
   9 C :   -0.160900
  10 C :   -0.132239
  11 C :   -0.064876
  12 C :   -0.124710
  13 O :   -0.682298
  14 C :   -0.055870
  15 C :    0.352873
  16 O :   -0.416679
  17 O :   -0.402729
  18 H :    0.169169
  19 H :    0.162499
  20 H :    0.160812
  21 H :    0.177458
  22 H :    0.171932
  23 H :    0.184291
  24 H :    0.175903
  25 H :    0.171320
  26 H :    0.176467
  27 H :    0.164234
  28 H :    0.181085
  29 H :    0.164240
  30 H :    0.301867

-------------------------------
LOEWDIN REDUCED ORBITAL CHARGES
-------------------------------
  0 C s       :     2.960828  s :     2.960828
      pz      :     1.147372  p :     3.358758
      px      :     1.153369
      py      :     1.058018
      dz2     :     0.010861  d :     0.062684
      dxz     :     0.008290
      dyz     :     0.016055
      dx2y2   :     0.019415
      dxy     :     0.008064

  1 C s       :     2.881849  s :     2.881849
      pz      :     1.035884  p :     3.170192
      px      :     1.051241
      py      :     1.083067
      dz2     :     0.017253  d :     0.091406
      dxz     :     0.016939
      dyz     :     0.019796
      dx2y2   :     0.021641
      dxy     :     0.015777

  2 H s       :     0.768544  s :     0.768544
      pz      :     0.017160  p :     0.042883
      px      :     0.010865
      py      :     0.014858

  3 C s       :     2.857569  s :     2.857569
      pz      :     0.993713  p :     3.123336
      px      :     1.032613
      py      :     1.097009
      dz2     :     0.008462  d :     0.098476
      dxz     :     0.012881
      dyz     :     0.013204
      dx2y2   :     0.033613
      dxy     :     0.030315

  4 C s       :     2.894963  s :     2.894963
      pz      :     0.988156  p :     3.161584
      px      :     1.103701
      py      :     1.069727
      dz2     :     0.005819  d :     0.082397
      dxz     :     0.011278
      dyz     :     0.009195
      dx2y2   :     0.025503
      dxy     :     0.030600

  5 C s       :     2.894974  s :     2.894974
      pz      :     0.994260  p :     3.164894
      px      :     1.088387
      py      :     1.082248
      dz2     :     0.006033  d :     0.081505
      dxz     :     0.014187
      dyz     :     0.005606
      dx2y2   :     0.027362
      dxy     :     0.028316

  6 C s       :     2.840748  s :     2.840748
      pz      :     0.968418  p :     3.105312
      px      :     1.067531
      py      :     1.069363
      dz2     :     0.008209  d :     0.102105
      dxz     :     0.016188
      dyz     :     0.011802
      dx2y2   :     0.033028
      dxy     :     0.032878

  7 C s       :     2.881977  s :     2.881977
      pz      :     1.031592  p :     3.160961
      px      :     1.044071
      py      :     1.085299
      dz2     :     0.006320  d :     0.076224
      dxz     :     0.012387
      dyz     :     0.006159
      dx2y2   :     0.024052
      dxy     :     0.027306

  8 C s       :     2.778670  s :     2.778670
      pz      :     0.923494  p :     2.872891
      px      :     0.896189
      py      :     1.053208
      dz2     :     0.013227  d :     0.158119
      dxz     :     0.031597
      dyz     :     0.014458
      dx2y2   :     0.047096
      dxy     :     0.051741

  9 C s       :     2.890028  s :     2.890028
      pz      :     1.038082  p :     3.192249
      px      :     1.096006
      py      :     1.058160
      dz2     :     0.005789  d :     0.078623
      dxz     :     0.010923
      dyz     :     0.008657
      dx2y2   :     0.024598
      dxy     :     0.028657

 10 C s       :     2.894275  s :     2.894275
      pz      :     0.985701  p :     3.154941
      px      :     1.085500
      py      :     1.083740
      dz2     :     0.006174  d :     0.083022
      dxz     :     0.015593
      dyz     :     0.005629
      dx2y2   :     0.027920
      dxy     :     0.027706

 11 C s       :     2.840355  s :     2.840355
      pz      :     0.989123  p :     3.123991
      px      :     1.065555
      py      :     1.069313
      dz2     :     0.008222  d :     0.100530
      dxz     :     0.014496
      dyz     :     0.011724
      dx2y2   :     0.032691
      dxy     :     0.033397

 12 C s       :     2.883981  s :     2.883981
      pz      :     1.001198  p :     3.158477
      px      :     1.063576
      py      :     1.093703
      dz2     :     0.006681  d :     0.082252
      dxz     :     0.013966
      dyz     :     0.006709
      dx2y2   :     0.029036
      dxy     :     0.025860

 13 O s       :     3.471157  s :     3.471157
      pz      :     1.764681  p :     4.727773
      px      :     1.326602
      py      :     1.636490
      dz2     :     0.058710  d :     0.483368
      dxz     :     0.101447
      dyz     :     0.047731
      dx2y2   :     0.141714
      dxy     :     0.133766

 14 C s       :     2.903006  s :     2.903006
      pz      :     1.079257  p :     3.041772
      px      :     0.960353
      py      :     1.002162
      dz2     :     0.022433  d :     0.111091
      dxz     :     0.010747
      dyz     :     0.026403
      dx2y2   :     0.021353
      dxy     :     0.030156

 15 C s       :     2.741308  s :     2.741308
      pz      :     0.933991  p :     2.633008
      px      :     0.757637
      py      :     0.941380
      dz2     :     0.043321  d :     0.272811
      dxz     :     0.031320
      dyz     :     0.102399
      dx2y2   :     0.049286
      dxy     :     0.046484

 16 O s       :     3.553843  s :     3.553843
      pz      :     1.742379  p :     4.657042
      px      :     1.438399
      py      :     1.476263
      dz2     :     0.024797  d :     0.205794
      dxz     :     0.016276
      dyz     :     0.060225
      dx2y2   :     0.052155
      dxy     :     0.052341

 17 O s       :     3.466808  s :     3.466808
      pz      :     1.326168  p :     4.680390
      px      :     1.710528
      py      :     1.643694
      dz2     :     0.082098  d :     0.255531
      dxz     :     0.032435
      dyz     :     0.071385
      dx2y2   :     0.037704
      dxy     :     0.031909

 18 H s       :     0.785973  s :     0.785973
      pz      :     0.021579  p :     0.044858
      px      :     0.009329
      py      :     0.013950

 19 H s       :     0.793428  s :     0.793428
      pz      :     0.020954  p :     0.044073
      px      :     0.013100
      py      :     0.010019

 20 H s       :     0.795507  s :     0.795507
      pz      :     0.008794  p :     0.043681
      px      :     0.026835
      py      :     0.008052

 21 H s       :     0.777525  s :     0.777525
      pz      :     0.010524  p :     0.045017
      px      :     0.017130
      py      :     0.017363

 22 H s       :     0.783138  s :     0.783138
      pz      :     0.010379  p :     0.044930
      px      :     0.008726
      py      :     0.025824

 23 H s       :     0.770289  s :     0.770289
      pz      :     0.010976  p :     0.045420
      px      :     0.008952
      py      :     0.025492

 24 H s       :     0.777802  s :     0.777802
      pz      :     0.011987  p :     0.046294
      px      :     0.016571
      py      :     0.017736

 25 H s       :     0.783898  s :     0.783898
      pz      :     0.010367  p :     0.044782
      px      :     0.008719
      py      :     0.025696

 26 H s       :     0.777706  s :     0.777706
      pz      :     0.010706  p :     0.045827
      px      :     0.009219
      py      :     0.025902

 27 H s       :     0.794878  s :     0.794878
      pz      :     0.015389  p :     0.040888
      px      :     0.006341
      py      :     0.019159

 28 H s       :     0.779433  s :     0.779433
      pz      :     0.007366  p :     0.039482
      px      :     0.019730
      py      :     0.012385

 29 H s       :     0.794866  s :     0.794866
      pz      :     0.025535  p :     0.040895
      px      :     0.006764
      py      :     0.008596

 30 H s       :     0.582008  s :     0.582008
      pz      :     0.056462  p :     0.116125
      px      :     0.031019
      py      :     0.028644


---------------------------------
LOEWDIN BOND ORDERS (THRESH 0.050000)
---------------------------------
B(  0-C ,  1-C ) :   1.0848 B(  0-C ,  3-C ) :   0.0642 B(  0-C , 15-C ) :   0.0679 
B(  0-C , 17-O ) :   0.0556 B(  0-C , 18-H ) :   0.9043 B(  0-C , 19-H ) :   0.9140 
B(  0-C , 20-H ) :   0.9182 B(  1-C ,  2-H ) :   0.8291 B(  1-C ,  3-C ) :   1.0054 
B(  1-C ,  4-C ) :   0.0877 B(  1-C , 12-C ) :   0.0823 B(  1-C , 15-C ) :   0.8775 
B(  1-C , 16-O ) :   0.1814 B(  1-C , 17-O ) :   0.1626 B(  3-C ,  4-C ) :   1.3063 
B(  3-C ,  5-C ) :   0.0900 B(  3-C ,  6-C ) :   0.0730 B(  3-C , 11-C ) :   0.0923 
B(  3-C , 12-C ) :   1.5248 B(  3-C , 15-C ) :   0.0849 B(  3-C , 26-H ) :   0.0529 
B(  4-C ,  5-C ) :   1.6280 B(  4-C ,  6-C ) :   0.0895 B(  4-C , 11-C ) :   0.0771 
B(  4-C , 12-C ) :   0.0834 B(  4-C , 21-H ) :   0.8599 B(  4-C , 22-H ) :   0.0572 
B(  5-C ,  6-C ) :   1.2966 B(  5-C ,  7-C ) :   0.0963 B(  5-C , 11-C ) :   0.0767 
B(  5-C , 12-C ) :   0.1259 B(  5-C , 21-H ) :   0.0567 B(  5-C , 22-H ) :   0.8640 
B(  6-C ,  7-C ) :   1.3443 B(  6-C ,  8-C ) :   0.0932 B(  6-C ,  9-C ) :   0.0754 
B(  6-C , 10-C ) :   0.0778 B(  6-C , 11-C ) :   1.2258 B(  6-C , 12-C ) :   0.0774 
B(  6-C , 22-H ) :   0.0507 B(  6-C , 23-H ) :   0.0503 B(  7-C ,  8-C ) :   1.3764 
B(  7-C ,  9-C ) :   0.0845 B(  7-C , 10-C ) :   0.1290 B(  7-C , 11-C ) :   0.0793 
B(  7-C , 13-O ) :   0.2458 B(  7-C , 23-H ) :   0.8510 B(  8-C ,  9-C ) :   1.2301 
B(  8-C , 10-C ) :   0.0922 B(  8-C , 11-C ) :   0.0684 B(  8-C , 13-O ) :   1.4549 
B(  8-C , 14-C ) :   0.0790 B(  8-C , 23-H ) :   0.0548 B(  9-C , 10-C ) :   1.5974 
B(  9-C , 11-C ) :   0.0907 B(  9-C , 13-O ) :   0.1829 B(  9-C , 24-H ) :   0.8559 
B(  9-C , 25-H ) :   0.0563 B( 10-C , 11-C ) :   1.3205 B( 10-C , 12-C ) :   0.0968 
B( 10-C , 24-H ) :   0.0571 B( 10-C , 25-H ) :   0.8633 B( 11-C , 12-C ) :   1.3148 
B( 11-C , 25-H ) :   0.0510 B( 11-C , 26-H ) :   0.0505 B( 12-C , 26-H ) :   0.8508 
B( 13-O , 14-C ) :   1.3998 B( 13-O , 27-H ) :   0.1036 B( 13-O , 28-H ) :   0.1024 
B( 13-O , 29-H ) :   0.1036 B( 14-C , 27-H ) :   0.8609 B( 14-C , 28-H ) :   0.8596 
B( 14-C , 29-H ) :   0.8608 B( 15-C , 16-O ) :   2.1951 B( 15-C , 17-O ) :   1.4865 
B( 15-C , 30-H ) :   0.0554 B( 16-O , 17-O ) :   0.4677 B( 17-O , 30-H ) :   0.9121 


------------------------------------------
LOEWDIN REDUCED ORBITAL POPULATIONS PER MO
-------------------------------------------
THRESHOLD FOR PRINTING IS 0.1%%
                      0         1         2         3         4         5   
                 -19.00534 -18.98834 -18.93064 -10.16060 -10.09863 -10.09052
                   2.00000   2.00000   2.00000   2.00000   2.00000   2.00000
                  --------  --------  --------  --------  --------  --------
 8 C  s               0.0       0.0       0.0       0.0      99.2       0.0
13 O  s               0.0      99.9       0.0       0.0       0.0       0.0
13 O  px              0.0       0.0       0.0       0.0       0.1       0.1
13 O  dx2y2           0.0       0.0       0.0       0.0       0.2       0.0
13 O  dxy             0.0       0.0       0.0       0.0       0.1       0.2
14 C  s               0.0       0.0       0.0       0.0       0.0      99.4
15 C  s               0.0       0.0       0.0      98.9       0.0       0.0
16 O  s               0.0       0.0      99.9       0.0       0.0       0.0
16 O  py              0.0       0.0       0.0       0.2       0.0       0.0
16 O  dx2y2           0.0       0.0       0.0       0.1       0.0       0.0
16 O  dxy             0.0       0.0       0.0       0.1       0.0       0.0
17 O  s              99.9       0.0       0.0       0.0       0.0       0.0
17 O  dyz             0.0       0.0       0.0       0.2       0.0       0.0

                      6         7         8         9        10        11   
                 -10.05966 -10.04768 -10.04606 -10.04305 -10.04250 -10.04135
                   2.00000   2.00000   2.00000   2.00000   2.00000   2.00000
                  --------  --------  --------  --------  --------  --------
 1 C  s              99.6       0.0       0.0       0.0       0.0       0.0
 3 C  s               0.0      99.5       0.0       0.0       0.0       0.0
 4 C  py              0.0       0.1       0.0       0.0       0.0       0.0
 6 C  s               0.0       0.0      99.2       0.3       0.0       0.0
 7 C  px              0.0       0.0       0.1       0.0       0.0       0.0
 9 C  s               0.0       0.0       0.0       0.3       5.2      94.1
 9 C  px              0.0       0.0       0.0       0.0       0.1       0.0
10 C  s               0.0       0.0       0.0      12.4      81.8       5.5
10 C  px              0.0       0.0       0.0       0.0       0.0       0.1
11 C  s               0.0       0.0       0.3      86.5      12.6       0.1
11 C  py              0.0       0.0       0.1       0.0       0.0       0.0
12 C  px              0.0       0.1       0.0       0.1       0.0       0.0

                     12        13        14        15        16        17   
                 -10.03597 -10.03466 -10.03408 -10.03054 -10.03004  -1.07954
                   2.00000   2.00000   2.00000   2.00000   2.00000   2.00000
                  --------  --------  --------  --------  --------  --------
 0 C  s               0.0       0.0       0.0      99.7       0.0       0.1
 0 C  pz              0.0       0.0       0.0       0.0       0.0       0.2
 0 C  py              0.0       0.0       0.0       0.0       0.0       0.2
 1 C  s               0.0       0.0       0.0       0.0       0.0       1.0
 1 C  pz              0.0       0.0       0.0       0.0       0.0       1.8
 1 C  px              0.0       0.0       0.0       0.0       0.0       0.2
 3 C  s               0.1       0.0       0.0       0.0       0.0       0.1
 3 C  px              0.1       0.0       0.0       0.0       0.0       0.3
 4 C  s               0.0      62.4      37.2       0.0       0.0       0.0
 5 C  s               0.0      37.1      62.5       0.0       0.0       0.0
 6 C  px              0.0       0.0       0.0       0.0       0.1       0.0
 7 C  s               0.0       0.0       0.0       0.0      99.6       0.0
11 C  px              0.1       0.0       0.0       0.0       0.0       0.0
12 C  s              99.5       0.0       0.0       0.0       0.0       0.0
15 C  s               0.0       0.0       0.0       0.0       0.0      16.9
15 C  pz              0.0       0.0       0.0       0.0       0.0       5.3
15 C  py              0.0       0.0       0.0       0.0       0.0       0.2
15 C  dyz             0.0       0.0       0.0       0.0       0.0       0.4
15 C  dx2y2           0.0       0.0       0.0       0.0       0.0       0.5
15 C  dxy             0.0       0.0       0.0       0.0       0.0       0.2
16 O  s               0.0       0.0       0.0       0.0       0.0      11.4
16 O  px              0.0       0.0       0.0       0.0       0.0       0.4
16 O  py              0.0       0.0       0.0       0.0       0.0       2.7
16 O  dz2             0.0       0.0       0.0       0.0       0.0       0.2
16 O  dyz             0.0       0.0       0.0       0.0       0.0       0.1
16 O  dx2y2           0.0       0.0       0.0       0.0       0.0       0.7
16 O  dxy             0.0       0.0       0.0       0.0       0.0       0.5
17 O  s               0.0       0.0       0.0       0.0       0.0      44.0
17 O  pz              0.0       0.0       0.0       0.0       0.0       0.4
17 O  px              0.0       0.0       0.0       0.0       0.0       0.3
17 O  py              0.0       0.0       0.0       0.0       0.0       2.6
17 O  dyz             0.0       0.0       0.0       0.0       0.0       0.4
17 O  dx2y2           0.0       0.0       0.0       0.0       0.0       0.2
30 H  s               0.0       0.0       0.0       0.0       0.0       6.5
30 H  pz              0.0       0.0       0.0       0.0       0.0       1.2
30 H  px              0.0       0.0       0.0       0.0       0.0       0.1
30 H  py              0.0       0.0       0.0       0.0       0.0       0.1

                     18        19        20        21        22        23   
                  -1.03557  -0.97691  -0.84944  -0.80860  -0.76769  -0.74610
                   2.00000   2.00000   2.00000   2.00000   2.00000   2.00000
                  --------  --------  --------  --------  --------  --------
 0 C  s               0.0       0.0       0.4       3.4       8.2       0.8
 0 C  px              0.0       0.0       0.1       0.2       0.1       0.0
 0 C  py              0.0       0.0       0.2       1.1       1.3       0.1
 1 C  s               0.0       0.2       1.9      10.5      12.9       1.1
 1 C  px              0.0       0.1       0.8       1.1       0.1       0.1
 1 C  py              0.0       0.4       0.0       0.0       0.8       0.0
 2 H  s               0.0       0.0       0.2       1.3       1.8       0.2
 3 C  s               0.0       0.0       7.4      12.9       0.3       0.1
 3 C  pz              0.0       0.0       0.0       0.0       0.0       0.3
 3 C  px              0.0       0.1       0.8       0.4       5.3       1.3
 3 C  py              0.0       0.0       0.0       0.0       1.4       1.5
 3 C  dz2             0.0       0.0       0.1       0.1       0.0       0.0
 4 C  s               0.0       0.0       5.7       5.7       3.4       1.5
 4 C  pz              0.0       0.0       0.1       0.1       0.0       0.0
 4 C  px              0.0       0.0       0.6       0.2       2.9       0.4
 4 C  py              0.0       0.0       0.8       1.4       0.3       0.3
 5 C  s               0.0       0.0       6.8       0.8       8.9       4.5
 5 C  pz              0.0       0.0       0.2       0.0       0.0       0.0
 5 C  px              0.0       0.0       0.0       1.9       0.0       0.1
 5 C  py              0.0       0.0       1.7       0.0       0.6       0.1
 6 C  s               0.1       0.0      13.3       1.2       4.2       2.8
 6 C  pz              0.0       0.0       0.0       0.1       0.2       0.3
 6 C  px              0.1       0.0       0.1       2.7       2.3       1.5
 6 C  py              0.0       0.0       0.5       0.3       0.7       5.1
 6 C  dz2             0.0       0.0       0.1       0.0       0.0       0.0
 6 C  dx2y2           0.0       0.0       0.0       0.0       0.0       0.1
 7 C  s               0.7       0.0       5.5       4.5       0.1      10.6
 7 C  pz              0.1       0.0       0.0       0.1       0.2       0.0
 7 C  px              1.0       0.0       1.1       0.0       1.9       0.0
 7 C  py              0.3       0.0       0.8       1.0       0.5       0.2
 8 C  s               8.9       0.0       2.7       4.9       3.2       4.3
 8 C  pz              0.0       0.0       0.0       0.0       0.0       0.4
 8 C  px              8.1       0.0       2.3       2.4       0.5       0.7
 8 C  py              0.5       0.0       0.0       0.2       0.9       3.0
 8 C  dz2             0.3       0.0       0.0       0.0       0.0       0.0
 8 C  dx2y2           0.5       0.0       0.0       0.0       0.0       0.0
 8 C  dxy             0.2       0.0       0.0       0.0       0.0       0.0
 9 C  s               0.7       0.0       3.9       6.8       6.5       1.0
 9 C  px              0.4       0.0       1.1       0.6       0.2       1.9
 9 C  py              0.9       0.0       0.3       0.5       0.2       1.7
 9 C  dx2y2           0.0       0.0       0.0       0.0       0.0       0.1
10 C  s               0.1       0.0       6.5       4.7       2.7       9.8
10 C  pz              0.0       0.0       0.2       0.0       0.0       0.0
10 C  px              0.1       0.0       0.1       1.0       1.6       0.7
10 C  py              0.0       0.0       1.6       0.5       0.0       0.2
11 C  s               0.0       0.0      14.1       0.7       0.4       8.8
11 C  pz              0.0       0.0       0.0       0.1       0.3       0.3
11 C  px              0.0       0.0       0.0       4.2       0.8       0.3
11 C  py              0.0       0.0       0.4       0.0       2.0       4.4
11 C  dz2             0.0       0.0       0.1       0.0       0.0       0.1
12 C  s               0.0       0.0       8.1       3.1       0.1       7.0
12 C  pz              0.0       0.0       0.1       0.3       0.0       0.1
12 C  px              0.0       0.0       0.5       2.4       0.7       1.6
12 C  py              0.0       0.0       1.2       1.0       0.3       0.1
13 O  s              57.0       0.0       0.4       0.7       0.3       0.1
13 O  pz              0.1       0.0       0.0       0.0       0.0       0.2
13 O  px              0.3       0.0       0.6       1.6       1.5       4.8
13 O  py              2.0       0.0       0.0       0.0       0.0       0.4
13 O  dz2             0.3       0.0       0.0       0.1       0.0       0.0
13 O  dx2y2           0.1       0.0       0.1       0.2       0.1       0.4
13 O  dxy             0.0       0.0       0.1       0.2       0.3       0.2
14 C  s               7.1       0.0       0.2       0.7       0.7       3.3
14 C  pz              0.6       0.0       0.0       0.0       0.0       0.0
14 C  px              4.2       0.0       0.0       0.1       0.1       0.1
14 C  py              2.5       0.0       0.1       0.1       0.1       0.1
14 C  dxy             0.4       0.0       0.0       0.0       0.0       0.0
15 C  s               0.0       4.0       0.1       0.6       1.2       0.1
15 C  pz              0.0       1.2       0.4       2.5       3.2       0.3
15 C  px              0.0       2.4       0.2       0.8       0.6       0.1
15 C  py              0.0      20.4       0.1       0.6       1.2       0.1
15 C  dz2             0.0       0.6       0.0       0.0       0.0       0.0
15 C  dyz             0.0       0.6       0.0       0.0       0.0       0.0
15 C  dx2y2           0.0       0.3       0.0       0.0       0.0       0.0
15 C  dxy             0.0       0.5       0.0       0.0       0.0       0.0
16 O  s               0.0      43.1       0.1       0.5       0.6       0.1
16 O  pz              0.0       0.2       0.0       0.0       0.1       0.0
16 O  px              0.0       0.6       0.0       0.0       0.0       0.0
16 O  py              0.0       3.0       0.0       0.1       0.1       0.0
16 O  dyz             0.0       0.2       0.0       0.1       0.2       0.0
17 O  s               0.0      16.3       0.0       0.2       0.3       0.0
17 O  pz              0.0       0.4       0.0       0.5       1.4       0.2
17 O  py              0.0       0.5       0.0       0.0       0.0       0.0
17 O  dz2             0.0       0.1       0.0       0.2       0.3       0.0
17 O  dyz             0.0       0.6       0.0       0.0       0.0       0.0
17 O  dx2y2           0.0       0.4       0.0       0.0       0.0       0.0
17 O  dxy             0.0       0.1       0.0       0.0       0.0       0.0
18 H  s               0.0       0.0       0.0       0.4       1.2       0.1
19 H  s               0.0       0.0       0.0       0.4       1.1       0.1
20 H  s               0.0       0.0       0.0       0.4       1.2       0.1
21 H  s               0.0       0.0       0.5       0.6       0.3       0.3
22 H  s               0.0       0.0       0.6       0.1       1.1       0.8
23 H  s               0.0       0.0       0.5       0.4       0.0       1.7
[...]
14 C  s               0.0       0.0       0.0       0.5      93.8       2.7
15 C  s               0.3       0.0       0.1       0.1       0.1       0.8
15 C  pz              0.5       0.0       0.0       0.0       0.0       0.0
15 C  px              0.4       0.0       0.0       0.0       0.0       0.0
15 C  py              3.4       0.0       0.0       0.0       0.0       0.0
15 C  dz2             0.5       0.0       0.0       0.0       0.0       0.0
15 C  dxz             0.3       0.0       0.0       0.0       0.0       0.0
15 C  dyz             2.7       0.0       0.0       0.0       0.0       0.0
15 C  dxy             0.5       0.0       0.0       0.0       0.0       0.0
16 O  s               2.9       0.0       0.0       0.0       0.0       0.0
16 O  px              0.5       0.0       0.0       0.0       0.0       0.0
16 O  py              3.0       0.0       0.0       0.0       0.0       0.0
16 O  dz2             1.9       0.0       0.0       0.0       0.0       0.0
16 O  dx2y2           2.0       0.0       0.0       0.0       0.0       0.0
16 O  dxy             1.8       0.0       0.0       0.0       0.0       0.0
17 O  s               4.1       0.0       0.0       0.0       0.0       0.0
17 O  pz             17.8       0.0       0.0       0.0       0.0       0.0
17 O  px              1.1       0.0       0.0       0.0       0.0       0.0
17 O  py              0.3       0.0       0.0       0.0       0.0       0.0
17 O  dz2             6.8       0.0       0.0       0.0       0.0       0.0
17 O  dxz             7.1       0.0       0.0       0.0       0.0       0.0
17 O  dyz            17.8       0.0       0.0       0.0       0.0       0.0
17 O  dxy             0.9       0.0       0.0       0.0       0.0       0.0
30 H  s              10.7       0.0       0.0       0.0       0.0       0.0
30 H  pz              9.4       0.0       0.0       0.0       0.0       0.0
30 H  px              1.2       0.0       0.0       0.0       0.0       0.0
30 H  py              1.6       0.0       0.0       0.0       0.0       0.0

                    396       397       398       399       400       401   
                  22.03233  22.08111  22.16567  22.20239  22.24205  22.27139
                   0.00000   0.00000   0.00000   0.00000   0.00000   0.00000
                  --------  --------  --------  --------  --------  --------
 0 C  s              67.0       1.9       1.9       0.0       0.2      11.2
 1 C  s              15.8       0.6       1.5       0.0       0.0      36.3
 3 C  s               1.0      27.1      11.2       1.5       0.0       5.8
 4 C  s               2.9       2.5       8.1      13.6       2.4       5.0
 5 C  s               0.2      12.6       0.1       1.6       5.2      13.8
 6 C  s               0.3       1.0      16.6       2.7       3.1       6.1
 7 C  s               1.6      13.8       3.1       5.1      17.7       0.2
 8 C  s               2.2      11.3      20.5       0.9      12.2       5.4
 9 C  s               0.7       1.9       6.7      20.8       1.0       1.8
10 C  s               0.8       7.6       1.1      19.1      19.5       0.0
11 C  s               6.4       1.6       4.3       2.7      19.1       0.2
12 C  s               0.3       7.7       4.0      22.1      14.4       0.4
14 C  s               0.5       0.4       0.4       0.0       0.8       0.0
15 C  s               0.0       9.4      19.9       9.3       4.0      13.2

                    402       403       404       405       406       407   
                  22.30709  22.36334  22.42281  43.68060  43.70905  43.73050
                   0.00000   0.00000   0.00000   0.00000   0.00000   0.00000
                  --------  --------  --------  --------  --------  --------
 0 C  s               5.2       0.2       0.8       0.0       0.0       0.0
 1 C  s              35.1       2.9       4.3       0.0       0.0       0.0
 3 C  s               1.1       3.1      26.0       0.0       0.0       0.0
 4 C  s              15.0       0.1       8.3       0.0       0.0       0.0
 5 C  s              22.4       1.6       4.0       0.0       0.0       0.0
 6 C  s               0.9      11.5       5.3       0.0       0.0       0.0
 7 C  s               2.9      17.1       0.9       0.0       0.0       0.0
 8 C  s               6.4      17.0       0.4       0.0       0.0       0.0
 9 C  s               1.4      12.0       0.1       0.0       0.0       0.0
10 C  s               1.8      13.3       1.0       0.0       0.0       0.0
11 C  s               0.3      11.1       5.6       0.0       0.0       0.0
12 C  s               0.5       0.0      15.9       0.0       0.0       0.0
13 O  s               0.0       0.0       0.0       0.0       0.0      99.9
14 C  s               0.1       0.3       0.0       0.0       0.0       0.0
15 C  s               6.2       9.2      26.9       0.1       0.0       0.0
16 O  s               0.0       0.0       0.1       4.5      95.4       0.0
17 O  s               0.0       0.0       0.0      95.3       4.5       0.0



                      *****************************
                      * MAYER POPULATION ANALYSIS *
                      *****************************

  NA   - Mulliken gross atomic population
  ZA   - Total nuclear charge
  QA   - Mulliken gross atomic charge
  VA   - Mayer's total valence
  BVA  - Mayer's bonded valence
  FA   - Mayer's free valence

  ATOM       NA         ZA         QA         VA         BVA        FA
  0 C      6.5259     6.0000    -0.5259     3.7881     3.7881     0.0000
  1 C      6.0806     6.0000    -0.0806     3.7063     3.7063     0.0000
  2 H      0.8183     1.0000     0.1817     0.9551     0.9551     0.0000
  3 C      5.8179     6.0000     0.1821     3.4978     3.4978     0.0000
  4 C      6.2325     6.0000    -0.2325     3.8587     3.8587    -0.0000
  5 C      6.2898     6.0000    -0.2898     3.6716     3.6716     0.0000
  6 C      5.7453     6.0000     0.2547     3.7470     3.7470     0.0000
  7 C      6.3985     6.0000    -0.3985     3.6723     3.6723    -0.0000
  8 C      5.6588     6.0000     0.3412     3.8512     3.8512    -0.0000
  9 C      6.2889     6.0000    -0.2889     3.7373     3.7373     0.0000
 10 C      6.2725     6.0000    -0.2725     3.6924     3.6924     0.0000
 11 C      5.8481     6.0000     0.1519     3.8932     3.8932     0.0000
 12 C      6.2575     6.0000    -0.2575     3.8300     3.8300     0.0000
 13 O      8.1806     8.0000    -0.1806     1.9816     1.9816    -0.0000
 14 C      6.3333     6.0000    -0.3333     3.7681     3.7681     0.0000
 15 C      5.7043     6.0000     0.2957     3.9585     3.9585    -0.0000
 16 O      8.3845     8.0000    -0.3845     1.9901     1.9901    -0.0000
 17 O      8.3336     8.0000    -0.3336     1.9469     1.9469    -0.0000
 18 H      0.8336     1.0000     0.1664     0.9585     0.9585    -0.0000
 19 H      0.8294     1.0000     0.1706     0.9567     0.9567     0.0000
 20 H      0.8409     1.0000     0.1591     0.9599     0.9599    -0.0000
 21 H      0.8441     1.0000     0.1559     0.9666     0.9666    -0.0000
 22 H      0.8582     1.0000     0.1418     0.9726     0.9726     0.0000
 23 H      0.8453     1.0000     0.1547     0.9702     0.9702    -0.0000
 24 H      0.8531     1.0000     0.1469     0.9698     0.9698     0.0000
 25 H      0.8579     1.0000     0.1421     0.9724     0.9724     0.0000
 26 H      0.8593     1.0000     0.1407     0.9704     0.9704     0.0000
 27 H      0.8471     1.0000     0.1529     0.9528     0.9528     0.0000
 28 H      0.8439     1.0000     0.1561     0.9574     0.9574    -0.0000
 29 H      0.8472     1.0000     0.1528     0.9529     0.9529     0.0000
 30 H      0.6690     1.0000     0.3310     0.8975     0.8975    -0.0000

  Mayer bond orders larger than 0.100000
B(  0-C ,  1-C ) :   0.8589 B(  0-C , 18-H ) :   0.9633 B(  0-C , 19-H ) :   0.9867 
B(  0-C , 20-H ) :   0.9709 B(  1-C ,  2-H ) :   0.9901 B(  1-C ,  3-C ) :   0.7893 
B(  1-C , 15-C ) :   0.9854 B(  3-C ,  4-C ) :   1.2595 B(  3-C , 12-C ) :   1.4955 
B(  4-C ,  5-C ) :   1.4882 B(  4-C , 21-H ) :   0.9413 B(  5-C ,  6-C ) :   1.1740 
B(  5-C , 22-H ) :   0.9575 B(  6-C ,  7-C ) :   1.1457 B(  6-C , 11-C ) :   1.4824 
B(  7-C ,  8-C ) :   1.4996 B(  7-C , 23-H ) :   0.9443 B(  8-C ,  9-C ) :   1.2427 
B(  8-C , 13-O ) :   1.0540 B(  9-C , 10-C ) :   1.4720 B(  9-C , 24-H ) :   0.9180 
B( 10-C , 11-C ) :   1.2233 B( 10-C , 25-H ) :   0.9538 B( 11-C , 12-C ) :   1.2079 
B( 12-C , 26-H ) :   0.9413 B( 13-O , 14-C ) :   0.8518 B( 14-C , 27-H ) :   0.9640 
B( 14-C , 28-H ) :   0.9678 B( 14-C , 29-H ) :   0.9642 B( 15-C , 16-O ) :   1.9293 
B( 15-C , 17-O ) :   1.0380 B( 17-O , 30-H ) :   0.8588 

-------
TIMINGS
-------

Total SCF time: 0 days 0 hours 1 min 21 sec 

Total time                  ....      81.199 sec
Sum of individual times     ....      80.128 sec  ( 98.7%)

SCF preparation             ....       0.318 sec  (  0.4%)
Fock matrix formation       ....      76.308 sec  ( 94.0%)
  Startup                   ....       0.120 sec  (  0.2% of F)
  Split-RI-J                ....      23.432 sec  ( 30.7% of F)
  XC integration            ....      51.838 sec  ( 67.9% of F)
    XC Preparation          ....       0.000 sec  (  0.0% of XC)
    Basis function eval.    ....       8.811 sec  ( 17.0% of XC)
    Density eval.           ....      19.195 sec  ( 37.0% of XC)
    XC-Functional eval.     ....       4.260 sec  (  8.2% of XC)
    XC-Potential eval.      ....      17.341 sec  ( 33.5% of XC)
Diagonalization             ....       0.000 sec  (  0.0%)
Density matrix formation    ....       0.571 sec  (  0.7%)
Total Energy calculation    ....       0.071 sec  (  0.1%)
Population analysis         ....       0.593 sec  (  0.7%)
Orbital Transformation      ....       0.187 sec  (  0.2%)
Orbital Orthonormalization  ....       0.000 sec  (  0.0%)
DIIS solution               ....       1.889 sec  (  2.3%)
  MO trafo                  ....       0.000 sec  (  0.0 % of DIIS)
  Orb grad                  ....       0.000 sec  (  0.0 % of DIIS)
  Energy W gradient         ....       0.000 sec  (  0.0 % of DIIS)
  DIIS error                ....       0.080 sec  (  4.2 % of DIIS)
  DIIS work                 ....       1.665 sec  ( 88.1 % of DIIS)
  Form Q                    ....       0.000 sec  (  0.0 % of DIIS)
  Form QpQm                 ....       0.000 sec  (  0.0 % of DIIS)
  Exp/Cayley                ....       0.000 sec  (  0.0 % of DIIS)
  Orb update                ....       0.000 sec  (  0.0 % of DIIS)
  Wake-sleep                ....       0.038 sec  (  2.0 % of DIIS)
SOSCF solution              ....       0.192 sec  (  0.2%)
  MO trafo                  ....       0.123 sec  ( 64.2 % of SOSCF)
  Orb grad                  ....       0.001 sec  (  0.5 % of SOSCF)
  Rot update                ....       0.000 sec  (  0.1 % of SOSCF)
  Step                      ....       0.067 sec  ( 35.1 % of SOSCF)
Finished LeanSCF after  81.3 sec

Maximum memory used throughout the entire LEANSCF-calculation: 49.7 MB


-------------------------------------------------------------------------------
                          DFT DISPERSION CORRECTION                            
                                                                               
                                DFTD4 V3.4.0                                   
-------------------------------------------------------------------------------
The R2SCAN3C composite method is recognized
Using three-body term ABC
Active option DFTDOPT                   ...         5   

-------------------------   ----------------
Dispersion correction           -0.013084234
-------------------------   ----------------

------------------   -----------------
gCP correction             0.013666286
------------------   -----------------

-------------------------   --------------------
FINAL SINGLE POINT ENERGY      -767.443895782428
-------------------------   --------------------


------------------------------------------------------------------------------
                              ORCA PROPERTY CALCULATIONS
------------------------------------------------------------------------------

GBWName                                 ... sp_gas.gbw
Number of atoms                         ...     31
Number of basis functions               ...    408
Max core memory                         ...   1024 MB

Electric properties:
Dipole moment                           ... YES
Quadrupole moment                       ...  NO
Static polarizability (Dipole/Dipole)   ...  NO
Static polarizability (Dipole/Quad.)    ...  NO
Static polarizability (Quad./Quad.)     ...  NO
Static polarizability (Velocity)        ...  NO

Atomic electric properties:
Dipole moment                           ...  NO
Quadrupole moment                       ...  NO
Static polarizability                   ...  NO

Choice of electric origin               ... Center of mass
Position of electric origin             ...     0.000014     0.000010    -0.000010

General magnetic properties:
Magnetizability                         ...  NO

EPR properties:
g-Tensor (aka g-matrix)                 ...  NO
Zero-Field splitting spin-orbit         ...  NO
Zero-field splitting spin-spin          ...  NO
Hyperfine couplings                     ...  NO (   0 nuclei)
Quadrupole couplings                    ...  NO (   0 nuclei)
Contact density                         ...  NO (   0 nuclei)

NMR properties:
Chemical shifts                         ...  NO (   0 nuclei)
Spin-rotation constants                 ...  NO (   0 nuclei)
Spin-spin couplings                     ...  NO (   0 nuclei,    0 pairs)

Choice of magnetic origin               ... GIAO
Position of magnetic origin             ...     0.000000     0.000000     0.000000

Properties with geometric perturbations:
SCF Hessian                             ...  NO
IR spectrum                             ...  NO
VCD spectrum                            ...  NO
X-ray spectroscopy properties:
SCF XES/XAS/RIXS spectra                ...  NO


-------------
DIPOLE MOMENT
-------------

Method             : SCF
Type of density    : Electron Density
Multiplicity       :   1
Irrep              :   0
Energy             :  -767.4444778340523499 Eh
Relativity type    : 
Basis              : AO
                                X                 Y                 Z
Electronic contribution:     -3.484202635      -5.654349123       1.922155867
Nuclear contribution   :      4.267798847       6.788511437      -1.649489053
                        -----------------------------------------
Total Dipole Moment    :      0.783596213       1.134162314       0.272666814
                        -----------------------------------------
Magnitude (a.u.)       :      1.405238190
Magnitude (Debye)      :      3.571831622



--------------------
Rotational spectrum 
--------------------
 
Rotational constants in cm-1:             0.043806             0.007102             0.006696 
Rotational constants in MHz :          1313.272093           212.904477           200.755475 

Dipole components along the rotational axes: 
x,y,z [a.u.] :     0.781975     1.167563    -0.002521 
x,y,z [Debye]:     1.987623     2.967709    -0.006408 

 

Dipole moment calculation done in   0.0 sec 

Maximum memory used throughout the entire PROP-calculation: 32.9 MB

--------------------------------
SUGGESTED CITATIONS FOR THIS RUN
--------------------------------

Below you find a list of papers that are relevant to this ORCA run
We neither can nor want to force you to cite these papers, but we appreciate if you do
You receive ORCA, which is the product of decades of hard work by many enthusiastic individuals, for free
The only thing we kindly ask in return is that you cite our papers,
We deeply appreciate it, if you show your appreciation for ORCA by not just citing the generic ORCA reference.

Please note that relegating all ORCA citations to the supporting information does *not* help us.
SI sections are not indexed - citations you put there will not count into any citation statistics
But we need these citations in order to attract the funding resources that allow us to do what we are doing

Therefore, if you are a happy ORCA user, please consider citing a few of the papers listed below in the main body of your paper

In addition to the list printed below, the program has created the file sp_gas.bibtex that contains the list in bibtex format
You can import this file easily into all common literature databanks and citation aid programs


List of essential papers. We consider these as the minimum necessary citations

  1. Neese,F.
     Software update: the ORCA program system, version 5.0
     WIRES Comput. Molec. Sci., 2022 12(1)e1606
     doi.org/10.1002/wcms.1606
  2. Grimme,S.; Hansen,A.; Ehlert,S.; Mewes,J.
     r2SCAN-3c: A 'Swiss army knife' composite electronic-structure method
     J. Chem. Phys., 2021 154 064103
     doi.org/10.1063/5.0040021

List of papers to cite with high priority. The work reported in these papers was absolutely
necessary for this run to complete.
Our perspective: the developers of density functionals and basis sets usually get cited in chemistry papers
Good! But without the algorithms to do something with them, the functionals or basis sets would not do anything.
Hence, in our opinion, the algorithm design and method developments papers are equally worthy of getting cited

  1. Neese,F.
     An improvement of the resolution of the identity approximation for the formation of the Coulomb matrix
     J. Comp. Chem., 2003 24(14)1740-1747
     doi.org/10.1002/jcc.10318
  2. Neese,F.
     The SHARK Integral Generation and Digestion System
     J. Comp. Chem., 2022  1-16
     doi.org/10.1002/jcc.26942
  3. Lehtola,S.; Steigemann,C.; Oliveira,M.; Marques,M.
     Recent developments in Libxc - A comprehensive library of functionals for density functional theory
     Software X, 2018 7 
     doi.org/10.1016/j.softx.2017.11.002
  4. Caldeweyher,E.; Bannwarth,C.; Grimme,S.
     Extension of the D3 dispersion coefficient model
     J. Chem. Phys., 2017 147 034112-XXXX
     doi.org/10.1063/1.4993215
  5. Caldeweyher,E.; Ehlert,S.; Hansen,A.; Neugebauer,H.; Spicher,S.; Bannwarth,C.; Grimme,S.
     A generally applicable atomic-charge dependent London dispersion correction
     J. Chem. Phys., 2019 150 154122-XXXX
     doi.org/10.1063/1.5090222
  6. Caldeweyher,E.; Mewes,J.; Ehlert,S.; Grimme,S.
     Extension and evaluation of the D4 London-dispersion model for periodic systems
     Phys. Chem. Chem. Phys., 2020 22(16)8499-8512
     doi.org/10.1039/D0CP00502A

List of suggested additional citations. These are papers that are important in the 'surrounding' of 
of this run, or papers that preceded the highly important papers. If you like your results we are grateful for a citation.

  1. Neese,F.
     The ORCA program system
     WIRES Comput. Molec. Sci., 2012 2(1)73-78
     doi.org/10.1002/wcms.81
  2. Neese,F.
     Software update: the ORCA program system, version 4.0
     WIRES Comput. Molec. Sci., 2018 8(1)1-6
     doi.org/10.1002/wcms.1327
  3. Neese,F.; Wennmohs,F.; Becker,U.; Riplinger,C.
     The ORCA quantum chemistry program package
     J. Chem. Phys., 2020 152 Art. No. L224108
     doi.org/10.1063/5.0004608

List of optional additional citations

  1. Neese,F.
     Approximate second-order SCF convergence for spin unrestricted wavefunctions
     Chem. Phys. Lett., 2000 325(1-3)93-98
     doi.org/10.1016/s0009-2614(00)00662-x

Timings for individual modules:

Sum of individual times          ...       85.610 sec (=   1.427 min)
Startup calculation              ...        3.267 sec (=   0.054 min)   3.8 %
SCF iterations                   ...       82.158 sec (=   1.369 min)  96.0 %
Property calculations            ...        0.185 sec (=   0.003 min)   0.2 %
                             ****ORCA TERMINATED NORMALLY****
TOTAL RUN TIME: 0 days 0 hours 1 minutes 26 seconds 786 msec
