
                                 *****************
                                 * O   R   C   A *
                                 *****************

                                            #,                                       
                                            ###                                      
                                            ####                                     
                                            #####                                    
                                            ######                                   
                                           ########,                                 
                                     ,,################,,,,,                         
                               ,,#################################,,                 
                          ,,##########################################,,             
                       ,#########################################, ''#####,          
                    ,#############################################,,   '####,        
                  ,##################################################,,,,####,       
                ,###########''''           ''''###############################       
              ,#####''   ,,,,##########,,,,          '''####'''          '####       
            ,##' ,,,,###########################,,,                        '##       
           ' ,,###''''                  '''############,,,                           
         ,,##''                                '''############,,,,        ,,,,,,###''
      ,#''                                            '''#######################'''  
     '                                                          ''''####''''         
             ,#######,   #######,   ,#######,      ##                                
            ,#'     '#,  ##    ##  ,#'     '#,    #''#        ,####,   ,####,        
            ##       ##  ##   ,#'  ##            #'  '#       #'       #'  '#        
            ##       ##  #######   ##           ,######,      #####,   #    #        
            '#,     ,#'  ##    ##  '#,     ,#' ,#      #,     #,   #   #,  ,#        
             '#######'   ##     ##  '#######'  #'      '#     '####' # '####'        



                #########################################################
                #                        -***-                          #
                #          Department of theory and spectroscopy        #
                #                                                       #
                #                      Frank Neese                      #
                #                                                       #
                #     Directorship, Architecture, Infrastructure        #
                #                    SHARK, DRIVERS                     #
                #        Core code/Algorithms in most modules           #
                #                                                       #
                #        Max Planck Institute fuer Kohlenforschung      #
                #                Kaiser Wilhelm Platz 1                 #
                #                 D-45470 Muelheim/Ruhr                 #
                #                      Germany                          #
                #                                                       #
                #                  All rights reserved                  #
                #                        -***-                          #
                #########################################################


                         Program Version 6.0.0  -   RELEASE  -


 With contributions from (in alphabetic order):
   Daniel Aravena         : Magnetic Suceptibility
   Michael Atanasov       : Ab Initio Ligand Field Theory (pilot matlab implementation)
   Alexander A. Auer      : GIAO ZORA, VPT2 properties, NMR spectrum
   Ute Becker             : All parallelization in ORCA, NUMFREQ, NUMCALC
   Giovanni Bistoni       : ED, misc. LED, open-shell LED, HFLD
   Martin Brehm           : Molecular dynamics
   Dmytro Bykov           : pre 5.0 version of the SCF Hessian
   Marcos Casanova-Páez   : Triplet and SCS-CIS(D). UHF-(DLPNO)-IP/EA/STEOM-CCSD. UHF-CVS-IP/STEOM-CCSD
   Vijay G. Chilkuri      : MRCI spin determinant printing, contributions to CSF-ICE
   Pauline Colinet        : FMM embedding
   Dipayan Datta          : RHF DLPNO-CCSD density
   Achintya Kumar Dutta   : EOM-CC, STEOM-CC
   Nicolas Foglia         : Exact transition moments, OPA infrastructure, MCD improvements
   Dmitry Ganyushin       : Spin-Orbit,Spin-Spin,Magnetic field MRCI
   Miquel Garcia          : C-PCM and meta-GGA Hessian, CCSD/C-PCM, Gaussian charge scheme
   Tiago L. C. Gouveia    : GS-ROHF, GS-ROCIS
   Yang Guo               : DLPNO-NEVPT2, F12-NEVPT2, CIM, IAO-localization
   Andreas Hansen         : Spin unrestricted coupled pair/coupled cluster methods
   Ingolf Harden          : AUTO-CI MPn and infrastructure 
   Benjamin Helmich-Paris : MC-RPA, TRAH-(SCF,CASSCF), AVAS, COSX integrals, SCF dyn. polar.
   Lee Huntington         : MR-EOM, pCC
   Robert Izsak           : Overlap fitted RIJCOSX, COSX-SCS-MP3, EOM
   Riya Kayal             : Wick's Theorem for AUTO-CI, AUTO-CI UHF-CCSDT
   Emily Kempfer          : AUTO-CI, RHF CISDT and CCSDT
   Christian Kollmar      : KDIIS, OOCD, Brueckner-CCSD(T), CCSD density, CASPT2, CASPT2-K, improved NEVPT2
   Axel Koslowski         : Symmetry handling
   Simone Kossmann        : Meta GGA functionals, TD-DFT gradient, OOMP2, (MP2 Hessian; deprecated post 5.0)
   Lucas Lang             : DCDCAS
   Marvin Lechner         : AUTO-CI (C++ implementation), FIC-MRCC
   Spencer Leger          : CASSCF response
   Dagmar Lenk            : GEPOL surface, SMD, ORCA-2-JSON
   Dimitrios Liakos       : Extrapolation schemes; Compound Job, initial MDCI parallelization
   Dimitrios Manganas     : Further ROCIS development; embedding schemes. LFT, Crystal Embedding
   Dimitrios Pantazis     : SARC Basis sets
   Anastasios Papadopoulos: AUTO-CI, single reference methods and gradients
   Taras Petrenko         : pre 6.0 DFT Hessian and TD-DFT gradient, (ASA, deprecated), ECA, 1-Electron XAS/XES, NRVS
   Peter Pinski           : DLPNO-MP2, DLPNO-MP2 Gradient
   Christoph Reimann      : Effective Core Potentials
   Marius Retegan         : Local ZFS, SOC
   Christoph Riplinger    : Optimizer, TS searches, QM/MM, DLPNO-CCSD(T), (RO)-DLPNO pert. Triples
   Michael Roemelt        : Original ROCIS implementation
   Masaaki Saitow         : Open-shell DLPNO-CCSD energy and density
   Barbara Sandhoefer     : DKH picture change effects
   Kantharuban Sivalingam : CASSCF convergence/infrastructure, NEVPT2 and variants, FIC-MRCI
   Bernardo de Souza      : ESD, SOC TD-DFT
   Georgi Stoychev        : AutoAux, RI-MP2 NMR, DLPNO-MP2 response, X2C
   Van Anh Tran           : RI-MP2 g-tensors
   Willem Van den Heuvel  : Paramagnetic NMR
   Zikuan Wang            : NOTCH, Electric field optimization 
   Frank Wennmohs         : Technical directorship and infrastructure
   Hang Xu                : AUTO-CI-Response properties 


 We gratefully acknowledge several colleagues who have allowed us to
 interface, adapt or use parts of their codes:
   Stefan Grimme, W. Hujo, H. Kruse, P. Pracht,  : VdW corrections, initial TS optimization,
                  C. Bannwarth, S. Ehlert,         DFT functionals, gCP, sTDA/sTD-DF
                  L. Wittmann, M. Mueller
   Ed Valeev, F. Pavosevic, A. Kumar             : LibInt (2-el integral package), F12 methods
   Garnet Chan, S. Sharma, J. Yang, R. Olivares  : DMRG
   Ulf Ekstrom                                   : XCFun DFT Library
   Mihaly Kallay                                 : mrcc  (arbitrary order and MRCC methods)
   Frank Weinhold                                : gennbo (NPA and NBO analysis)
   Simon Mueller                                 : openCOSMO-RS
   Christopher J. Cramer and Donald G. Truhlar   : smd solvation model
   Lars Goerigk                                  : TD-DFT with DH, B97 family of functionals
   V. Asgeirsson, H. Jonsson                     : NEB implementation
   FAccTs GmbH                                   : IRC, NEB, NEB-TS, DLPNO-Multilevel, CI-OPT
                                                   MM, QMMM, 2- and 3-layer-ONIOM, Crystal-QMMM,
                                                   LR-CPCM, SF, NACMEs, symmetry and pop. for TD-DFT,
                                                   nearIR, NL-DFT gradient (VV10), updates on ESD,
                                                   ML-optimized integration grids, MBIS, APM,
                                                   GOAT, DOCKER, SOLVATOR, interface openCOSMO-RS
   S Lehtola, MJT Oliveira, MAL Marques          : LibXC Library
   Liviu Ungur et al                             : ANISO software


 Your calculation uses the libint2 library for the computation of 2-el integrals
 For citations please refer to: http://libint.valeyev.net

 Your ORCA version has been built with support for libXC version: 6.2.2
 For citations please refer to: https://libxc.gitlab.io

 This ORCA versions uses:
   CBLAS   interface :  Fast vector & matrix operations
   LAPACKE interface :  Fast linear algebra routines
   SCALAPACK package :  Parallel linear algebra routines
   Shared memory     :  Shared parallel matrices
   BLAS/LAPACK       :  OpenBLAS 0.3.27  USE64BITINT DYNAMIC_ARCH NO_AFFINITY SkylakeX SINGLE_THREADED
        Core in use  :  SkylakeX
   Copyright (c) 2011-2014, The OpenBLAS Project


Your calculation utilizes the geometrical counterpoise correction gCP
Please cite in your paper:
H.Kruse, S. Grimme J.Chem.Phys., 136, (2012), 154101 
   

Your calculation utilizes the atom-pairwise dispersion correction
based on EEQ partial charges (D4)


Your calculation utilizes the SMD solvation module
Please cite in your paper:
A.V. Marenich, C.J. Cramer, D.G. Truhlar J. Phys. Chem. B, 113, (2009), 6378 

================================================================================

----- Orbital basis set information -----
Your calculation utilizes the basis: def2-mTZVPP
   Stefan Grimme, Andreas Hansen, Sebastian Ehlert, and Jan-Michael Mewes 
   J. Chem. Phys. 154, 064103 (2021). DOI: 10.1063/5.0040021

----- AuxJ basis set information -----
Your calculation utilizes the auxiliary basis: def2/J
   F. Weigend, Phys. Chem. Chem. Phys. 8, 1057 (2006).

================================================================================
                                        WARNINGS
                       Please study these warnings very carefully!
================================================================================

Using LibXC functional ID 497 : Re-regularized SCAN exchange by Furness et al
[ 1]  J. W. Furness, A. D. Kaplan, J. Ning, J. P. Perdew, and J. Sun.,  J. Phys. Chem. Lett. 11, 8208-8215 (2020)
[ 2]  J. W. Furness, A. D. Kaplan, J. Ning, J. P. Perdew, and J. Sun.,  J. Phys. Chem. Lett. 11, 9248-9248 (2020)
Using LibXC functional ID 498 : Re-regularized SCAN correlation by Furness et al
[ 1]  J. W. Furness, A. D. Kaplan, J. Ning, J. P. Perdew, and J. Sun.,  J. Phys. Chem. Lett. 11, 8208-8215 (2020)
[ 2]  J. W. Furness, A. D. Kaplan, J. Ning, J. P. Perdew, and J. Sun.,  J. Phys. Chem. Lett. 11, 9248-9248 (2020)
Using LibXC functional ID 497 : Re-regularized SCAN exchange by Furness et al
[ 1]  J. W. Furness, A. D. Kaplan, J. Ning, J. P. Perdew, and J. Sun.,  J. Phys. Chem. Lett. 11, 8208-8215 (2020)
[ 2]  J. W. Furness, A. D. Kaplan, J. Ning, J. P. Perdew, and J. Sun.,  J. Phys. Chem. Lett. 11, 9248-9248 (2020)
Using LibXC functional ID 498 : Re-regularized SCAN correlation by Furness et al
[ 1]  J. W. Furness, A. D. Kaplan, J. Ning, J. P. Perdew, and J. Sun.,  J. Phys. Chem. Lett. 11, 8208-8215 (2020)
[ 2]  J. W. Furness, A. D. Kaplan, J. Ning, J. P. Perdew, and J. Sun.,  J. Phys. Chem. Lett. 11, 9248-9248 (2020)

================================================================================
                                       INPUT FILE
================================================================================
NAME = sp_solv.inp
|  1> ! r2scan-3c def2/J RI DEFGRID2 scfconv6 printgap
|  2> %output
|  3>     printlevel normal
|  4> end
|  5> %cpcm
|  6>     smd true
|  7>     smdsolvent "water"
|  8> end
|  9> * xyz 0 1
| 10> C -3.4941437381 1.7060082304 -0.933779993
| 11> C -3.152792524 0.2417764789 -0.6715374345
| 12> H -3.5915871254 -0.3908230759 -1.4487886669
| 13> C -1.6663371689 -0.0557587142 -0.5994133546
| 14> C -1.2298201035 -1.3536466428 -0.9399684775
| 15> C 0.0893977346 -1.6946264739 -0.870493643
| 16> C 1.0575269275 -0.7539562291 -0.4544720102
| 17> C 2.4232711263 -1.0677983372 -0.375737738
| 18> C 3.3454971241 -0.1303996639 0.0367607416
| 19> C 2.9138455208 1.1648947692 0.3854928456
| 20> C 1.5869612398 1.488375272 0.3159125248
| 21> C 0.6229137816 0.5505590978 -0.1016736798
| 22> C -0.7489316526 0.8683788803 -0.1750377368
| 23> O 4.6470405317 -0.5414351323 0.077420045
| 24> C 5.6432920446 0.3744771761 0.4915248628
| 25> C -3.6923769669 -0.2490834284 0.6570156992
| 26> O -4.1664384608 -1.3540795886 0.8257611628
| 27> O -3.5465991059 0.620733304 1.6389777959
| 28> H -3.2378484472 2.3245631928 -0.0794566555
| 29> H -2.9505984575 2.0558495275 -1.806855875
| 30> H -4.5605063819 1.8055180766 -1.1205297334
| 31> H -1.9642977009 -2.0825412385 -1.2512792091
| 32> H 0.4123986297 -2.6909225708 -1.1333838998
| 33> H 2.7668886385 -2.0560332577 -0.6400436019
| 34> H 3.6255051426 1.9073698598 0.7083246778
| 35> H 1.2628977852 2.4827587845 0.5844064361
| 36> H -1.0551830055 1.8619996183 0.1107982371
| 37> H 5.6935812502 1.2356371843 -0.1797858968
| 38> H 6.5772750791 -0.1808325723 0.4419713366
| 39> H 5.4714649241 0.7103066448 1.5174323968
| 40> H -3.8525188743 0.2731788144 2.4988567265
| 41> *
| 42> 
| 43>                          ****END OF INPUT****
================================================================================

                       ****************************
                       * Single Point Calculation *
                       ****************************

---------------------------------
CARTESIAN COORDINATES (ANGSTROEM)
---------------------------------
  C     -3.494144    1.706008   -0.933780
  C     -3.152793    0.241776   -0.671537
  H     -3.591587   -0.390823   -1.448789
  C     -1.666337   -0.055759   -0.599413
  C     -1.229820   -1.353647   -0.939968
  C      0.089398   -1.694626   -0.870494
  C      1.057527   -0.753956   -0.454472
  C      2.423271   -1.067798   -0.375738
  C      3.345497   -0.130400    0.036761
  C      2.913846    1.164895    0.385493
  C      1.586961    1.488375    0.315913
  C      0.622914    0.550559   -0.101674
  C     -0.748932    0.868379   -0.175038
  O      4.647041   -0.541435    0.077420
  C      5.643292    0.374477    0.491525
  C     -3.692377   -0.249083    0.657016
  O     -4.166438   -1.354080    0.825761
  O     -3.546599    0.620733    1.638978
  H     -3.237848    2.324563   -0.079457
  H     -2.950598    2.055850   -1.806856
  H     -4.560506    1.805518   -1.120530
  H     -1.964298   -2.082541   -1.251279
  H      0.412399   -2.690923   -1.133384
  H      2.766889   -2.056033   -0.640044
  H      3.625505    1.907370    0.708325
  H      1.262898    2.482759    0.584406
  H     -1.055183    1.862000    0.110798
  H      5.693581    1.235637   -0.179786
  H      6.577275   -0.180833    0.441971
  H      5.471465    0.710307    1.517432
  H     -3.852519    0.273179    2.498857

----------------------------
CARTESIAN COORDINATES (A.U.)
----------------------------
  NO LB      ZA    FRAG     MASS         X           Y           Z
   0 C     6.0000    0    12.011   -6.602975    3.223888   -1.764588
   1 C     6.0000    0    12.011   -5.957914    0.456891   -1.269022
   2 H     1.0000    0     1.008   -6.787116   -0.738549   -2.737814
   3 C     6.0000    0    12.011   -3.148921   -0.105369   -1.132727
   4 C     6.0000    0    12.011   -2.324023   -2.558021   -1.776283
   5 C     6.0000    0    12.011    0.168937   -3.202380   -1.644995
   6 C     6.0000    0    12.011    1.998436   -1.424771   -0.858828
   7 C     6.0000    0    12.011    4.579319   -2.017846   -0.710041
   8 C     6.0000    0    12.011    6.322073   -0.246420    0.069468
   9 C     6.0000    0    12.011    5.506370    2.201332    0.728476
  10 C     6.0000    0    12.011    2.998922    2.812622    0.596988
  11 C     6.0000    0    12.011    1.177136    1.040406   -0.192135
  12 C     6.0000    0    12.011   -1.415276    1.640998   -0.330773
  13 O     8.0000    0    15.999    8.781634   -1.023164    0.146303
  14 C     6.0000    0    12.011   10.664276    0.707659    0.928847
  15 C     6.0000    0    12.011   -6.977581   -0.470699    1.241580
  16 O     8.0000    0    15.999   -7.873428   -2.558840    1.560462
  17 O     8.0000    0    15.999   -6.702101    1.173016    3.097219
  18 H     1.0000    0     1.008   -6.118647    4.392788   -0.150151
  19 H     1.0000    0     1.008   -5.575823    3.884993   -3.414463
  20 H     1.0000    0     1.008   -8.618108    3.411935   -2.117494
  21 H     1.0000    0     1.008   -3.711985   -3.935433   -2.364575
  22 H     1.0000    0     1.008    0.779320   -5.085107   -2.141785
  23 H     1.0000    0     1.008    5.228662   -3.885340   -1.209507
  24 H     1.0000    0     1.008    6.851212    3.604407    1.338540
  25 H     1.0000    0     1.008    2.386531    4.691734    1.104368
  26 H     1.0000    0     1.008   -1.994007    3.518669    0.209378
  27 H     1.0000    0     1.008   10.759309    2.335016   -0.339746
  28 H     1.0000    0     1.008   12.429249   -0.341724    0.835205
  29 H     1.0000    0     1.008   10.339570    1.342285    2.867532
  30 H     1.0000    0     1.008   -7.280206    0.516233    4.722155

--------------------------------
INTERNAL COORDINATES (ANGSTROEM)
--------------------------------
 C      0   0   0     0.000000000000     0.00000000     0.00000000
 C      1   0   0     1.526193445457     0.00000000     0.00000000
 H      2   1   0     1.094002914630   110.05856971     0.00000000
 C      2   1   3     1.517655625213   114.53943349   122.22774538
 C      4   2   1     1.411041464779   118.15485339   207.06390515
 C      5   4   2     1.364342223274   121.11230295   181.33009425
 C      6   5   4     1.412518545915   120.74944089     0.00000000
 C      7   6   5     1.403550202519   122.31281496   180.23803663
 C      8   7   6     1.378177078388   121.05351743   180.15656930
 C      9   8   7     1.409157498441   119.62407469     0.00000000
 C     10   9   8     1.367517075542   120.13624974     0.06600120
 C     11  10   9     1.408284387659   121.45167056   359.95303731
 C      4   2   1     1.369583089808   122.58238578    29.37492896
 O      9   8   7     1.365510372389   116.23082885   179.97226597
 C     14   9   8     1.415236811901   119.00423080   179.94313427
 C      2   1   3     1.515634602626   112.43950853   240.79594341
 O     16   2   1     1.214177023972   123.74979139   141.04405687
 O     16   2   1     1.319879499074   113.54034538   318.24881047
 H      1   2   3     1.085433499872   111.01909756   168.88866461
 H      1   2   3     1.086320349137   109.58201295   289.74902437
 H      1   2   3     1.087155445703   109.67695745    49.19339402
 H      5   4   2     1.080582733682   118.66618722     0.80206056
 H      6   5   4     1.079836458939   120.49196189   179.99276041
 H      8   7   6     1.079138009004   120.05772912     0.14687758
 H     10   9   8     1.077937414391   120.33266105   180.08478142
 H     11  10   9     1.079770657568   119.76165718   180.00946923
 H     13   4   2     1.078320113005   120.90743949   358.89345745
 H     15  14   9     1.093061617603   111.25733036   298.37670135
 H     15  14   9     1.087726425789   105.11266292   179.88110427
 H     15  14   9     1.093065533124   111.27258532    61.38774832
 H     18  16   2     0.976612923951   112.70126230   183.21038225

---------------------------
INTERNAL COORDINATES (A.U.)
---------------------------
 C      0   0   0     0.000000000000     0.00000000     0.00000000
 C      1   0   0     2.884087639300     0.00000000     0.00000000
 H      2   1   0     2.067365898362   110.05856971     0.00000000
 C      2   1   3     2.867953497257   114.53943349   122.22774538
 C      4   2   1     2.666481932039   118.15485339   207.06390515
 C      5   4   2     2.578233154932   121.11230295   181.33009425
 C      6   5   4     2.669273210865   120.74944089     0.00000000
 C      7   6   5     2.652325497971   122.31281496   180.23803663
 C      8   7   6     2.604377242202   121.05351743   180.15656930
 C      9   8   7     2.662921751614   119.62407469     0.00000000
 C     10   9   8     2.584232756235   120.13624974     0.06600120
 C     11  10   9     2.661271811353   121.45167056   359.95303731
 C      4   2   1     2.588136957387   122.58238578    29.37492896
 O      9   8   7     2.580440636845   116.23082885   179.97226597
 C     14   9   8     2.674409989136   119.00423080   179.94313427
 C      2   1   3     2.864134318058   112.43950853   240.79594341
 O     16   2   1     2.294462053406   123.74979139   141.04405687
 O     16   2   1     2.494210783027   113.54034538   318.24881047
 H      1   2   3     2.051172051342   111.01909756   168.88866461
 H      1   2   3     2.052847953575   109.58201295   289.74902437
 H      1   2   3     2.054426057380   109.67695745    49.19339402
 H      5   4   2     2.042005431704   118.66618722     0.80206056
 H      6   5   4     2.040595176818   120.49196189   179.99276041
 H      8   7   6     2.039275297723   120.05772912     0.14687758
 H     10   9   8     2.037006502706   120.33266105   180.08478142
 H     11  10   9     2.040470830247   119.76165718   180.00946923
 H     13   4   2     2.037729698279   120.90743949   358.89345745
 H     15  14   9     2.065587104771   111.25733036   298.37670135
 H     15  14   9     2.055505053371   105.11266292   179.88110427
 H     15  14   9     2.065594504034   111.27258532    61.38774832
 H     18  16   2     1.845530965116   112.70126230   183.21038225

---------------------
BASIS SET INFORMATION
---------------------
There are 3 groups of distinct atoms

 Group   1 Type C   : 11s6p1d contracted to 5s3p1d pattern {62111/411/1}
 Group   2 Type H   : 4s1p contracted to 2s1p pattern {31/1}
 Group   3 Type O   : 11s6p2d contracted to 5s3p2d pattern {62111/411/11}

Atom   0C    basis set group =>   1
Atom   1C    basis set group =>   1
Atom   2H    basis set group =>   2
Atom   3C    basis set group =>   1
Atom   4C    basis set group =>   1
Atom   5C    basis set group =>   1
Atom   6C    basis set group =>   1
Atom   7C    basis set group =>   1
Atom   8C    basis set group =>   1
Atom   9C    basis set group =>   1
Atom  10C    basis set group =>   1
Atom  11C    basis set group =>   1
Atom  12C    basis set group =>   1
Atom  13O    basis set group =>   3
Atom  14C    basis set group =>   1
Atom  15C    basis set group =>   1
Atom  16O    basis set group =>   3
Atom  17O    basis set group =>   3
Atom  18H    basis set group =>   2
Atom  19H    basis set group =>   2
Atom  20H    basis set group =>   2
Atom  21H    basis set group =>   2
Atom  22H    basis set group =>   2
Atom  23H    basis set group =>   2
Atom  24H    basis set group =>   2
Atom  25H    basis set group =>   2
Atom  26H    basis set group =>   2
Atom  27H    basis set group =>   2
Atom  28H    basis set group =>   2
Atom  29H    basis set group =>   2
Atom  30H    basis set group =>   2
---------------------------------
AUXILIARY/J BASIS SET INFORMATION
---------------------------------
There are 3 groups of distinct atoms

 Group   1 Type C   : 12s5p4d2f1g contracted to 6s4p3d1f1g pattern {711111/2111/211/2/1}
 Group   2 Type H   : 5s2p1d contracted to 3s1p1d pattern {311/2/1}
 Group   3 Type O   : 12s5p4d2f1g contracted to 6s4p3d1f1g pattern {711111/2111/211/2/1}

Atom   0C    basis set group =>   1
Atom   1C    basis set group =>   1
Atom   2H    basis set group =>   2
Atom   3C    basis set group =>   1
Atom   4C    basis set group =>   1
Atom   5C    basis set group =>   1
Atom   6C    basis set group =>   1
Atom   7C    basis set group =>   1
Atom   8C    basis set group =>   1
Atom   9C    basis set group =>   1
Atom  10C    basis set group =>   1
Atom  11C    basis set group =>   1
Atom  12C    basis set group =>   1
Atom  13O    basis set group =>   3
Atom  14C    basis set group =>   1
Atom  15C    basis set group =>   1
Atom  16O    basis set group =>   3
Atom  17O    basis set group =>   3
Atom  18H    basis set group =>   2
Atom  19H    basis set group =>   2
Atom  20H    basis set group =>   2
Atom  21H    basis set group =>   2
Atom  22H    basis set group =>   2
Atom  23H    basis set group =>   2
Atom  24H    basis set group =>   2
Atom  25H    basis set group =>   2
Atom  26H    basis set group =>   2
Atom  27H    basis set group =>   2
Atom  28H    basis set group =>   2
Atom  29H    basis set group =>   2
Atom  30H    basis set group =>   2

Checking for AutoStart:
The File: sp_solv.gbw exists
Trying to determine its content:
     ... Fine, the file contains calculation information
     ... Fine, the calculation information was read
     ... Fine, the file contains a basis set
     ... Fine, the basis set was read
     ... Fine, the file contains a geometry
     ... Fine, the geometry was read
     ... Fine, the file contains a set of orbitals
     ... Fine, the orbitals can be read
     => possible old guess file was deleted
     => GBW file was renamed to GES file
     => GES file is set as startup file
     => Guess is set to MORead
     ... now leaving AutoStart

------------------------------------------------------------------------------
                             ORCA STARTUP CALCULATIONS
                           -- RI-GTO INTEGRALS CHOSEN --
------------------------------------------------------------------------------
------------------------------------------------------------------------------
                   ___                                                        
                  /   \      - P O W E R E D   B Y -                         
                 /     \                                                     
                 |  |  |   _    _      __       _____    __    __             
                 |  |  |  | |  | |    /  \     |  _  \  |  |  /  |          
                  \  \/   | |  | |   /    \    | | | |  |  | /  /          
                 / \  \   | |__| |  /  /\  \   | |_| |  |  |/  /          
                |  |  |   |  __  | /  /__\  \  |    /   |      \           
                |  |  |   | |  | | |   __   |  |    \   |  |\   \          
                \     /   | |  | | |  |  |  |  | |\  \  |  | \   \       
                 \___/    |_|  |_| |__|  |__|  |_| \__\ |__|  \__/        
                                                                              
                      - O R C A' S   B I G   F R I E N D -                    
                                      &                                       
                       - I N T E G R A L  F E E D E R -                       
                                                                              
 v1 FN, 2020, v2 2021, v3 2022-2024                                           
------------------------------------------------------------------------------


----------------------
SHARK INTEGRAL PACKAGE
----------------------

Number of atoms                             ...     31
Number of basis functions                   ...    408
Number of shells                            ...    198
Maximum angular momentum                    ...      2
Integral batch strategy                     ... SHARK/LIBINT Hybrid
RI-J (if used) integral strategy            ... SPLIT-RIJ (Revised 2003 algorithm where possible)
Printlevel                                  ...      1
Contraction scheme used                     ... SEGMENTED contraction
Prescreening option                         ... SCHWARTZ
   Thresh                                   ... 1.000e-10
   Tcut                                     ... 1.000e-11
   Tpresel                                  ... 1.000e-11 
Coulomb Range Separation                    ... NOT USED
Exchange Range Separation                   ... NOT USED
Multipole approximations                    ... NOT USED
Finite Nucleus Model                        ... NOT USED
CABS basis                                  ... NOT available
Auxiliary Coulomb fitting basis             ... AVAILABLE
   # of basis functions in Aux-J            ...    987
   # of shells in Aux-J                     ...    325
   Maximum angular momentum in Aux-J        ...      4
Auxiliary J/K fitting basis                 ... NOT available
Auxiliary Correlation fitting basis         ... NOT available
Auxiliary 'external' fitting basis          ... NOT available

Checking pre-screening integrals            ... done (  0.0 sec) Dimension = 198
Check shell pair data                       ... done (  0.0 sec)
Shell pair information
Shell pair cut-off parameter TPreSel        ...   1.0e-11
Total number of shell pairs                 ...     19701
Shell pairs after pre-screening             ...     14171
Total number of primitive shell pairs       ...     72426
Primitive shell pairs kept                  ...     33886
          la=0 lb=0:   4424 shell pairs
          la=1 lb=0:   5426 shell pairs
          la=1 lb=1:   1685 shell pairs
          la=2 lb=0:   1532 shell pairs
          la=2 lb=1:    958 shell pairs
          la=2 lb=2:    146 shell pairs

Calculating one electron integrals          ... done (  0.1 sec)
Calculating RI/J V-Matrix + Cholesky decomp.... done (  0.2 sec)
Calculating Nuclear repulsion               ... done (  0.0 sec) ENN=   1139.317981638639 Eh

Diagonalization of the overlap matrix:
Smallest eigenvalue                        ... 1.286e-05
Time for diagonalization                   ...    0.023 sec
Threshold for overlap eigenvalues          ... 1.000e-07
Number of eigenvalues below threshold      ... 0
Time for construction of square roots      ...    0.029 sec
Total time needed                          ...    0.071 sec

-------------------
DFT GRID GENERATION
-------------------

General Integration Accuracy     IntAcc      ... 4.388
Radial Grid Type                 RadialGrid  ... OptM3 with GC (2021)
Angular Grid (max. ang.)         AngularGrid ... 4 (Lebedev-302)
Angular grid pruning method      GridPruning ... 4 (adaptive)
Weight generation scheme         WeightScheme... mBecke (2022)
Basis function cutoff            BFCut       ... 1.0000e-10
Integration weight cutoff        WCut        ... 1.0000e-14
Partially contracted basis set               ... off
Rotationally invariant grid construction     ... off
Angular grids for H and He will be reduced by one unit
Diffuse basis detected: some atoms will have their outermost
                        angular grid increased by 1.

Total number of grid points                  ...   147379
Total number of batches                      ...     2320
Average number of points per batch           ...       63
Average number of grid points per atom       ...     4754
Initializing property integral containers    ... done (  0.0 sec)

SHARK setup successfully completed in   2.8 seconds

Maximum memory used throughout the entire STARTUP-calculation: 72.6 MB
-------------------------------------------------------------------------------
                                 ORCA GUESS
                   Start orbitals & Density for SCF / CASSCF
-------------------------------------------------------------------------------

------------
SCF SETTINGS
------------
Hamiltonian:
 Density Functional     Method          .... DFT(GTOs)
  Functional kind                       .... Exchange
  Functional name                       .... Re-regularized SCAN exchange by Furness et al
  Functional family                     .... MGGA
  Functional refs                              
    [ 0] J. W. Furness, A. D. Kaplan, J. Ning, J. P. Perdew, and J. Sun.,  J. Phys. Chem. Lett. 11, 8208-8215 (2020), doi: 10.1021/acs.jpclett.0c02405
    [ 1] J. W. Furness, A. D. Kaplan, J. Ning, J. P. Perdew, and J. Sun.,  J. Phys. Chem. Lett. 11, 9248-9248 (2020), doi: 10.1021/acs.jpclett.0c03077
  Functional external parameters        .... 6
    Parameter  0 _c1        =  6.670000e-01 : c1 parameter        
    Parameter  1 _c2        =  8.000000e-01 : c2 parameter        
    Parameter  2 _d         =  1.240000e+00 : d parameter         
    Parameter  3 _k1        =  6.500000e-02 : k1 parameter        
    Parameter  4 _eta       =  1.000000e-03 : eta parameter       
    Parameter  5 _dp2       =  3.610000e-01 : dp2 parameter       
  Functional kind                       .... Correlation
  Functional name                       .... Re-regularized SCAN correlation by Furness et al
  Functional family                     .... MGGA
  Functional refs                              
    [ 0] J. W. Furness, A. D. Kaplan, J. Ning, J. P. Perdew, and J. Sun.,  J. Phys. Chem. Lett. 11, 8208-8215 (2020), doi: 10.1021/acs.jpclett.0c02405
    [ 1] J. W. Furness, A. D. Kaplan, J. Ning, J. P. Perdew, and J. Sun.,  J. Phys. Chem. Lett. 11, 9248-9248 (2020), doi: 10.1021/acs.jpclett.0c03077
  Functional external parameters        .... 1
    Parameter  0 _eta       =  1.000000e-03 : Regularization parameter
 Gradients option       PostSCFGGA      .... off
 RI-approximation to the Coulomb term is turned on
   Number of AuxJ basis functions       .... 987


General Settings:
 Integral files         IntName         .... sp_solv
 Hartree-Fock type      HFTyp           .... RHF
 Total Charge           Charge          ....    0
 Multiplicity           Mult            ....    1
 Number of Electrons    NEL             ....  122
 Basis Dimension        Dim             ....  408
 Nuclear Repulsion      ENuc            ....   1139.3179816386 Eh

Convergence Acceleration:
 AO-DIIS                CNVDIIS         .... on
   Start iteration      DIISMaxIt       ....    12
   Startup error        DIISStart       ....  0.200000
   # of expansion vecs  DIISMaxEq       ....     5
   Bias factor          DIISBfac        ....   1.050
   Max. coefficient     DIISMaxC        ....  10.000
 MO-DIIS                CNVKDIIS        .... off
 Trust-Rad. Augm. Hess. CNVTRAH         .... auto
   Auto Start mean grad. ratio tolernc. ....  1.125000
   Auto Start start iteration           ....     1
   Auto Start num. interpolation iter.  ....    10
   Max. Number of Micro iterations      ....    24
   Max. Number of Macro iterations      .... Maxiter - #DIIS iter
   Number of Davidson start vectors     ....     2
   Converg. threshold    (grad. norm)   ....   3.330e-04
   Grad. Scal. Fac. for Micro threshold ....   0.100
   Minimum threshold for Micro iter.    ....   1.000e-02
   NR start threshold (gradient norm)   ....   1.000e-04
   Initial trust radius                 ....   0.400
   Minimum AH scaling param. (alpha)    ....   1.000
   Maximum AH scaling param. (alpha)    .... 1000.000
   Quad. conv. algorithm                .... NR
   White noise on init. David. guess    .... on
   Maximum white noise                  ....   0.010
   Pseudo random numbers                .... off
   Inactive MOs                         .... canonical
   Orbital update algorithm             .... Taylor
   Preconditioner                       .... Diag
   Full preconditioner red. dimension   ....   250
   COSX micro iterations for RIJONX calc.... off
 SOSCF                  CNVSOSCF        .... on
   Start iteration      SOSCFMaxIt      ....   150
   Startup grad/error   SOSCFStart      ....  0.003300
   Hessian update       SOSCFHessUp     .... L-BFGS
 Level Shifting         CNVShift        .... on
   Level shift para.    LevelShift      ....    0.2500
   Turn off err/grad.   ShiftErr        ....    0.0010
 Zerner damping         CNVZerner       .... off
 Static damping         CNVDamp         .... on
   Fraction old density DampFac         ....    0.7000
   Max. Damping (<1)    DampMax         ....    0.9800
   Min. Damping (>=0)   DampMin         ....    0.0000
   Turn off err/grad.   DampErr         ....    0.1000

SCF Procedure:
 Maximum # iterations   MaxIter         ....   125
 SCF integral mode      SCFMode         .... Direct
   Integral package                     .... SHARK and LIBINT hybrid scheme
 Reset frequency        DirectResetFreq ....    20
 Integral Threshold     Thresh          ....  1.000e-10 Eh
 Primitive CutOff       TCut            ....  1.000e-11 Eh

Convergence Tolerance:
 Convergence Check Mode ConvCheckMode   .... Total+1el-Energy
 Convergence forced     ConvForced      .... 0
 Energy Change          TolE            ....  1.000e-06 Eh
 1-El. energy change                    ....  1.000e-03 Eh
 Orbital Gradient       TolG            ....  3.330e-04
 Orbital Rotation angle TolX            ....  3.330e-04
 DIIS Error             TolErr          ....  1.000e-06

---------------------
INITIAL GUESS: MOREAD
---------------------
Guess MOs are being read from file: sp_solv.ges
Input Geometry matches current geometry (good)
Atom 0: N(Shells)= 9 and 6 - projection required
Input basis set needs projection
NBasis(read)= 266
NBasis(calc)= 408
Basis set overlap was calculated
Using GuessMode=FMatrix for the initial guess
C*T matrix was formed
Effective Fockian was calculated
Effective Fockian was diagonalized
Initial density was built
                      ------------------
                      INITIAL GUESS DONE (   0.2 sec)
                      ------------------
             **** ENERGY FILE WAS UPDATED (sp_solv.en.tmp) ****
Finished Guess after   0.8 sec
Maximum memory used throughout the entire GUESS-calculation: 37.3 MB

-------------------------------------------------------------------------------------------
                                      ORCA LEAN-SCF
                              memory conserving SCF solver
-------------------------------------------------------------------------------------------

--------------------
CPCM SOLVATION MODEL
--------------------
CPCM parameters:
  Epsilon                                         ...      78.3550
  Refrac                                          ...       1.3328
  Rsolv                                           ...       1.3000
  Surface type                                    ... GAUSSIAN VDW
  Discretization scheme                           ... Constant charge density
    Threshold for H atoms                         ...       5.0000 (charges/Ang^2)
    Threshold for non-H atoms                     ...       5.0000 (charges/Ang^2)
  Epsilon function type                           ...         CPCM
Solvent:                                          ... WATER
SMD-CDS solvent descriptors:
  Soln                                            ...       1.3328
  Soln25                                          ...       1.3323
  Sola                                            ...       0.0000
  Solb                                            ...       0.0000
  Solg                                            ...       0.0000
  Solc                                            ...       0.0000
  Solh                                            ...       0.0000
Radii:
  Scheme                                          ... Element-dependent radii
  Radius for C  used is    3.4960 Bohr (=   1.8500 Ang.)
  Radius for H  used is    2.2677 Bohr (=   1.2000 Ang.)
  Radius for O  used is    2.8724 Bohr (=   1.5200 Ang.)
Calculating surface                               ...        done! (  0.0s)
Cavity surface points                             ...         2314
Cavity Volume                                     ...    1546.8713
Cavity Surface-area                               ...     917.7579
Calculating surface distance matrix               ...        done! (  0.0s)
Performing Cholesky decomposition & store         ...        done! (  0.3s)
Overall time for CPCM initialization              ...                 0.3s

----------------------------------------D-I-I-S--------------------------------------------
Iteration    Energy (Eh)           Delta-E    RMSDP     MaxDP     DIISErr   Damp  Time(sec)
-------------------------------------------------------------------------------------------
               ***  Starting incremental Fock matrix formation  ***
    1    -767.1026436127694978     0.00e+00  1.51e-02  1.07e+00  6.24e-01  0.700  12.0
    2    -767.2124045018792913    -1.10e-01  1.15e-02  8.04e-01  4.40e-01  0.700  10.3
    3    -767.2899840699915330    -7.76e-02  8.20e-03  5.69e-01  3.09e-01  0.700  10.0
    4    -767.3444850130272243    -5.45e-02  5.77e-03  3.99e-01  2.16e-01  0.700   9.9
                               ***Turning on AO-DIIS***
    5    -767.3827377064010307    -3.83e-02  4.06e-03  2.78e-01  1.51e-01  0.700   9.7
    6    -767.4095553822744478    -2.68e-02  2.85e-03  1.95e-01  1.05e-01  0.700   9.5
    7    -767.4283710353934111    -1.88e-02  1.99e-03  1.36e-01  7.39e-02  0.700   9.8
    8    -767.4415568473700660    -1.32e-02  4.64e-03  3.16e-01  5.19e-02  0.000   9.2
                              *** Initializing SOSCF ***
---------------------------------------S-O-S-C-F--------------------------------------
Iteration    Energy (Eh)           Delta-E    RMSDP     MaxDP     MaxGrad    Time(sec)
--------------------------------------------------------------------------------------
    9    -767.4723789728866450    -3.08e-02  1.77e-05  7.64e-04  2.12e-04     9.8
               *** Restarting incremental Fock matrix formation ***
   10    -767.4723791404410349    -1.68e-07  2.81e-05  2.28e-03  5.83e-05    11.2
                  *** Gradient check signals convergence ***

               *****************************************************
               *                     SUCCESS                       *
               *           SCF CONVERGED AFTER  10 CYCLES          *
               *****************************************************


SMD CDS free energy correction energy :                 7.51170     Kcal/mol
Total Energy after SMD CDS correction =              -767.460408491 Eh
             **** ENERGY FILE WAS UPDATED (sp_solv.en.tmp) ****

----------------
TOTAL SCF ENERGY
----------------

Total Energy       :       -767.46040849078156 Eh          -20883.65942 eV

Components:
Nuclear Repulsion  :       1139.31798163863868 Eh           31002.41841 eV
Electronic Energy  :      -1906.75680297026793 Eh          -51885.49042 eV
One Electron Energy:      -3305.36716488361071 Eh          -89943.61320 eV
Two Electron Energy:       1398.61036191334279 Eh           38058.12279 eV
CPCM Dielectric    :         -0.03355780881184 Eh              -0.91315 eV
SMD CDS (Gcds)     :          0.01197064965944 Eh               0.32574 eV

Virial components:
Potential Energy   :      -1531.93248031628582 Eh          -41686.00206 eV
Kinetic Energy     :        764.47207182550426 Eh           20802.34265 eV
Virial Ratio       :          2.00390902006157

DFT components:
N(Alpha)           :       61.000040504617 electrons
N(Beta)            :       61.000040504617 electrons
N(Total)           :      122.000081009234 electrons
E(X)               :     -102.833395807535 Eh       
E(C)               :       -3.991806771653 Eh       
E(XC)              :     -106.825202579187 Eh       

CPCM Solvation Model Properties:
Surface-charge          :         -0.05775066729191
Corrected charge        :          0.00000000000000
Outlying charge corr.   :          0.00020088753139 Eh               0.00547 eV
Free-energy (cav+disp)  :          0.01197064965944 Eh               0.32574 eV

---------------
SCF CONVERGENCE
---------------

  Last Energy change         ...    1.6755e-07  Tolerance :   1.0000e-06
  Last MAX-Density change    ...    2.2840e-03  Tolerance :   1.0000e-05
  Last RMS-Density change    ...    2.8077e-05  Tolerance :   1.0000e-06
  Last DIIS Error            ...    2.1197e-04  Tolerance :   1.0000e-06
  Last Orbital Gradient      ...    5.8302e-05  Tolerance :   3.3300e-04
  Last Orbital Rotation      ...    4.7772e-04  Tolerance :   3.3300e-04


----------------
ORBITAL ENERGIES
----------------

  NO   OCC          E(Eh)            E(eV) 
   0   2.0000     -19.003805      -517.1198 
   1   2.0000     -18.988782      -516.7110 
   2   2.0000     -18.945420      -515.5311 
   3   2.0000     -10.170144      -276.7437 
   4   2.0000     -10.099602      -274.8241 
   5   2.0000     -10.073263      -274.1074 
   6   2.0000     -10.055837      -273.6332 
   7   2.0000     -10.048766      -273.4408 
   8   2.0000     -10.048592      -273.4361 
   9   2.0000     -10.044465      -273.3238 
  10   2.0000     -10.039996      -273.2022 
  11   2.0000     -10.038063      -273.1496 
  12   2.0000     -10.035466      -273.0789 
  13   2.0000     -10.035284      -273.0740 
  14   2.0000     -10.034798      -273.0607 
  15   2.0000     -10.030955      -272.9562 
  16   2.0000     -10.020346      -272.6675 
  17   2.0000      -1.082093       -29.4452 
  18   2.0000      -1.035089       -28.1662 
  19   2.0000      -0.988108       -26.8878 
  20   2.0000      -0.851418       -23.1683 
  21   2.0000      -0.808501       -22.0004 
  22   2.0000      -0.766195       -20.8492 
  23   2.0000      -0.745867       -20.2961 
  24   2.0000      -0.709331       -19.3019 
  25   2.0000      -0.699970       -19.0471 
  26   2.0000      -0.654453       -17.8086 
  27   2.0000      -0.637299       -17.3418 
  28   2.0000      -0.607184       -16.5223 
  29   2.0000      -0.583829       -15.8868 
  30   2.0000      -0.571396       -15.5485 
  31   2.0000      -0.551853       -15.0167 
  32   2.0000      -0.500635       -13.6230 
  33   2.0000      -0.486399       -13.2356 
  34   2.0000      -0.480325       -13.0703 
  35   2.0000      -0.461956       -12.5705 
  36   2.0000      -0.452021       -12.3001 
  37   2.0000      -0.438915       -11.9435 
  38   2.0000      -0.433960       -11.8087 
  39   2.0000      -0.433106       -11.7854 
  40   2.0000      -0.414230       -11.2718 
  41   2.0000      -0.409357       -11.1392 
  42   2.0000      -0.396230       -10.7820 
  43   2.0000      -0.387168       -10.5354 
  44   2.0000      -0.380572       -10.3559 
  45   2.0000      -0.373942       -10.1755 
  46   2.0000      -0.370788       -10.0897 
  47   2.0000      -0.359268        -9.7762 
  48   2.0000      -0.348693        -9.4884 
  49   2.0000      -0.344709        -9.3800 
  50   2.0000      -0.330123        -8.9831 
  51   2.0000      -0.324910        -8.8412 
  52   2.0000      -0.312154        -8.4942 
  53   2.0000      -0.307784        -8.3752 
  54   2.0000      -0.300464        -8.1760 
  55   2.0000      -0.292198        -7.9511 
  56   2.0000      -0.285700        -7.7743 
  57   2.0000      -0.266480        -7.2513 
  58   2.0000      -0.247627        -6.7383 
  59   2.0000      -0.224696        -6.1143 
  60   2.0000      -0.192453        -5.2369 
  61   0.0000      -0.070348        -1.9143 
  62   0.0000      -0.043301        -1.1783 
  63   0.0000      -0.013703        -0.3729 
  64   0.0000      -0.004660        -0.1268 
  65   0.0000       0.063105         1.7172 
  66   0.0000       0.069932         1.9030 
  67   0.0000       0.071927         1.9572 
  68   0.0000       0.092076         2.5055 
  69   0.0000       0.093968         2.5570 
  70   0.0000       0.104093         2.8325 
  71   0.0000       0.110567         3.0087 
*Only the first 10 virtual orbitals were printed.

                    ********************************
                    * MULLIKEN POPULATION ANALYSIS *
                    ********************************

-----------------------
MULLIKEN ATOMIC CHARGES
-----------------------
   0 C :   -0.556791
   1 C :   -0.057846
   2 H :    0.208028
   3 C :    0.168784
   4 C :   -0.267522
   5 C :   -0.317344
   6 C :    0.204367
   7 C :   -0.425600
   8 C :    0.337669
   9 C :   -0.282993
  10 C :   -0.297791
  11 C :    0.091693
  12 C :   -0.253846
  13 O :   -0.222350
  14 C :   -0.341954
  15 C :    0.318631
  16 O :   -0.469992
  17 O :   -0.356443
  18 H :    0.176694
  19 H :    0.182321
  20 H :    0.177636
  21 H :    0.181566
  22 H :    0.175138
  23 H :    0.183832
  24 H :    0.185462
  25 H :    0.178450
  26 H :    0.180143
  27 H :    0.172653
  28 H :    0.173880
  29 H :    0.172526
  30 H :    0.381000
Sum of atomic charges:    0.0000000

--------------------------------
MULLIKEN REDUCED ORBITAL CHARGES
--------------------------------
  0 C s       :     3.392461  s :     3.392461
      pz      :     1.096709  p :     3.138037
      px      :     1.123338
      py      :     0.917990
      dz2     :     0.004489  d :     0.026293
      dxz     :     0.003276
      dyz     :     0.006765
      dx2y2   :     0.008029
      dxy     :     0.003734

  1 C s       :     3.040167  s :     3.040167
      pz      :     0.987805  p :     2.972320
      px      :     0.967671
      py      :     1.016844
      dz2     :     0.008360  d :     0.045360
      dxz     :     0.008689
      dyz     :     0.009703
      dx2y2   :     0.010126
      dxy     :     0.008482

  2 H s       :     0.774516  s :     0.774516
      pz      :     0.007306  p :     0.017455
      px      :     0.004372
      py      :     0.005777

  3 C s       :     3.092286  s :     3.092286
      pz      :     1.013818  p :     2.691510
      px      :     0.815736
      py      :     0.861956
      dz2     :     0.004545  d :     0.047420
      dxz     :     0.007202
      dyz     :     0.006796
      dx2y2   :     0.015019
      dxy     :     0.013858

  4 C s       :     3.265443  s :     3.265443
      pz      :     0.986924  p :     2.964453
      px      :     0.993778
      py      :     0.983752
      dz2     :     0.003300  d :     0.037627
      dxz     :     0.005893
      dyz     :     0.004817
      dx2y2   :     0.010876
      dxy     :     0.012740

  5 C s       :     3.328511  s :     3.328511
      pz      :     0.995777  p :     2.951439
      px      :     0.940055
      py      :     1.015606
      dz2     :     0.003406  d :     0.037394
      dxz     :     0.007488
      dyz     :     0.003075
      dx2y2   :     0.011235
      dxy     :     0.012190

  6 C s       :     3.129475  s :     3.129475
      pz      :     0.960294  p :     2.617139
      px      :     0.805973
      py      :     0.850872
      dz2     :     0.004503  d :     0.049019
      dxz     :     0.008793
      dyz     :     0.006223
      dx2y2   :     0.014917
      dxy     :     0.014583

  7 C s       :     3.293409  s :     3.293409
      pz      :     1.049466  p :     3.097046
      px      :     0.986805
      py      :     1.060774
      dz2     :     0.003727  d :     0.035145
      dxz     :     0.006662
      dyz     :     0.003304
      dx2y2   :     0.009609
      dxy     :     0.011843

  8 C s       :     3.089217  s :     3.089217
      pz      :     0.951651  p :     2.500685
      px      :     0.761363
      py      :     0.787670
      dz2     :     0.006106  d :     0.072429
      dxz     :     0.015758
      dyz     :     0.007929
      dx2y2   :     0.020872
      dxy     :     0.021764

  9 C s       :     3.258056  s :     3.258056
      pz      :     1.034299  p :     2.989037
      px      :     0.999187
      py      :     0.955551
      dz2     :     0.003377  d :     0.035900
      dxz     :     0.005677
      dyz     :     0.004566
      dx2y2   :     0.010528
      dxy     :     0.011752

 10 C s       :     3.313507  s :     3.313507
      pz      :     0.983302  p :     2.946275
      px      :     0.943649
      py      :     1.019324
      dz2     :     0.003479  d :     0.038008
      dxz     :     0.008001
      dyz     :     0.003099
      dx2y2   :     0.011384
      dxy     :     0.012046

 11 C s       :     3.224776  s :     3.224776
      pz      :     0.972643  p :     2.635517
      px      :     0.789065
      py      :     0.873810
      dz2     :     0.004470  d :     0.048014
      dxz     :     0.007845
      dyz     :     0.006160
      dx2y2   :     0.014830
      dxy     :     0.014709

 12 C s       :     3.204101  s :     3.204101
      pz      :     1.001543  p :     3.012358
      px      :     0.986686
      py      :     1.024129
      dz2     :     0.003771  d :     0.037388
      dxz     :     0.007070
      dyz     :     0.003560
      dx2y2   :     0.012143
      dxy     :     0.010843

 13 O s       :     3.710932  s :     3.710932
      pz      :     1.773603  p :     4.470548
      px      :     1.088121
      py      :     1.608825
      dz2     :     0.005177  d :     0.040870
      dxz     :     0.002359
      dyz     :     0.006692
      dx2y2   :     0.012843
      dxy     :     0.013798

 14 C s       :     3.356353  s :     3.356353
      pz      :     1.071234  p :     2.939759
      px      :     0.907801
      py      :     0.960724
      dz2     :     0.009132  d :     0.045842
      dxz     :     0.005349
      dyz     :     0.010227
      dx2y2   :     0.008437
      dxy     :     0.012697

 15 C s       :     3.144141  s :     3.144141
      pz      :     0.892889  p :     2.410792
      px      :     0.769339
      py      :     0.748564
      dz2     :     0.021247  d :     0.126436
      dxz     :     0.016122
      dyz     :     0.045093
      dx2y2   :     0.022346
      dxy     :     0.021629

 16 O s       :     3.823990  s :     3.823990
      pz      :     1.801651  p :     4.621802
      px      :     1.466297
      py      :     1.353854
      dz2     :     0.004401  d :     0.024200
      dxz     :     0.001569
      dyz     :     0.003378
      dx2y2   :     0.008151
      dxy     :     0.006701

 17 O s       :     3.727799  s :     3.727799
      pz      :     1.249565  p :     4.605208
      px      :     1.739650
      py      :     1.615993
      dz2     :     0.002979  d :     0.023437
      dxz     :     0.002826
      dyz     :     0.006719
      dx2y2   :     0.006531
      dxy     :     0.004383

 18 H s       :     0.804741  s :     0.804741
      pz      :     0.008443  p :     0.018565
      px      :     0.004122
      py      :     0.006000

 19 H s       :     0.799357  s :     0.799357
      pz      :     0.008431  p :     0.018322
      px      :     0.005512
      py      :     0.004379

 20 H s       :     0.804099  s :     0.804099
      pz      :     0.003908  p :     0.018265
      px      :     0.010798
      py      :     0.003559

 21 H s       :     0.798765  s :     0.798765
      pz      :     0.004705  p :     0.019669
      px      :     0.007479
      py      :     0.007484

 22 H s       :     0.805181  s :     0.805181
      pz      :     0.004518  p :     0.019681
      px      :     0.003853
      py      :     0.011310

 23 H s       :     0.796253  s :     0.796253
      pz      :     0.004766  p :     0.019915
      px      :     0.003927
      py      :     0.011222

 24 H s       :     0.794234  s :     0.794234
      pz      :     0.005048  p :     0.020304
      px      :     0.007451
      py      :     0.007805

 25 H s       :     0.801875  s :     0.801875
      pz      :     0.004475  p :     0.019675
      px      :     0.003876
      py      :     0.011323

 26 H s       :     0.799707  s :     0.799707
      pz      :     0.004627  p :     0.020150
      px      :     0.004097
      py      :     0.011426

 27 H s       :     0.809725  s :     0.809725
      pz      :     0.006224  p :     0.017621
      px      :     0.002776
      py      :     0.008622

 28 H s       :     0.808421  s :     0.808421
      pz      :     0.003537  p :     0.017699
      px      :     0.009361
      py      :     0.004800

 29 H s       :     0.809847  s :     0.809847
      pz      :     0.010871  p :     0.017628
      px      :     0.002794
      py      :     0.003962

 30 H s       :     0.578213  s :     0.578213
      pz      :     0.020257  p :     0.040787
      px      :     0.010932
      py      :     0.009598


------------------------
MULLIKEN OVERLAP CHARGES
------------------------
B(  0-C ,  1-C ) :   0.1259 B(  0-C ,  2-H ) :  -0.0589 B(  0-C , 15-C ) :  -0.0630 
B(  0-C , 18-H ) :   0.8101 B(  0-C , 19-H ) :   0.8669 B(  0-C , 20-H ) :   0.8113 
B(  1-C ,  2-H ) :   0.9794 B(  1-C ,  3-C ) :  -0.1630 B(  1-C ,  4-C ) :  -0.2398 
B(  1-C ,  5-C ) :   0.0539 B(  1-C , 11-C ) :   0.0909 B(  1-C , 15-C ) :   0.4029 
B(  1-C , 16-O ) :  -0.1292 B(  1-C , 17-O ) :  -0.1267 B(  1-C , 19-H ) :  -0.1459 
B(  1-C , 20-H ) :  -0.0913 B(  2-H ,  3-C ) :  -0.1157 B(  2-H , 15-C ) :  -0.1194 
B(  3-C ,  4-C ) :   0.6119 B(  3-C ,  5-C ) :   0.0847 B(  3-C ,  6-C ) :  -0.1116 
B(  3-C , 10-C ) :   0.0697 B(  3-C , 11-C ) :   0.2098 B(  3-C , 12-C ) :   0.0700 
B(  3-C , 16-O ) :  -0.0814 B(  3-C , 21-H ) :  -0.1009 B(  3-C , 26-H ) :  -0.1279 
B(  4-C ,  5-C ) :   0.4116 B(  4-C ,  6-C ) :  -0.0949 B(  4-C ,  7-C ) :   0.0827 
B(  4-C , 11-C ) :  -0.2384 B(  4-C , 12-C ) :   0.2146 B(  4-C , 21-H ) :   0.8381 
B(  4-C , 22-H ) :  -0.0654 B(  5-C ,  6-C ) :   0.6599 B(  5-C ,  7-C ) :  -0.4759 
B(  5-C ,  8-C ) :   0.0531 B(  5-C , 10-C ) :   0.0793 B(  5-C , 11-C ) :   0.0704 
B(  5-C , 12-C ) :  -0.6334 B(  5-C , 21-H ) :  -0.0691 B(  5-C , 22-H ) :   0.8500 
B(  6-C ,  7-C ) :  -0.1673 B(  6-C ,  8-C ) :   0.1972 B(  6-C ,  9-C ) :   0.1021 
B(  6-C , 10-C ) :  -0.2087 B(  6-C , 11-C ) :   0.8350 B(  6-C , 12-C ) :  -0.0708 
B(  6-C , 22-H ) :  -0.0984 B(  6-C , 23-H ) :  -0.0700 B(  7-C ,  8-C ) :   0.4023 
B(  7-C ,  9-C ) :  -0.3483 B(  7-C , 10-C ) :  -0.3414 B(  7-C , 12-C ) :   0.2026 
B(  7-C , 13-O ) :  -0.1208 B(  7-C , 23-H ) :   0.8223 B(  8-C ,  9-C ) :   0.8432 
B(  8-C , 11-C ) :  -0.1036 B(  8-C , 13-O ) :   0.5559 B(  8-C , 14-C ) :  -0.2669 
B(  8-C , 24-H ) :  -0.0764 B(  9-C , 10-C ) :   0.4523 B(  9-C , 11-C ) :  -0.1832 
B(  9-C , 13-O ) :  -0.1432 B(  9-C , 24-H ) :   0.7749 B(  9-C , 25-H ) :  -0.0653 
B( 10-C , 11-C ) :   0.7035 B( 10-C , 12-C ) :  -0.3777 B( 10-C , 25-H ) :   0.8505 
B( 11-C , 12-C ) :  -0.2739 B( 11-C , 25-H ) :  -0.0916 B( 11-C , 26-H ) :  -0.0690 
B( 12-C , 26-H ) :   0.8692 B( 13-O , 14-C ) :   0.3786 B( 13-O , 27-H ) :  -0.0761 
B( 13-O , 28-H ) :  -0.0806 B( 13-O , 29-H ) :  -0.0757 B( 14-C , 27-H ) :   0.8218 
B( 14-C , 28-H ) :   0.7804 B( 14-C , 29-H ) :   0.8231 B( 15-C , 16-O ) :   1.0930 
B( 15-C , 17-O ) :   0.3694 B( 16-O , 17-O ) :  -0.2129 B( 17-O , 30-H ) :   0.6130 
B( 27-H , 29-H ) :  -0.0698 


                     *******************************
                     * LOEWDIN POPULATION ANALYSIS *
                     *******************************

----------------------
LOEWDIN ATOMIC CHARGES
----------------------
   0 C :   -0.382294
   1 C :   -0.140781
   2 H :    0.196617
   3 C :   -0.085524
   4 C :   -0.150875
   5 C :   -0.151149
   6 C :   -0.062958
   7 C :   -0.134309
   8 C :    0.181508
   9 C :   -0.156100
  10 C :   -0.135195
  11 C :   -0.078651
  12 C :   -0.128762
  13 O :   -0.707312
  14 C :   -0.051359
  15 C :    0.363129
  16 O :   -0.479881
  17 O :   -0.390106
  18 H :    0.172204
  19 H :    0.167051
  20 H :    0.167013
  21 H :    0.185149
  22 H :    0.183560
  23 H :    0.193323
  24 H :    0.191528
  25 H :    0.185324
  26 H :    0.189543
  27 H :    0.174399
  28 H :    0.187716
  29 H :    0.174397
  30 H :    0.322795

-------------------------------
LOEWDIN REDUCED ORBITAL CHARGES
-------------------------------
  0 C s       :     2.960825  s :     2.960825
      pz      :     1.149762  p :     3.359548
      px      :     1.158012
      py      :     1.051774
      dz2     :     0.010800  d :     0.061921
      dxz     :     0.008168
      dyz     :     0.015755
      dx2y2   :     0.019263
      dxy     :     0.007935

  1 C s       :     2.881935  s :     2.881935
      pz      :     1.032486  p :     3.167893
      px      :     1.045901
      py      :     1.089506
      dz2     :     0.017263  d :     0.090953
      dxz     :     0.016641
      dyz     :     0.019796
      dx2y2   :     0.021396
      dxy     :     0.015857

  2 H s       :     0.759820  s :     0.759820
      pz      :     0.017807  p :     0.043563
      px      :     0.010835
      py      :     0.014922

  3 C s       :     2.859098  s :     2.859098
      pz      :     0.993971  p :     3.127453
      px      :     1.035546
      py      :     1.097936
      dz2     :     0.008378  d :     0.098973
      dxz     :     0.013031
      dyz     :     0.013106
      dx2y2   :     0.033843
      dxy     :     0.030614

  4 C s       :     2.897502  s :     2.897502
      pz      :     0.991123  p :     3.170840
      px      :     1.106635
      py      :     1.073083
      dz2     :     0.005777  d :     0.082533
      dxz     :     0.011250
      dyz     :     0.009181
      dx2y2   :     0.025716
      dxy     :     0.030609

  5 C s       :     2.897584  s :     2.897584
      pz      :     0.995677  p :     3.172103
      px      :     1.087735
      py      :     1.088691
      dz2     :     0.005953  d :     0.081462
      dxz     :     0.014293
      dyz     :     0.005570
      dx2y2   :     0.027176
      dxy     :     0.028469

  6 C s       :     2.842219  s :     2.842219
      pz      :     0.976371  p :     3.117968
      px      :     1.069527
      py      :     1.072071
      dz2     :     0.008135  d :     0.102771
      dxz     :     0.016363
      dyz     :     0.011860
      dx2y2   :     0.033343
      dxy     :     0.033070

  7 C s       :     2.884117  s :     2.884117
      pz      :     1.038253  p :     3.173968
      px      :     1.045395
      py      :     1.090320
      dz2     :     0.006259  d :     0.076224
      dxz     :     0.012507
      dyz     :     0.006108
      dx2y2   :     0.024004
      dxy     :     0.027347

  8 C s       :     2.780257  s :     2.780257
      pz      :     0.924662  p :     2.879630
      px      :     0.898156
      py      :     1.056812
      dz2     :     0.013146  d :     0.158605
      dxz     :     0.031701
      dyz     :     0.014411
      dx2y2   :     0.047228
      dxy     :     0.052119

  9 C s       :     2.892907  s :     2.892907
      pz      :     1.026329  p :     3.185007
      px      :     1.099151
      py      :     1.059527
      dz2     :     0.005737  d :     0.078186
      dxz     :     0.010735
      dyz     :     0.008542
      dx2y2   :     0.024977
      dxy     :     0.028195

 10 C s       :     2.897045  s :     2.897045
      pz      :     0.981016  p :     3.155433
      px      :     1.084449
      py      :     1.089968
      dz2     :     0.006067  d :     0.082717
      dxz     :     0.015394
      dyz     :     0.005622
      dx2y2   :     0.027542
      dxy     :     0.028093

 11 C s       :     2.842067  s :     2.842067
      pz      :     0.995688  p :     3.135465
      px      :     1.068563
      py      :     1.071215
      dz2     :     0.008156  d :     0.101118
      dxz     :     0.014496
      dyz     :     0.011763
      dx2y2   :     0.033186
      dxy     :     0.033517

 12 C s       :     2.886341  s :     2.886341
      pz      :     0.997598  p :     3.160440
      px      :     1.062788
      py      :     1.100053
      dz2     :     0.006588  d :     0.081982
      dxz     :     0.013924
      dyz     :     0.006723
      dx2y2   :     0.028821
      dxy     :     0.025925

 13 O s       :     3.469260  s :     3.469260
      pz      :     1.768134  p :     4.747567
      px      :     1.332813
      py      :     1.646620
      dz2     :     0.059387  d :     0.490485
      dxz     :     0.102698
      dyz     :     0.048381
      dx2y2   :     0.145759
      dxy     :     0.134260

 14 C s       :     2.904174  s :     2.904174
      pz      :     1.085541  p :     3.038103
      px      :     0.951883
      py      :     1.000679
      dz2     :     0.021981  d :     0.109082
      dxz     :     0.010744
      dyz     :     0.025470
      dx2y2   :     0.020339
      dxy     :     0.030547

 15 C s       :     2.743139  s :     2.743139
      pz      :     0.938548  p :     2.621062
      px      :     0.743546
      py      :     0.938969
      dz2     :     0.044306  d :     0.272670
      dxz     :     0.031123
      dyz     :     0.100200
      dx2y2   :     0.049865
      dxy     :     0.047177

 16 O s       :     3.549191  s :     3.549191
      pz      :     1.756040  p :     4.724372
      px      :     1.476367
      py      :     1.491965
      dz2     :     0.024887  d :     0.206318
      dxz     :     0.016802
      dyz     :     0.062317
      dx2y2   :     0.051122
      dxy     :     0.051191

 17 O s       :     3.464604  s :     3.464604
      pz      :     1.337171  p :     4.677114
      px      :     1.700100
      py      :     1.639843
      dz2     :     0.079472  d :     0.248388
      dxz     :     0.030360
      dyz     :     0.070913
      dx2y2   :     0.036885
      dxy     :     0.030758

 18 H s       :     0.782620  s :     0.782620
      pz      :     0.021638  p :     0.045176
      px      :     0.009476
      py      :     0.014062

 19 H s       :     0.788587  s :     0.788587
      pz      :     0.021259  p :     0.044361
      px      :     0.013203
      py      :     0.009899

 20 H s       :     0.788823  s :     0.788823
      pz      :     0.008841  p :     0.044164
      px      :     0.027432
      py      :     0.007891

 21 H s       :     0.769106  s :     0.769106
      pz      :     0.010633  p :     0.045745
      px      :     0.017444
      py      :     0.017667

 22 H s       :     0.770536  s :     0.770536
      pz      :     0.010305  p :     0.045904
      px      :     0.008740
      py      :     0.026859

 23 H s       :     0.760333  s :     0.760333
      pz      :     0.011035  p :     0.046345
      px      :     0.008875
      py      :     0.026434

 24 H s       :     0.761132  s :     0.761132
      pz      :     0.011666  p :     0.047340
      px      :     0.017246
      py      :     0.018428

 25 H s       :     0.768884  s :     0.768884
      pz      :     0.010166  p :     0.045792
      px      :     0.008660
      py      :     0.026966

 26 H s       :     0.763675  s :     0.763675
      pz      :     0.010501  p :     0.046782
      px      :     0.009112
      py      :     0.027169

 27 H s       :     0.784285  s :     0.784285
      pz      :     0.015484  p :     0.041316
      px      :     0.006174
      py      :     0.019658

 28 H s       :     0.772106  s :     0.772106
      pz      :     0.007502  p :     0.040178
      px      :     0.020419
      py      :     0.012258

 29 H s       :     0.784281  s :     0.784281
      pz      :     0.026107  p :     0.041321
      px      :     0.006564
      py      :     0.008651

 30 H s       :     0.560377  s :     0.560377
      pz      :     0.058992  p :     0.116828
      px      :     0.029973
      py      :     0.027862


---------------------------------
LOEWDIN BOND ORDERS (THRESH 0.050000)
---------------------------------
B(  0-C ,  1-C ) :   1.0837 B(  0-C ,  3-C ) :   0.0646 B(  0-C , 15-C ) :   0.0690 
B(  0-C , 17-O ) :   0.0569 B(  0-C , 18-H ) :   0.9029 B(  0-C , 19-H ) :   0.9117 
B(  0-C , 20-H ) :   0.9159 B(  1-C ,  2-H ) :   0.8253 B(  1-C ,  3-C ) :   1.0033 
B(  1-C ,  4-C ) :   0.0875 B(  1-C , 12-C ) :   0.0824 B(  1-C , 15-C ) :   0.8814 
B(  1-C , 16-O ) :   0.1825 B(  1-C , 17-O ) :   0.1629 B(  3-C ,  4-C ) :   1.3080 
B(  3-C ,  5-C ) :   0.0906 B(  3-C ,  6-C ) :   0.0737 B(  3-C , 11-C ) :   0.0928 
B(  3-C , 12-C ) :   1.5262 B(  3-C , 15-C ) :   0.0868 B(  3-C , 26-H ) :   0.0527 
B(  4-C ,  5-C ) :   1.6298 B(  4-C ,  6-C ) :   0.0901 B(  4-C , 11-C ) :   0.0779 
B(  4-C , 12-C ) :   0.0840 B(  4-C , 21-H ) :   0.8568 B(  4-C , 22-H ) :   0.0570 
B(  5-C ,  6-C ) :   1.2989 B(  5-C ,  7-C ) :   0.0960 B(  5-C , 11-C ) :   0.0771 
B(  5-C , 12-C ) :   0.1260 B(  5-C , 21-H ) :   0.0566 B(  5-C , 22-H ) :   0.8593 
B(  6-C ,  7-C ) :   1.3444 B(  6-C ,  8-C ) :   0.0933 B(  6-C ,  9-C ) :   0.0758 
B(  6-C , 10-C ) :   0.0782 B(  6-C , 11-C ) :   1.2276 B(  6-C , 12-C ) :   0.0779 
B(  6-C , 22-H ) :   0.0506 B(  6-C , 23-H ) :   0.0502 B(  7-C ,  8-C ) :   1.3804 
B(  7-C ,  9-C ) :   0.0852 B(  7-C , 10-C ) :   0.1280 B(  7-C , 11-C ) :   0.0800 
B(  7-C , 13-O ) :   0.2478 B(  7-C , 23-H ) :   0.8470 B(  8-C ,  9-C ) :   1.2299 
B(  8-C , 10-C ) :   0.0933 B(  8-C , 11-C ) :   0.0687 B(  8-C , 13-O ) :   1.4575 
B(  8-C , 14-C ) :   0.0792 B(  8-C , 23-H ) :   0.0551 B(  9-C , 10-C ) :   1.6038 
B(  9-C , 11-C ) :   0.0912 B(  9-C , 13-O ) :   0.1816 B(  9-C , 24-H ) :   0.8498 
B(  9-C , 25-H ) :   0.0560 B( 10-C , 11-C ) :   1.3199 B( 10-C , 12-C ) :   0.0961 
B( 10-C , 24-H ) :   0.0568 B( 10-C , 25-H ) :   0.8577 B( 11-C , 12-C ) :   1.3175 
B( 11-C , 25-H ) :   0.0508 B( 11-C , 26-H ) :   0.0504 B( 12-C , 26-H ) :   0.8457 
B( 13-O , 14-C ) :   1.4012 B( 13-O , 27-H ) :   0.1035 B( 13-O , 28-H ) :   0.1037 
B( 13-O , 29-H ) :   0.1035 B( 14-C , 27-H ) :   0.8562 B( 14-C , 28-H ) :   0.8556 
B( 14-C , 29-H ) :   0.8561 B( 15-C , 16-O ) :   2.1597 B( 15-C , 17-O ) :   1.5088 
B( 15-C , 30-H ) :   0.0536 B( 16-O , 17-O ) :   0.4626 B( 17-O , 30-H ) :   0.8968 


------------------------------------------
LOEWDIN REDUCED ORBITAL POPULATIONS PER MO
-------------------------------------------
THRESHOLD FOR PRINTING IS 0.1%%
                      0         1         2         3         4         5   
                 -19.00381 -18.98878 -18.94542 -10.17014 -10.09960 -10.07326
                   2.00000   2.00000   2.00000   2.00000   2.00000   2.00000
                  --------  --------  --------  --------  --------  --------
 8 C  s               0.0       0.0       0.0       0.0      99.2       0.0
13 O  s               0.0      99.9       0.0       0.0       0.0       0.0
13 O  px              0.0       0.0       0.0       0.0       0.1       0.1
13 O  dx2y2           0.0       0.0       0.0       0.0       0.2       0.0
13 O  dxy             0.0       0.0       0.0       0.0       0.1       0.2
14 C  s               0.0       0.0       0.0       0.0       0.0      99.4
15 C  s               0.0       0.0       0.0      98.9       0.0       0.0
16 O  s               0.0       0.0      99.9       0.0       0.0       0.0
16 O  py              0.0       0.0       0.0       0.2       0.0       0.0
16 O  dx2y2           0.0       0.0       0.0       0.1       0.0       0.0
16 O  dxy             0.0       0.0       0.0       0.1       0.0       0.0
17 O  s              99.9       0.0       0.0       0.0       0.0       0.0
17 O  dyz             0.0       0.0       0.0       0.2       0.0       0.0

                      6         7         8         9        10        11   
                 -10.05584 -10.04877 -10.04859 -10.04447 -10.04000 -10.03806
                   2.00000   2.00000   2.00000   2.00000   2.00000   2.00000
                  --------  --------  --------  --------  --------  --------
 1 C  s              99.6       0.0       0.0       0.0       0.0       0.0
 3 C  s               0.0      99.4       0.0       0.0       0.0       0.0
 4 C  py              0.0       0.1       0.0       0.0       0.0       0.0
 6 C  s               0.0       0.0      99.3       0.2       0.0       0.0
 6 C  py              0.0       0.0       0.0       0.1       0.0       0.0
 7 C  px              0.0       0.0       0.1       0.0       0.0       0.0
 8 C  py              0.0       0.0       0.0       0.0       0.0       0.1
 9 C  s               0.0       0.0       0.0       0.0       2.0      97.6
 9 C  px              0.0       0.0       0.0       0.0       0.1       0.0
10 C  s               0.0       0.0       0.0       0.2      97.4       2.0
10 C  px              0.0       0.0       0.0       0.1       0.0       0.1
11 C  s               0.0       0.0       0.2      99.1       0.2       0.0
11 C  py              0.0       0.0       0.1       0.0       0.1       0.0
12 C  px              0.0       0.1       0.0       0.1       0.0       0.0

                     12        13        14        15        16        17   
                 -10.03547 -10.03528 -10.03480 -10.03096 -10.02035  -1.08209
                   2.00000   2.00000   2.00000   2.00000   2.00000   2.00000
                  --------  --------  --------  --------  --------  --------
 0 C  s               0.0       0.0       0.0       0.0      99.7       0.1
 0 C  pz              0.0       0.0       0.0       0.0       0.0       0.2
 0 C  py              0.0       0.0       0.0       0.0       0.0       0.2
 1 C  s               0.0       0.0       0.0       0.0       0.0       1.1
 1 C  pz              0.0       0.0       0.0       0.0       0.0       1.9
 1 C  px              0.0       0.0       0.0       0.0       0.0       0.2
 1 C  py              0.0       0.0       0.0       0.0       0.1       0.1
 3 C  s               0.0       0.1       0.0       0.0       0.0       0.1
 3 C  px              0.0       0.1       0.0       0.0       0.0       0.3
 3 C  py              0.1       0.1       0.0       0.0       0.0       0.0
 4 C  s              77.0       0.2      22.5       0.0       0.0       0.0
 4 C  px              0.0       0.0       0.1       0.0       0.0       0.0
 5 C  s              22.4       0.0      77.1       0.0       0.0       0.0
 5 C  px              0.1       0.0       0.0       0.0       0.0       0.0
 6 C  px              0.0       0.0       0.0       0.1       0.0       0.0
 7 C  s               0.0       0.0       0.0      99.6       0.0       0.0
11 C  px              0.0       0.1       0.0       0.0       0.0       0.0
12 C  s               0.2      99.3       0.0       0.0       0.0       0.0
15 C  s               0.0       0.0       0.0       0.0       0.0      18.1
15 C  pz              0.0       0.0       0.0       0.0       0.0       4.9
15 C  px              0.0       0.0       0.0       0.0       0.0       0.2
15 C  dyz             0.0       0.0       0.0       0.0       0.0       0.4
15 C  dx2y2           0.0       0.0       0.0       0.0       0.0       0.5
15 C  dxy             0.0       0.0       0.0       0.0       0.0       0.3
16 O  s               0.0       0.0       0.0       0.0       0.0      15.3
16 O  px              0.0       0.0       0.0       0.0       0.0       0.5
16 O  py              0.0       0.0       0.0       0.0       0.0       3.0
16 O  dz2             0.0       0.0       0.0       0.0       0.0       0.2
16 O  dyz             0.0       0.0       0.0       0.0       0.0       0.1
16 O  dx2y2           0.0       0.0       0.0       0.0       0.0       0.7
16 O  dxy             0.0       0.0       0.0       0.0       0.0       0.5
17 O  s               0.0       0.0       0.0       0.0       0.0      39.6
17 O  pz              0.0       0.0       0.0       0.0       0.0       0.5
17 O  px              0.0       0.0       0.0       0.0       0.0       0.2
17 O  py              0.0       0.0       0.0       0.0       0.0       2.5
17 O  dyz             0.0       0.0       0.0       0.0       0.0       0.5
17 O  dx2y2           0.0       0.0       0.0       0.0       0.0       0.3
30 H  s               0.0       0.0       0.0       0.0       0.0       5.7
30 H  pz              0.0       0.0       0.0       0.0       0.0       1.1
30 H  px              0.0       0.0       0.0       0.0       0.0       0.1
30 H  py              0.0       0.0       0.0       0.0       0.0       0.1

                     18        19        20        21        22        23   
                  -1.03509  -0.98811  -0.85142  -0.80850  -0.76620  -0.74587
                   2.00000   2.00000   2.00000   2.00000   2.00000   2.00000
                  --------  --------  --------  --------  --------  --------
 0 C  s               0.0       0.0       0.3       2.8       7.3       0.9
 0 C  px              0.0       0.0       0.1       0.2       0.1       0.0
 0 C  py              0.0       0.0       0.2       1.0       1.4       0.2
 1 C  s               0.0       0.1       1.7       9.5      13.3       1.6
 1 C  pz              0.0       0.0       0.0       0.0       0.1       0.0
 1 C  px              0.0       0.1       0.8       1.2       0.0       0.1
 1 C  py              0.0       0.4       0.0       0.0       0.6       0.0
 2 H  s               0.0       0.0       0.2       1.1       1.8       0.3
 2 H  pz              0.0       0.0       0.0       0.1       0.1       0.0
 3 C  s               0.0       0.0       7.3      13.3       0.7       0.1
 3 C  pz              0.0       0.0       0.0       0.0       0.0       0.3
 3 C  px              0.0       0.0       0.9       0.3       5.1       1.7
 3 C  py              0.0       0.0       0.0       0.0       1.5       1.5
 3 C  dz2             0.0       0.0       0.1       0.1       0.0       0.0
 4 C  s               0.0       0.0       5.8       6.2       3.1       1.5
 4 C  pz              0.0       0.0       0.2       0.1       0.0       0.0
 4 C  px              0.0       0.0       0.7       0.1       3.2       0.3
 4 C  py              0.0       0.0       0.8       1.5       0.4       0.3
 5 C  s               0.0       0.0       7.0       0.9       9.4       4.2
 5 C  pz              0.0       0.0       0.2       0.0       0.0       0.0
 5 C  px              0.0       0.0       0.0       2.0       0.0       0.1
 5 C  py              0.0       0.0       1.8       0.0       0.6       0.1
 6 C  s               0.1       0.0      13.7       1.2       4.6       2.5
 6 C  pz              0.0       0.0       0.0       0.2       0.2       0.3
 6 C  px              0.1       0.0       0.2       2.9       2.1       1.7
 6 C  py              0.0       0.0       0.5       0.3       0.9       5.3
 6 C  dz2             0.0       0.0       0.1       0.0       0.0       0.0
 6 C  dx2y2           0.0       0.0       0.0       0.0       0.0       0.1
 7 C  s               0.8       0.0       5.6       4.7       0.0      10.8
 7 C  pz              0.1       0.0       0.0       0.1       0.2       0.0
 7 C  px              1.0       0.0       1.2       0.0       1.9       0.0
 7 C  py              0.3       0.0       0.8       1.1       0.5       0.2
 8 C  s               9.0       0.0       2.6       5.1       2.9       4.3
 8 C  pz              0.0       0.0       0.0       0.0       0.0       0.4
 8 C  px              8.1       0.0       2.4       2.6       0.5       0.8
 8 C  py              0.5       0.0       0.0       0.2       1.0       2.7
 8 C  dz2             0.3       0.0       0.0       0.0       0.0       0.0
 8 C  dx2y2           0.5       0.0       0.0       0.0       0.0       0.0
 8 C  dxy             0.2       0.0       0.0       0.0       0.0       0.0
 9 C  s               0.7       0.0       3.7       6.8       6.5       0.7
 9 C  pz              0.0       0.0       0.1       0.1       0.0       0.1
 9 C  px              0.4       0.0       1.1       0.6       0.2       1.8
 9 C  py              0.9       0.0       0.3       0.5       0.2       1.6
 9 C  dx2y2           0.0       0.0       0.0       0.0       0.0       0.1
10 C  s               0.1       0.0       6.3       4.6       3.0       9.3
10 C  pz              0.0       0.0       0.2       0.0       0.0       0.1
10 C  px              0.1       0.0       0.1       1.0       1.4       0.9
10 C  py              0.0       0.0       1.6       0.6       0.0       0.2
11 C  s               0.0       0.0      14.2       0.7       0.2       9.6
[...]
15 C  py              3.1       0.0       0.0       0.0       0.0       0.0
15 C  dz2             0.5       0.0       0.0       0.0       0.0       0.0
15 C  dxz             0.3       0.0       0.0       0.0       0.0       0.0
15 C  dyz             2.6       0.0       0.0       0.0       0.0       0.0
15 C  dxy             0.4       0.0       0.0       0.0       0.0       0.0
16 O  s               2.4       0.0       0.0       0.0       0.0       0.0
16 O  px              0.4       0.0       0.0       0.0       0.0       0.0
16 O  py              2.5       0.0       0.0       0.0       0.0       0.0
16 O  dz2             1.6       0.0       0.0       0.0       0.0       0.0
16 O  dx2y2           1.6       0.0       0.0       0.0       0.0       0.0
16 O  dxy             1.4       0.0       0.0       0.0       0.0       0.0
17 O  s               4.3       0.0       0.0       0.0       0.0       0.0
17 O  pz             18.4       0.0       0.0       0.0       0.0       0.0
17 O  px              1.1       0.0       0.0       0.0       0.0       0.0
17 O  py              0.4       0.0       0.0       0.0       0.0       0.0
17 O  dz2             7.0       0.0       0.0       0.0       0.0       0.0
17 O  dxz             7.3       0.0       0.0       0.0       0.0       0.0
17 O  dyz            18.1       0.0       0.0       0.0       0.0       0.0
17 O  dxy             1.0       0.0       0.0       0.0       0.0       0.0
30 H  s              11.1       0.0       0.0       0.0       0.0       0.0
30 H  pz             10.1       0.0       0.0       0.0       0.0       0.0
30 H  px              1.3       0.0       0.0       0.0       0.0       0.0
30 H  py              1.7       0.0       0.0       0.0       0.0       0.0

                    396       397       398       399       400       401   
                  22.03989  22.08004  22.16336  22.20246  22.24167  22.27202
                   0.00000   0.00000   0.00000   0.00000   0.00000   0.00000
                  --------  --------  --------  --------  --------  --------
 0 C  s              68.8       2.6       2.1       0.0       0.2      10.0
 1 C  s              17.2       0.8       1.2       0.0       0.0      28.5
 3 C  s               1.0      27.1      10.4       0.9       0.1       6.1
 4 C  s               1.6       2.8       7.3      14.4       2.0       6.6
 5 C  s               0.0      12.4       0.1       1.5       4.5      17.6
 6 C  s               0.1       0.8      16.2       3.1       3.0       6.8
 7 C  s               2.3      13.5       3.3       4.8      18.3       0.2
 8 C  s               1.9      10.3      20.5       0.6      13.2       5.8
 9 C  s               0.1       2.0       6.3      21.2       1.1       1.8
10 C  s               1.0       7.2       1.5      17.5      20.5       0.1
11 C  s               4.9       1.4       3.9       3.6      18.6       0.2
12 C  s               0.1       7.3       4.9      22.4      13.1       0.6
14 C  s               0.6       0.5       0.5       0.0       1.0       0.0
15 C  s               0.0      10.5      21.3       9.3       3.9      14.9

                    402       403       404       405       406       407   
                  22.30839  22.36255  22.42013  43.68051  43.69523  43.72983
                   0.00000   0.00000   0.00000   0.00000   0.00000   0.00000
                  --------  --------  --------  --------  --------  --------
 0 C  s               6.9       0.3       1.0       0.0       0.0       0.0
 1 C  s              41.5       3.4       4.6       0.0       0.0       0.0
 3 C  s               1.4       3.4      25.8       0.0       0.0       0.0
 4 C  s              13.3       0.2       8.5       0.0       0.0       0.0
 5 C  s              19.5       1.3       4.2       0.0       0.0       0.0
 6 C  s               0.6      10.7       5.6       0.0       0.0       0.0
 7 C  s               2.6      16.9       0.9       0.0       0.0       0.0
 8 C  s               5.3      17.2       0.4       0.0       0.0       0.0
 9 C  s               1.2      12.7       0.2       0.0       0.0       0.0
10 C  s               1.7      13.7       1.1       0.0       0.0       0.0
11 C  s               0.3      10.6       6.0       0.0       0.0       0.0
12 C  s               0.6       0.0      16.3       0.0       0.0       0.0
13 O  s               0.0       0.0       0.0       0.0       0.0      99.9
14 C  s               0.1       0.3       0.0       0.0       0.0       0.0
15 C  s               4.4       8.8      24.9       0.1       0.0       0.0
16 O  s               0.0       0.0       0.1      19.8      80.0       0.0
17 O  s               0.0       0.0       0.0      80.0      19.9       0.0



                      *****************************
                      * MAYER POPULATION ANALYSIS *
                      *****************************

  NA   - Mulliken gross atomic population
  ZA   - Total nuclear charge
  QA   - Mulliken gross atomic charge
  VA   - Mayer's total valence
  BVA  - Mayer's bonded valence
  FA   - Mayer's free valence

  ATOM       NA         ZA         QA         VA         BVA        FA
  0 C      6.5568     6.0000    -0.5568     3.7717     3.7717     0.0000
  1 C      6.0578     6.0000    -0.0578     3.6411     3.6411     0.0000
  2 H      0.7920     1.0000     0.2080     0.9465     0.9465     0.0000
  3 C      5.8312     6.0000     0.1688     3.3988     3.3988     0.0000
  4 C      6.2675     6.0000    -0.2675     3.7711     3.7711    -0.0000
  5 C      6.3173     6.0000    -0.3173     3.6208     3.6208     0.0000
  6 C      5.7956     6.0000     0.2044     3.6657     3.6657     0.0000
  7 C      6.4256     6.0000    -0.4256     3.6309     3.6309    -0.0000
  8 C      5.6623     6.0000     0.3377     3.7319     3.7319    -0.0000
  9 C      6.2830     6.0000    -0.2830     3.6677     3.6677     0.0000
 10 C      6.2978     6.0000    -0.2978     3.6411     3.6411     0.0000
 11 C      5.9083     6.0000     0.0917     3.8013     3.8013     0.0000
 12 C      6.2538     6.0000    -0.2538     3.7744     3.7744     0.0000
 13 O      8.2224     8.0000    -0.2224     1.9675     1.9675    -0.0000
 14 C      6.3420     6.0000    -0.3420     3.7324     3.7324     0.0000
 15 C      5.6814     6.0000     0.3186     3.9400     3.9400     0.0000
 16 O      8.4700     8.0000    -0.4700     1.9156     1.9156    -0.0000
 17 O      8.3564     8.0000    -0.3564     1.9702     1.9702     0.0000
 18 H      0.8233     1.0000     0.1767     0.9543     0.9543    -0.0000
 19 H      0.8177     1.0000     0.1823     0.9535     0.9535    -0.0000
 20 H      0.8224     1.0000     0.1776     0.9538     0.9538    -0.0000
 21 H      0.8184     1.0000     0.1816     0.9581     0.9581     0.0000
 22 H      0.8249     1.0000     0.1751     0.9624     0.9624     0.0000
 23 H      0.8162     1.0000     0.1838     0.9607     0.9607    -0.0000
 24 H      0.8145     1.0000     0.1855     0.9575     0.9575     0.0000
 25 H      0.8215     1.0000     0.1785     0.9610     0.9610     0.0000
 26 H      0.8199     1.0000     0.1801     0.9583     0.9583     0.0000
 27 H      0.8273     1.0000     0.1727     0.9481     0.9481     0.0000
 28 H      0.8261     1.0000     0.1739     0.9513     0.9513     0.0000
 29 H      0.8275     1.0000     0.1725     0.9482     0.9482    -0.0000
 30 H      0.6190     1.0000     0.3810     0.8624     0.8624     0.0000

  Mayer bond orders larger than 0.100000
B(  0-C ,  1-C ) :   0.8447 B(  0-C , 18-H ) :   0.9604 B(  0-C , 19-H ) :   0.9832 
B(  0-C , 20-H ) :   0.9665 B(  1-C ,  2-H ) :   0.9824 B(  1-C ,  3-C ) :   0.7833 
B(  1-C , 15-C ) :   0.9837 B(  3-C ,  4-C ) :   1.2187 B(  3-C , 12-C ) :   1.4675 
B(  4-C ,  5-C ) :   1.4616 B(  4-C , 21-H ) :   0.9564 B(  5-C ,  6-C ) :   1.1699 
B(  5-C , 22-H ) :   0.9717 B(  6-C ,  7-C ) :   1.1788 B(  6-C , 11-C ) :   1.3901 
B(  7-C ,  8-C ) :   1.4419 B(  7-C , 23-H ) :   0.9502 B(  8-C ,  9-C ) :   1.2258 
B(  8-C , 13-O ) :   1.0387 B(  9-C , 10-C ) :   1.4465 B(  9-C , 24-H ) :   0.9302 
B( 10-C , 11-C ) :   1.2198 B( 10-C , 25-H ) :   0.9706 B( 11-C , 12-C ) :   1.2383 
B( 12-C , 26-H ) :   0.9416 B( 13-O , 14-C ) :   0.8434 B( 14-C , 27-H ) :   0.9560 
B( 14-C , 28-H ) :   0.9602 B( 14-C , 29-H ) :   0.9563 B( 15-C , 16-O ) :   1.8576 
B( 15-C , 17-O ) :   1.0772 B( 17-O , 30-H ) :   0.8342 

-------
TIMINGS
-------

Total SCF time: 0 days 0 hours 1 min 42 sec 

Total time                  ....     102.844 sec
Sum of individual times     ....     101.737 sec  ( 98.9%)

SCF preparation             ....       0.713 sec  (  0.7%)
Fock matrix formation       ....      97.713 sec  ( 95.0%)
  Startup                   ....       0.106 sec  (  0.1% of F)
  Split-RI-J                ....      23.255 sec  ( 23.8% of F)
  XC integration            ....      52.108 sec  ( 53.3% of F)
    XC Preparation          ....       0.000 sec  (  0.0% of XC)
    Basis function eval.    ....       8.828 sec  ( 16.9% of XC)
    Density eval.           ....      19.154 sec  ( 36.8% of XC)
    XC-Functional eval.     ....       4.233 sec  (  8.1% of XC)
    XC-Potential eval.      ....      17.514 sec  ( 33.6% of XC)
  CPCM terms                ....      21.386 sec  ( 21.9% of F)
Diagonalization             ....       0.000 sec  (  0.0%)
Density matrix formation    ....       0.469 sec  (  0.5%)
Total Energy calculation    ....       0.092 sec  (  0.1%)
Population analysis         ....       0.355 sec  (  0.3%)
Orbital Transformation      ....       0.237 sec  (  0.2%)
Orbital Orthonormalization  ....       0.000 sec  (  0.0%)
DIIS solution               ....       1.952 sec  (  1.9%)
  MO trafo                  ....       0.000 sec  (  0.0 % of DIIS)
  Orb grad                  ....       0.000 sec  (  0.0 % of DIIS)
  Energy W gradient         ....       0.000 sec  (  0.0 % of DIIS)
  DIIS error                ....       0.079 sec  (  4.0 % of DIIS)
  DIIS work                 ....       1.705 sec  ( 87.3 % of DIIS)
  Form Q                    ....       0.000 sec  (  0.0 % of DIIS)
  Form QpQm                 ....       0.000 sec  (  0.0 % of DIIS)
  Exp/Cayley                ....       0.000 sec  (  0.0 % of DIIS)
  Orb update                ....       0.000 sec  (  0.0 % of DIIS)
  Wake-sleep                ....       0.031 sec  (  1.6 % of DIIS)
SOSCF solution              ....       0.207 sec  (  0.2%)
  MO trafo                  ....       0.157 sec  ( 76.1 % of SOSCF)
  Orb grad                  ....       0.001 sec  (  0.4 % of SOSCF)
  Rot update                ....       0.000 sec  (  0.0 % of SOSCF)
  Step                      ....       0.048 sec  ( 23.3 % of SOSCF)
Finished LeanSCF after 103.0 sec

Maximum memory used throughout the entire LEANSCF-calculation: 71.1 MB


-------------------------------------------------------------------------------
                          DFT DISPERSION CORRECTION                            
                                                                               
                                DFTD4 V3.4.0                                   
-------------------------------------------------------------------------------
The R2SCAN3C composite method is recognized
Using three-body term ABC
Active option DFTDOPT                   ...         5   

-------------------------   ----------------
Dispersion correction           -0.013084234
-------------------------   ----------------

------------------   -----------------
gCP correction             0.013666286
------------------   -----------------

-------------------------   --------------------
FINAL SINGLE POINT ENERGY      -767.459826439157
-------------------------   --------------------


------------------------------------------------------------------------------
                              ORCA PROPERTY CALCULATIONS
------------------------------------------------------------------------------

GBWName                                 ... sp_solv.gbw
Number of atoms                         ...     31
Number of basis functions               ...    408
Max core memory                         ...   1024 MB

Electric properties:
Dipole moment                           ... YES
Quadrupole moment                       ...  NO
Static polarizability (Dipole/Dipole)   ...  NO
Static polarizability (Dipole/Quad.)    ...  NO
Static polarizability (Quad./Quad.)     ...  NO
Static polarizability (Velocity)        ...  NO

Atomic electric properties:
Dipole moment                           ...  NO
Quadrupole moment                       ...  NO
Static polarizability                   ...  NO

Choice of electric origin               ... Center of mass
Position of electric origin             ...     0.000014     0.000010    -0.000010

General magnetic properties:
Magnetizability                         ...  NO

EPR properties:
g-Tensor (aka g-matrix)                 ...  NO
Zero-Field splitting spin-orbit         ...  NO
Zero-field splitting spin-spin          ...  NO
Hyperfine couplings                     ...  NO (   0 nuclei)
Quadrupole couplings                    ...  NO (   0 nuclei)
Contact density                         ...  NO (   0 nuclei)

NMR properties:
Chemical shifts                         ...  NO (   0 nuclei)
Spin-rotation constants                 ...  NO (   0 nuclei)
Spin-spin couplings                     ...  NO (   0 nuclei,    0 pairs)

Choice of magnetic origin               ... GIAO
Position of magnetic origin             ...     0.000000     0.000000     0.000000

Properties with geometric perturbations:
SCF Hessian                             ...  NO
IR spectrum                             ...  NO
VCD spectrum                            ...  NO
X-ray spectroscopy properties:
SCF XES/XAS/RIXS spectra                ...  NO


-------------
DIPOLE MOMENT
-------------

Method             : SCF
Type of density    : Electron Density
Multiplicity       :   1
Irrep              :   0
Energy             :  -767.4604084907815604 Eh
Relativity type    : 
Basis              : AO
                                X                 Y                 Z
Electronic contribution:     -3.305873605      -5.028087613       2.049718860
Nuclear contribution   :      4.267798847       6.788511437      -1.649489053
                        -----------------------------------------
Total Dipole Moment    :      0.961925242       1.760423824       0.400229806
                        -----------------------------------------
Magnitude (a.u.)       :      2.045623648
Magnitude (Debye)      :      5.199562098



--------------------
Rotational spectrum 
--------------------
 
Rotational constants in cm-1:             0.043806             0.007102             0.006696 
Rotational constants in MHz :          1313.272093           212.904477           200.755475 

Dipole components along the rotational axes: 
x,y,z [a.u.] :     0.959678     1.806309    -0.029014 
x,y,z [Debye]:     2.439307     4.591273    -0.073748 

 

Dipole moment calculation done in   0.0 sec 

Maximum memory used throughout the entire PROP-calculation: 32.9 MB

--------------------------------
SUGGESTED CITATIONS FOR THIS RUN
--------------------------------

Below you find a list of papers that are relevant to this ORCA run
We neither can nor want to force you to cite these papers, but we appreciate if you do
You receive ORCA, which is the product of decades of hard work by many enthusiastic individuals, for free
The only thing we kindly ask in return is that you cite our papers,
We deeply appreciate it, if you show your appreciation for ORCA by not just citing the generic ORCA reference.

Please note that relegating all ORCA citations to the supporting information does *not* help us.
SI sections are not indexed - citations you put there will not count into any citation statistics
But we need these citations in order to attract the funding resources that allow us to do what we are doing

Therefore, if you are a happy ORCA user, please consider citing a few of the papers listed below in the main body of your paper

In addition to the list printed below, the program has created the file sp_solv.bibtex that contains the list in bibtex format
You can import this file easily into all common literature databanks and citation aid programs


List of essential papers. We consider these as the minimum necessary citations

  1. Neese,F.
     Software update: the ORCA program system, version 5.0
     WIRES Comput. Molec. Sci., 2022 12(1)e1606
     doi.org/10.1002/wcms.1606
  2. Grimme,S.; Hansen,A.; Ehlert,S.; Mewes,J.
     r2SCAN-3c: A 'Swiss army knife' composite electronic-structure method
     J. Chem. Phys., 2021 154 064103
     doi.org/10.1063/5.0040021

List of papers to cite with high priority. The work reported in these papers was absolutely
necessary for this run to complete.
Our perspective: the developers of density functionals and basis sets usually get cited in chemistry papers
Good! But without the algorithms to do something with them, the functionals or basis sets would not do anything.
Hence, in our opinion, the algorithm design and method developments papers are equally worthy of getting cited

  1. Neese,F.
     An improvement of the resolution of the identity approximation for the formation of the Coulomb matrix
     J. Comp. Chem., 2003 24(14)1740-1747
     doi.org/10.1002/jcc.10318
  2. Garcia-Rates,M.; Neese,F.
     Effect of the Solute Cavity on the Solvation Energy and its Derivatives within the Framework of the Gaussian Charge Scheme
     J. Comput. Chem., 2020 41 922-939
     doi.org/10.1002/jcc.26139
  3. Neese,F.
     The SHARK Integral Generation and Digestion System
     J. Comp. Chem., 2022  1-16
     doi.org/10.1002/jcc.26942
  4. Lehtola,S.; Steigemann,C.; Oliveira,M.; Marques,M.
     Recent developments in Libxc - A comprehensive library of functionals for density functional theory
     Software X, 2018 7 
     doi.org/10.1016/j.softx.2017.11.002
  5. Caldeweyher,E.; Bannwarth,C.; Grimme,S.
     Extension of the D3 dispersion coefficient model
     J. Chem. Phys., 2017 147 034112-XXXX
     doi.org/10.1063/1.4993215
  6. Caldeweyher,E.; Ehlert,S.; Hansen,A.; Neugebauer,H.; Spicher,S.; Bannwarth,C.; Grimme,S.
     A generally applicable atomic-charge dependent London dispersion correction
     J. Chem. Phys., 2019 150 154122-XXXX
     doi.org/10.1063/1.5090222
  7. Caldeweyher,E.; Mewes,J.; Ehlert,S.; Grimme,S.
     Extension and evaluation of the D4 London-dispersion model for periodic systems
     Phys. Chem. Chem. Phys., 2020 22(16)8499-8512
     doi.org/10.1039/D0CP00502A

List of suggested additional citations. These are papers that are important in the 'surrounding' of 
of this run, or papers that preceded the highly important papers. If you like your results we are grateful for a citation.

  1. Neese,F.
     The ORCA program system
     WIRES Comput. Molec. Sci., 2012 2(1)73-78
     doi.org/10.1002/wcms.81
  2. Neese,F.
     Software update: the ORCA program system, version 4.0
     WIRES Comput. Molec. Sci., 2018 8(1)1-6
     doi.org/10.1002/wcms.1327
  3. Neese,F.; Wennmohs,F.; Becker,U.; Riplinger,C.
     The ORCA quantum chemistry program package
     J. Chem. Phys., 2020 152 Art. No. L224108
     doi.org/10.1063/5.0004608

List of optional additional citations

  1. Neese,F.
     Approximate second-order SCF convergence for spin unrestricted wavefunctions
     Chem. Phys. Lett., 2000 325(1-3)93-98
     doi.org/10.1016/s0009-2614(00)00662-x

Timings for individual modules:

Sum of individual times          ...      106.968 sec (=   1.783 min)
Startup calculation              ...        2.923 sec (=   0.049 min)   2.7 %
SCF iterations                   ...      103.889 sec (=   1.731 min)  97.1 %
Property calculations            ...        0.157 sec (=   0.003 min)   0.1 %
                             ****ORCA TERMINATED NORMALLY****
TOTAL RUN TIME: 0 days 0 hours 1 minutes 47 seconds 927 msec
