      -----------------------------------------------------------      
     |                   =====================                   |     
     |                           x T B                           |     
     |                   =====================                   |     
     |                         S. Grimme                         |     
     |          Mulliken Center for Theoretical Chemistry        |     
     |                    University of Bonn                     |     
      -----------------------------------------------------------      

   * xtb version 6.7.1 (edcfbbe) compiled by 'albert@albert-system' on 2024-07-22

   xtb is free software: you can redistribute it and/or modify it under
   the terms of the GNU Lesser General Public License as published by
   the Free Software Foundation, either version 3 of the License, or
   (at your option) any later version.
   
   xtb is distributed in the hope that it will be useful,
   but WITHOUT ANY WARRANTY; without even the implied warranty of
   MERCHANTABILITY or FITNESS FOR A PARTICULAR PURPOSE.  See the
   GNU Lesser General Public License for more details.
   
   Cite this work as:
   * C. Bannwarth, E. Caldeweyher, S. Ehlert, A. Hansen, P. Pracht,
     J. Seibert, S. Spicher, S. Grimme, WIREs Comput. Mol. Sci., 2020, 11,
     e01493. DOI: 10.1002/wcms.1493
   
   for GFN2-xTB:
   * C. Bannwarth, S. Ehlert and S. Grimme., J. Chem. Theory Comput., 2019,
     15, 1652-1671. DOI: 10.1021/acs.jctc.8b01176
   for GFN1-xTB:
   * S. Grimme, C. Bannwarth, P. Shushkov, J. Chem. Theory Comput., 2017,
     13, 1989-2009. DOI: 10.1021/acs.jctc.7b00118
   for GFN0-xTB:
   * P. Pracht, E. Caldeweyher, S. Ehlert, S. Grimme, ChemRxiv, 2019, preprint.
     DOI: 10.26434/chemrxiv.8326202.v1
   for GFN-FF:
   * S. Spicher and S. Grimme, Angew. Chem. Int. Ed., 2020, 59, 15665-15673.
     DOI: 10.1002/anie.202004239
   
   for ALPB and GBSA implicit solvation:
   * S. Ehlert, M. Stahn, S. Spicher, S. Grimme, J. Chem. Theory Comput.,
     2021, 17, 4250-4261. DOI: 10.1021/acs.jctc.1c00471
   
   for ddCOSMO and CPCM-X implicit solvation:
   * M. Stahn, S. Ehlert, S. Grimme, J. Phys. Chem. A,
     2023, XX, XXXX-XXXX. DOI: 10.1021/acs.jpca.3c04382
   
   for DFT-D4:
   * E. Caldeweyher, C. Bannwarth and S. Grimme, J. Chem. Phys., 2017,
     147, 034112. DOI: 10.1063/1.4993215
   * E. Caldeweyher, S. Ehlert, A. Hansen, H. Neugebauer, S. Spicher,
     C. Bannwarth and S. Grimme, J. Chem. Phys., 2019, 150, 154122.
     DOI: 10.1063/1.5090222
   * E. Caldeweyher, J.-M. Mewes, S. Ehlert and S. Grimme, Phys. Chem. Chem. Phys.
     2020, 22, 8499-8512. DOI: 10.1039/D0CP00502A
   
   for sTDA-xTB:
   * S. Grimme and C. Bannwarth, J. Chem. Phys., 2016, 145, 054103.
     DOI: 10.1063/1.4959605
   
   in the mass-spec context:
   * V. Asgeirsson, C. Bauer and S. Grimme, Chem. Sci., 2017, 8, 4879.
     DOI: 10.1039/c7sc00601b
   * J. Koopman and S. Grimme, ACS Omega 2019, 4, 12, 15120-15133.
     DOI: 10.1021/acsomega.9b02011
   
   for metadynamics refer to:
   * S. Grimme, J. Chem. Theory Comput., 2019, 155, 2847-2862
     DOI: 10.1021/acs.jctc.9b00143
   
   for SPH calculations refer to:
   * S. Spicher and S. Grimme, J. Chem. Theory Comput., 2021, 17, 1701-1714
     DOI: 10.1021/acs.jctc.0c01306
   
   for ONIOM refer to:
   * C. Plett, A. Katbashev, S. Ehlert, S. Grimme, M. Bursch,
     Phys. Chem. Chem. Phys., 2023, 25, 17860-17868. DOI: 10.1039/D3CP02178E
   
   for DIPRO refer to:
   * J. Kohn, N. Gildemeister, S. Grimme, D. Fazzi, A. Hansen,
     J. Chem. Phys., 2023, just accepted.
   
   for PTB refer to:
   * S. Grimme, M. Mueller, A. Hansen, J. Chem. Phys., 2023, 158, 124111.
     DOI: 10.1063/5.0137838
   
   with help from (in alphabetical order)
   P. Atkinson, C. Bannwarth, F. Bohle, G. Brandenburg, E. Caldeweyher
   M. Checinski, S. Dohm, S. Ehlert, S. Ehrlich, I. Gerasimov, C. Hölzer
   A. Katbashev, J. Kohn, J. Koopman, C. Lavigne, S. Lehtola, F. März, M. Müller,
   F. Musil, H. Neugebauer, J. Pisarek, C. Plett, P. Pracht, F. Pultar,
   J. Seibert, P. Shushkov, S. Spicher, M. Stahn, M. Steiner, T. Strunk,
   J. Stückrath, T. Rose, and J. Unsleber
   
 * started run on 2025/04/11 at 12:27:00.714     
   ID    Z sym.   atoms
    1    6 C      1, 2, 4
    2   17 Cl     3, 5
    3    1 H      6-11

           -------------------------------------------------
          |                Calculation Setup                |
           -------------------------------------------------

          program call               : /srv/scratch/z5358697/.xtb/bin/xtb solv.coord --gfn2 --sp --chrg 0 --norestart --parallel 1 --alpb water reference -I xtb_sp-xcontrol-inp
          hostname                   : k112
          coordinate file            : solv.coord
          omp threads                :                     1


           -------------------------------------------------
          |                 G F N 2 - x T B                 |
           -------------------------------------------------

        Reference                      10.1021/acs.jctc.8b01176
      * Hamiltonian:
        H0-scaling (s, p, d)           1.850000    2.230000    2.230000
        zeta-weighting                 0.500000
      * Dispersion:
        s8                             2.700000
        a1                             0.520000
        a2                             5.000000
        s9                             5.000000
      * Repulsion:
        kExp                           1.500000    1.000000
        rExp                           1.000000
      * Coulomb:
        alpha                          2.000000
        third order                    shell-resolved
        anisotropic                    true
        a3                             3.000000
        a5                             4.000000
        cn-shift                       1.200000
        cn-exp                         4.000000
        max-rad                        5.000000

      * Solvation model:               ALPB
        Solvent                        water
        Parameter file                 internal GFN2-xTB/ALPB
        Dielectric constant                8.0200E+01
        Reference state                gsolv=reference [X=1]
        Free energy shift                  2.8945E-03 Eh       1.8164E+00 kcal/mol
        Temperature                        2.9815E+02 K
        Density                            1.0000E+00 kg/L
        Solvent mass                       1.8000E+01 g/mol
        Interaction kernel             P16
        Born radius scaling (c1)           1.4744E+00
        Born radii integrator          GBOBC
        Born offset                        0.0000E+00 a0       0.0000E+00 AA
        H-bond correction              true
        Ion screening                  false
        Surface tension                    1.0000E-05 Eh       1.5569E+01 dyn/cm
        Grid points                               974 per atom

          ...................................................
          :                      SETUP                      :
          :.................................................:
          :  # basis functions                  38          :
          :  # atomic orbitals                  36          :
          :  # shells                           18          :
          :  # electrons                        32          :
          :  max. iterations                   250          :
          :  Hamiltonian                  GFN2-xTB          :
          :  restarted?                      false          :
          :  GBSA solvation                   true          :
          :  PC potential                    false          :
          :  electronic temp.          300.0000000     K    :
          :  accuracy                    1.0000000          :
          :  -> integral cutoff          0.2500000E+02      :
          :  -> integral neglect         0.1000000E-07      :
          :  -> SCF convergence          0.1000000E-05 Eh   :
          :  -> wf. convergence          0.1000000E-03 e    :
          :  Broyden damping             0.4000000          :
          :  net charge                          0          :
          :  unpaired electrons                  0          :
          ...................................................

 iter      E             dE          RMSdq      gap      omega  full diag
   1    -18.6741378 -0.186741E+02  0.453E+00    6.96       0.0  T
   2    -18.7204906 -0.463528E-01  0.260E+00    6.49       1.0  T
   3    -18.7212740 -0.783429E-03  0.120E+00    6.57       1.0  T
   4    -18.7215972 -0.323187E-03  0.112E-01    6.52       1.0  T
   5    -18.7216381 -0.409379E-04  0.581E-02    6.53       1.0  T
   6    -18.7216389 -0.785576E-06  0.835E-03    6.53       3.6  T
   7    -18.7216391 -0.165409E-06  0.619E-03    6.53       4.9  T
   8    -18.7216393 -0.180708E-06  0.260E-03    6.53      11.6  T
   9    -18.7216393 -0.218647E-07  0.638E-04    6.53      47.3  T
  10    -18.7216393 -0.130949E-08  0.413E-04    6.53      73.0  T

   *** convergence criteria satisfied after 10 iterations ***

         #    Occupation            Energy/Eh            Energy/eV
      -------------------------------------------------------------
         1        2.0000           -1.0584135             -28.8009
       ...           ...                  ...                  ...
        10        2.0000           -0.4830965             -13.1457
        11        2.0000           -0.4743339             -12.9073
        12        2.0000           -0.4551333             -12.3848
        13        2.0000           -0.4250056             -11.5650
        14        2.0000           -0.4170091             -11.3474
        15        2.0000           -0.4168942             -11.3443
        16        2.0000           -0.4160195             -11.3205 (HOMO)
        17                         -0.1762246              -4.7953 (LUMO)
        18                         -0.1468114              -3.9949
        19                          0.0070056               0.1906
        20                          0.0161683               0.4400
        21                          0.0166767               0.4538
       ...                                ...                  ...
        36                          0.2987216               8.1286
      -------------------------------------------------------------
                  HL-Gap            0.2397948 Eh            6.5251 eV
             Fermi-level           -0.2961221 Eh           -8.0579 eV

 SCC (total)                   0 d,  0 h,  0 min,  0.010 sec
 SCC setup                      ...        0 min,  0.001 sec (  6.809%)
 Dispersion                     ...        0 min,  0.000 sec (  0.451%)
 classical contributions        ...        0 min,  0.000 sec (  0.170%)
 integral evaluation            ...        0 min,  0.002 sec ( 22.592%)
 iterations                     ...        0 min,  0.004 sec ( 40.694%)
 molecular gradient             ...        0 min,  0.003 sec ( 27.687%)
 printout                       ...        0 min,  0.000 sec (  1.451%)

         :::::::::::::::::::::::::::::::::::::::::::::::::::::
         ::                     SUMMARY                     ::
         :::::::::::::::::::::::::::::::::::::::::::::::::::::
         :: total energy             -18.585124080638 Eh    ::
         :: total w/o Gsasa/hb       -18.585950887418 Eh    ::
         :: gradient norm              0.000120162172 Eh/a0 ::
         :: HOMO-LUMO gap              6.525149824706 eV    ::
         ::.................................................::
         :: SCC energy               -18.721637213352 Eh    ::
         :: -> isotropic ES            0.017620015664 Eh    ::
         :: -> anisotropic ES         -0.001641514327 Eh    ::
         :: -> anisotropic XC          0.008335429296 Eh    ::
         :: -> dispersion             -0.006281022459 Eh    ::
         :: -> Gsolv                  -0.006011426106 Eh    ::
         ::    -> Gelec               -0.006838232886 Eh    ::
         ::    -> Gsasa               -0.000622307475 Eh    ::
         ::    -> Ghb                 -0.001445434905 Eh    ::
         ::    -> Gshift               0.002894549160 Eh    ::
         :: repulsion energy           0.136513132714 Eh    ::
         :: add. restraining           0.000000000000 Eh    ::
         :: total charge              -0.000000000000 e     ::
         :::::::::::::::::::::::::::::::::::::::::::::::::::::

           -------------------------------------------------
          |                Property Printout                |
           -------------------------------------------------

    * Orbital Energies and Occupations

         #    Occupation            Energy/Eh            Energy/eV
      -------------------------------------------------------------
         1        2.0000           -1.0584135             -28.8009
       ...           ...                  ...                  ...
         4        2.0000           -0.6118831             -16.6502
         5        2.0000           -0.5836842             -15.8829
         6        2.0000           -0.5432426             -14.7824
         7        2.0000           -0.5241518             -14.2629
         8        2.0000           -0.5200934             -14.1525
         9        2.0000           -0.5067405             -13.7891
        10        2.0000           -0.4830965             -13.1457
        11        2.0000           -0.4743339             -12.9073
        12        2.0000           -0.4551333             -12.3848
        13        2.0000           -0.4250056             -11.5650
        14        2.0000           -0.4170091             -11.3474
        15        2.0000           -0.4168942             -11.3443
        16        2.0000           -0.4160195             -11.3205 (HOMO)
        17                         -0.1762246              -4.7953 (LUMO)
        18                         -0.1468114              -3.9949
        19                          0.0070056               0.1906
        20                          0.0161683               0.4400
        21                          0.0166767               0.4538
        22                          0.0175822               0.4784
        23                          0.0215850               0.5874
        24                          0.0218504               0.5946
        25                          0.0218525               0.5946
        26                          0.0221160               0.6018
        27                          0.0708017               1.9266
       ...                                ...                  ...
        36                          0.2987216               8.1286
      -------------------------------------------------------------
                  HL-Gap            0.2397948 Eh            6.5251 eV
             Fermi-level           -0.2961221 Eh           -8.0579 eV

     #   Z          covCN         q      C6AA      α(0)
     1   6 C        3.858    -0.073    21.853     6.648
     2   6 C        3.715     0.018    20.395     6.452
     3  17 Cl       0.916    -0.248   107.016    15.826
     4   6 C        3.715     0.018    20.395     6.452
     5  17 Cl       0.916    -0.248   107.016    15.826
     6   1 H        0.924     0.079     1.992     2.207
     7   1 H        0.924     0.079     1.992     2.207
     8   1 H        0.925     0.094     1.841     2.122
     9   1 H        0.925     0.094     1.841     2.122
    10   1 H        0.925     0.094     1.841     2.122
    11   1 H        0.925     0.094     1.841     2.122

 Mol. C6AA /au·bohr⁶  :       1815.428136
 Mol. C8AA /au·bohr⁸  :      55626.563271
 Mol. α(0) /au        :         64.105653


Wiberg/Mayer (AO) data.
largest (>0.10) Wiberg bond orders for each atom

 ---------------------------------------------------------------------------
     #   Z sym  total        # sym  WBO       # sym  WBO       # sym  WBO
 ---------------------------------------------------------------------------
     1   6 C    3.986 --     4 C    1.010     2 C    1.010     7 H    0.972
                             6 H    0.972
     2   6 C    3.913 --     1 C    1.010     8 H    0.975     9 H    0.975
                             3 Cl   0.930
     3  17 Cl   0.967 --     2 C    0.930
     4   6 C    3.913 --     1 C    1.010    11 H    0.975    10 H    0.975
                             5 Cl   0.930
     5  17 Cl   0.967 --     4 C    0.930
     6   1 H    0.994 --     1 C    0.972
     7   1 H    0.994 --     1 C    0.972
     8   1 H    0.991 --     2 C    0.975
     9   1 H    0.991 --     2 C    0.975
    10   1 H    0.991 --     4 C    0.975
    11   1 H    0.991 --     4 C    0.975
 ---------------------------------------------------------------------------

Topologies differ in total number of bonds
Writing topology from bond orders to xtbtopo.mol

molecular dipole:
                 x           y           z       tot (Debye)
 q only:       -0.000       1.081       0.000
   full:       -0.000       0.937       0.000       2.382
molecular quadrupole (traceless):
                xx          xy          yy          xz          yz          zz
 q only:      -12.584      -0.000       7.301      -1.652       0.000       5.284
  q+dip:      -12.574      -0.000       6.195      -1.752      -0.000       6.379
   full:      -11.118      -0.000       6.239      -1.479       0.000       4.879


           -------------------------------------------------
          | TOTAL ENERGY              -18.585124080638 Eh   |
          | GRADIENT NORM               0.000120162172 Eh/α |
          | HOMO-LUMO GAP               6.525149824706 eV   |
           -------------------------------------------------

------------------------------------------------------------------------
 * finished run on 2025/04/11 at 12:27:00.755     
------------------------------------------------------------------------
 total:
 * wall-time:     0 d,  0 h,  0 min,  0.041 sec
 *  cpu-time:     0 d,  0 h,  0 min,  0.017 sec
 * ratio c/w:     0.418 speedup
 SCF:
 * wall-time:     0 d,  0 h,  0 min,  0.010 sec
 *  cpu-time:     0 d,  0 h,  0 min,  0.010 sec
 * ratio c/w:     0.989 speedup

