
                                 *****************
                                 * O   R   C   A *
                                 *****************

                                            #,                                       
                                            ###                                      
                                            ####                                     
                                            #####                                    
                                            ######                                   
                                           ########,                                 
                                     ,,################,,,,,                         
                               ,,#################################,,                 
                          ,,##########################################,,             
                       ,#########################################, ''#####,          
                    ,#############################################,,   '####,        
                  ,##################################################,,,,####,       
                ,###########''''           ''''###############################       
              ,#####''   ,,,,##########,,,,          '''####'''          '####       
            ,##' ,,,,###########################,,,                        '##       
           ' ,,###''''                  '''############,,,                           
         ,,##''                                '''############,,,,        ,,,,,,###''
      ,#''                                            '''#######################'''  
     '                                                          ''''####''''         
             ,#######,   #######,   ,#######,      ##                                
            ,#'     '#,  ##    ##  ,#'     '#,    #''#        ,####,   ,####,        
            ##       ##  ##   ,#'  ##            #'  '#       #'       #'  '#        
            ##       ##  #######   ##           ,######,      #####,   #    #        
            '#,     ,#'  ##    ##  '#,     ,#' ,#      #,     #,   #   #,  ,#        
             '#######'   ##     ##  '#######'  #'      '#     '####' # '####'        



                #########################################################
                #                        -***-                          #
                #          Department of theory and spectroscopy        #
                #                                                       #
                #                      Frank Neese                      #
                #                                                       #
                #     Directorship, Architecture, Infrastructure        #
                #                    SHARK, DRIVERS                     #
                #        Core code/Algorithms in most modules           #
                #                                                       #
                #        Max Planck Institute fuer Kohlenforschung      #
                #                Kaiser Wilhelm Platz 1                 #
                #                 D-45470 Muelheim/Ruhr                 #
                #                      Germany                          #
                #                                                       #
                #                  All rights reserved                  #
                #                        -***-                          #
                #########################################################


                         Program Version 6.0.1  -  RELEASE   -


 With contributions from (in alphabetic order):
[Max-Planck-Institut fuer Kohlenforschung]                               
  Daniel Aravena         : Magnetic Suceptibility                        
  Michael Atanasov       : Ab Initio Ligand Field Theory (pilot matlab implementation)
  Alexander A. Auer      : GIAO ZORA, VPT2 properties, NMR spectrum      
  Ute Becker             : All parallelization in ORCA, NUMFREQ, NUMCALC 
  Giovanni Bistoni       : ED, misc. LED, open-shell LED, HFLD           
  Martin Brehm           : Molecular dynamics                            
  Dmytro Bykov           : pre 5.0 version of the SCF Hessian            
  Marcos Casanova-Páez   : Triplet and SCS-CIS(D). UHF-(DLPNO)-IP/EA/STEOM-CCSD. UHF-CVS-IP/STEOM-CCSD   
  Vijay G. Chilkuri      : MRCI spin determinant printing, contributions to CSF-ICE 
  Pauline Colinet        : FMM embedding                                 
  Dipayan Datta          : RHF DLPNO-CCSD density                        
  Achintya Kumar Dutta   : EOM-CC, STEOM-CC                              
  Nicolas Foglia         : Exact transition moments, OPA infrastructure, MCD improvements    
  Dmitry Ganyushin       : Spin-Orbit,Spin-Spin,Magnetic field MRCI      
  Miquel Garcia-Rates    : C-PCM and meta-GGA Hessian, CCSD/C-PCM, Gaussian charge scheme 
  Tiago L. C. Gouveia    : GS-ROHF, GS-ROCIS                             
  Yang Guo               : DLPNO-NEVPT2, F12-NEVPT2, CIM, IAO-localization        
  Andreas Hansen         : Spin unrestricted coupled pair/coupled cluster methods 
  Ingolf Harden          : AUTO-CI MPn and infrastructure                
  Benjamin Helmich-Paris : MC-RPA, TRAH-(SCF,CASSCF), AVAS, COSX integrals, SCF dyn. polar. 
  Lee Huntington         : MR-EOM, pCC                                   
  Robert Izsak           : Overlap fitted RIJCOSX, COSX-SCS-MP3, EOM     
  Riya Kayal             : Wick's Theorem for AUTO-CI, AUTO-CI UHF-CCSDT 
  Emily Kempfer          : AUTO-CI, RHF CISDT and CCSDT                  
  Christian Kollmar      : KDIIS, OOCD, Brueckner-CCSD(T), CCSD density, CASPT2, CASPT2-K, improved NEVPT2 
  Axel Koslowski         : Symmetry handling                             
  Simone Kossmann        : meta-GGA functionals, TD-DFT gradient, OOMP2, (MP2 Hessian; deprecated post 5.0) 
  Lucas Lang             : DCDCAS                                        
  Marvin Lechner         : AUTO-CI (C++ implementation), FIC-MRCC        
  Spencer Leger          : CASSCF response                               
  Dagmar Lenk            : GEPOL surface, SMD, ORCA-2-JSON               
  Dimitrios Liakos       : Extrapolation schemes; Compound Job, initial MDCI parallelization 
  Dimitrios Manganas     : Further ROCIS development; embedding schemes. LFT, Crystal Embedding 
  Dimitrios Pantazis     : SARC Basis sets                               
  Anastasios Papadopoulos: AUTO-CI, single reference methods and gradients 
  Taras Petrenko         : pre 6.0 DFT Hessian and TD-DFT gradient, (ASA, deprecated), ECA, 1-Electron XAS/XES, NRVS 
  Peter Pinski           : DLPNO-MP2, DLPNO-MP2 Gradient                 
  Christoph Reimann      : Effective Core Potentials                     
  Marius Retegan         : Local ZFS, SOC                                
  Christoph Riplinger    : Optimizer, TS searches, QM/MM, DLPNO-CCSD(T), (RO)-DLPNO pert. Triples 
  Michael Roemelt        : Original ROCIS implementation                 
  Masaaki Saitow         : Open-shell DLPNO-CCSD energy and density      
  Barbara Sandhoefer     : DKH picture change effects                    
  Kantharuban Sivalingam : CASSCF convergence/infrastructure, NEVPT2 and variants, FIC-MRCI 
  Bernardo de Souza      : ESD, SOC TD-DFT                               
  Georgi L. Stoychev     : AutoAux, RI-MP2 NMR, DLPNO-MP2 response, X2C  
  Van Anh Tran           : RI-MP2 g-tensors                              
  Willem Van den Heuvel  : Paramagnetic NMR                              
  Zikuan Wang            : NOTCH, Electric field optimization            
  Frank Wennmohs         : Technical directorship and infrastructure     
  Hang Xu                : AUTO-CI-Response properties                   
                                                                         
[FACCTs GmbH]                                                            
  Markus Bursch, Miquel Garcia-Rates, Christoph Riplinger, Bernardo de Souza, Georgi L. Stoychev 
                                                                 
  APM, Basis sets (HGBS, AHGBS, def-TZVP (Ac-Lr), def2-XVPD (La-Lu)), CI-OPT, improved COSX, DLPNO-Multilevel,           
  DOCKER, DRACO, updates on ESD, GOAT, IRC, LR-CPCM, MBIS, meta-GGA TD-DFT gradient, ML-optimized integration grids, 
  MM, NACMEs, nearIR, NEB, NEB-TS, NL-DFT gradient (VV10), 2- and 3-layer-ONIOM, interface openCOSMO-RS, QMMM,   
  Crystal-QMMM, SF, symmetry and pop. for TD-DFT, r2SCAN hybrids, SOLVATOR                                   
                                                                         
[Other institutions]                                                     
  V. Asgeirsson          : NEB                                           
  Christoph Bannwarth    : sTDA-DFT, sTD-DFT, PBEh-3c, B97-3c, D3        
  Sebastian Ehlert       : rSCAN, r2SCAN, r2SCAN-3c, D4, dhf basis sets  
  Marvin Friede          : D4 for Fr, Ra, Ac-Lr                          
  Lars Goerigk           : TD-DFT with DH, B97 family of functionals     
  Stefan Grimme          : VdW corrections, initial TS optimization, DFT functionals, gCP, sTDA/sTD-DF 
  Waldemar Hujo          : DFT-NL                                        
  H. Jonsson             : NEB                                           
  Holger Kruse           : gCP                                           
  Marcel Mueller         : wB97X-3c, vDZP basis set                      
  Hagen Neugebauer       : wr2SCAN                                       
  Tobias Risthaus        : range-separated hybrid DFT                    
  Lukas Wittmann         : regularized MP2, r2SCAN double-hybrids, wr2SCAN        
                                                                         
We gratefully acknowledge several colleagues who have allowed us to      
interface, adapt or use parts of their codes:                            
  Ed Valeev, F. Pavosevic, A. Kumar             : LibInt (2-el integral package), F12 methods 
  Garnet Chan, S. Sharma, J. Yang, R. Olivares  : DMRG                   
  Ulf Ekstrom                                   : XCFun DFT Library      
  Mihaly Kallay                                 : mrcc  (arbitrary order and MRCC methods)
  Frank Weinhold                                : gennbo (NPA and NBO analysis)           
  Simon Mueller                                 : openCOSMO-RS                            
  Christopher J. Cramer and Donald G. Truhlar   : smd solvation model                     
  S Lehtola, MJT Oliveira, MAL Marques          : LibXC Library                           
  Liviu Ungur et al                             : ANISO software                          


 Your calculation uses the libint2 library for the computation of 2-el integrals
 For citations please refer to: http://libint.valeyev.net

 Your ORCA version has been built with support for libXC version: 6.2.2
 For citations please refer to: https://libxc.gitlab.io

 This ORCA versions uses:
   CBLAS   interface :  Fast vector & matrix operations
   LAPACKE interface :  Fast linear algebra routines
   SCALAPACK package :  Parallel linear algebra routines
   Shared memory     :  Shared parallel matrices
   BLAS/LAPACK       :  OpenBLAS 0.3.27  USE64BITINT DYNAMIC_ARCH NO_AFFINITY Zen SINGLE_THREADED
        Core in use  :  Zen
   Copyright (c) 2011-2014, The OpenBLAS Project


Your calculation utilizes the geometrical counterpoise correction gCP
Please cite in your paper:
H.Kruse, S. Grimme J.Chem.Phys., 136, (2012), 154101 
   

Your calculation utilizes the atom-pairwise dispersion correction
based on EEQ partial charges (D4)


Your calculation utilizes the SMD solvation module
Please cite in your paper:
A.V. Marenich, C.J. Cramer, D.G. Truhlar J. Phys. Chem. B, 113, (2009), 6378 

================================================================================

----- Orbital basis set information -----
Your calculation utilizes the basis: def2-mTZVPP
   Stefan Grimme, Andreas Hansen, Sebastian Ehlert, and Jan-Michael Mewes 
   J. Chem. Phys. 154, 064103 (2021). DOI: 10.1063/5.0040021

----- AuxJ basis set information -----
Your calculation utilizes the auxiliary basis: def2/J
   F. Weigend, Phys. Chem. Chem. Phys. 8, 1057 (2006).

================================================================================
                                        WARNINGS
                       Please study these warnings very carefully!
================================================================================



WARNING: SCAN, rSCAN, or r2SCAN functional requested.
  ===> : libXC variant has now been activated.



================================================================================
                                       INPUT FILE
================================================================================
NAME = sp_solv.inp
|  1> ! r2scan-3c def2/J RI DEFGRID2 scfconv6 printgap
|  2> %output
|  3>     printlevel normal
|  4> end
|  5> %cpcm
|  6>     smd true
|  7>     smdsolvent "water"
|  8> end
|  9> * xyz 0 1
| 10> C -3.7757916126 0.5563045368 -1.7582819509
| 11> C -3.2848748301 -0.4466076826 -0.7128182681
| 12> H -3.5528888681 -1.4633356477 -1.0124918123
| 13> C -1.7845275853 -0.3775586843 -0.5308954218
| 14> C -0.9853738496 -1.4823805899 -0.7959621789
| 15> C 0.3859062518 -1.4183791032 -0.6396757232
| 16> C 1.0176895979 -0.2513860431 -0.2132816795
| 17> C 0.1919477476 0.8364989052 0.0513486769
| 18> C -1.1786758165 0.7938079179 -0.0947003898
| 19> F 0.7362094917 2.0031164832 0.5090207337
| 20> C 2.4788512711 -0.1951487261 -0.0496077406
| 21> C 3.213579104 0.8881850337 -0.5240136182
| 22> C 4.5878644645 0.9208176182 -0.3723750908
| 23> C 5.2453473689 -0.1231097142 0.2565790232
| 24> C 4.5216730239 -1.2044241398 0.7323009706
| 25> C 3.1485294724 -1.2432417357 0.5781960867
| 26> C -3.9102330095 -0.2137749137 0.6491161978
| 27> O -4.2172418857 -1.1131477508 1.4035397361
| 28> O -4.0612680987 1.0590084764 0.9578211733
| 29> H -3.5525815356 1.5733386071 -1.4522148069
| 30> H -3.283768295 0.3574507701 -2.7060539877
| 31> H -4.8499494294 0.460122434 -1.8917781913
| 32> H -1.4394534176 -2.4019024272 -1.1306059092
| 33> H 0.991865657 -2.2816000269 -0.8657153725
| 34> H -1.7575984448 1.6720914395 0.1426371894
| 35> H 2.7089706418 1.70180834 -1.0234071619
| 36> H 5.1465707266 1.7649439591 -0.7475335524
| 37> H 6.3175789215 -0.0936123035 0.3765464856
| 38> H 5.0288862324 -2.0191883045 1.226605807
| 39> H 2.5841687712 -2.07915734 0.9636806302
| 40> H -4.4481011588 1.1893559395 1.8454828019
| 41> *
| 42> 
| 43>                          ****END OF INPUT****
================================================================================

                       ****************************
                       * Single Point Calculation *
                       ****************************

---------------------------------
CARTESIAN COORDINATES (ANGSTROEM)
---------------------------------
  C     -3.775792    0.556305   -1.758282
  C     -3.284875   -0.446608   -0.712818
  H     -3.552889   -1.463336   -1.012492
  C     -1.784528   -0.377559   -0.530895
  C     -0.985374   -1.482381   -0.795962
  C      0.385906   -1.418379   -0.639676
  C      1.017690   -0.251386   -0.213282
  C      0.191948    0.836499    0.051349
  C     -1.178676    0.793808   -0.094700
  F      0.736209    2.003116    0.509021
  C      2.478851   -0.195149   -0.049608
  C      3.213579    0.888185   -0.524014
  C      4.587864    0.920818   -0.372375
  C      5.245347   -0.123110    0.256579
  C      4.521673   -1.204424    0.732301
  C      3.148529   -1.243242    0.578196
  C     -3.910233   -0.213775    0.649116
  O     -4.217242   -1.113148    1.403540
  O     -4.061268    1.059008    0.957821
  H     -3.552582    1.573339   -1.452215
  H     -3.283768    0.357451   -2.706054
  H     -4.849949    0.460122   -1.891778
  H     -1.439453   -2.401902   -1.130606
  H      0.991866   -2.281600   -0.865715
  H     -1.757598    1.672091    0.142637
  H      2.708971    1.701808   -1.023407
  H      5.146571    1.764944   -0.747534
  H      6.317579   -0.093612    0.376546
  H      5.028886   -2.019188    1.226606
  H      2.584169   -2.079157    0.963681
  H     -4.448101    1.189356    1.845483

----------------------------
CARTESIAN COORDINATES (A.U.)
----------------------------
  NO LB      ZA    FRAG     MASS         X           Y           Z
   0 C     6.0000    0    12.011   -7.135212    1.051263   -3.322671
   1 C     6.0000    0    12.011   -6.207514   -0.843966   -1.347031
   2 H     1.0000    0     1.008   -6.713987   -2.765304   -1.913332
   3 C     6.0000    0    12.011   -3.372268   -0.713483   -1.003247
   4 C     6.0000    0    12.011   -1.862087   -2.801293   -1.504151
   5 C     6.0000    0    12.011    0.729257   -2.680348   -1.208812
   6 C     6.0000    0    12.011    1.923155   -0.475051   -0.403044
   7 C     6.0000    0    12.011    0.362729    1.580754    0.097035
   8 C     6.0000    0    12.011   -2.227374    1.500080   -0.178958
   9 F     9.0000    0    18.998    1.391234    3.785342    0.961910
  10 C     6.0000    0    12.011    4.684350   -0.368778   -0.093745
  11 C     6.0000    0    12.011    6.072784    1.678426   -0.990242
  12 C     6.0000    0    12.011    8.669807    1.740093   -0.703687
  13 C     6.0000    0    12.011    9.912270   -0.232644    0.484864
  14 C     6.0000    0    12.011    8.544724   -2.276032    1.383848
  15 C     6.0000    0    12.011    5.949858   -2.349386    1.092632
  16 C     6.0000    0    12.011   -7.389270   -0.403976    1.226652
  17 O     8.0000    0    15.999   -7.969432   -2.103544    2.652306
  18 O     8.0000    0    15.999   -7.674684    2.001236    1.810020
  19 H     1.0000    0     1.008   -6.713406    2.973179   -2.744288
  20 H     1.0000    0     1.008   -6.205423    0.675484   -5.113701
  21 H     1.0000    0     1.008   -9.165076    0.869505   -3.574943
  22 H     1.0000    0     1.008   -2.720173   -4.538938   -2.136536
  23 H     1.0000    0     1.008    1.874354   -4.311599   -1.635965
  24 H     1.0000    0     1.008   -3.321380    3.159795    0.269545
  25 H     1.0000    0     1.008    5.119213    3.215952   -1.933959
  26 H     1.0000    0     1.008    9.725609    3.335261   -1.412634
  27 H     1.0000    0     1.008   11.938494   -0.176902    0.711570
  28 H     1.0000    0     1.008    9.503218   -3.815713    2.317949
  29 H     1.0000    0     1.008    4.883371   -3.929038    1.821092
  30 H     1.0000    0     1.008   -8.405693    2.247557    3.487457

--------------------------------
INTERNAL COORDINATES (ANGSTROEM)
--------------------------------
 C      0   0   0     0.000000000000     0.00000000     0.00000000
 C      1   0   0     1.529649149059     0.00000000     0.00000000
 H      2   1   0     1.093330468191   110.10284190     0.00000000
 C      2   1   3     1.512912932442   111.74828439   120.74130408
 C      4   2   1     1.389078299484   120.74965938   241.06109786
 C      5   4   2     1.381640605596   120.83513713   179.52963892
 C      6   5   4     1.393856118555   121.55056761     0.00000000
 C      7   6   5     1.391176656504   116.35082311     0.34093906
 C      8   7   6     1.379043800880   123.06422330   359.81624594
 F      8   7   6     1.366265395509   119.66923840   178.18307707
 C      7   6   5     1.471375285006   121.07406790   179.96242915
 C     11   7   6     1.392299522467   121.05638536   135.14475540
 C     12  11   7     1.383010983560   120.35648320   180.54804999
 C     13  12  11     1.384792880696   120.25197467   359.82095380
 C     14  13  12     1.385372446622   119.75856454     0.13612886
 C     15  14  13     1.382309058792   120.16822716     0.11078960
 C      2   1   3     1.516624356992   112.38122193   241.17216756
 O     17   2   1     1.213375797237   123.28999107   143.42520549
 O     17   2   1     1.318365623863   113.93655321   321.80348634
 H      1   2   3     1.085291728183   110.83388258   177.62406546
 H      1   2   3     1.086232755597   109.32623616   297.71329091
 H      1   2   3     1.086686366203   110.06981078    57.32185616
 H      5   4   2     1.078746999799   119.66938553   359.69033313
 H      6   5   4     1.078624627440   119.78846114   180.99502222
 H      9   8   7     1.078361015788   119.01601212   179.12261782
 H     12  11   7     1.079817806932   119.81868751   359.82232088
 H     13  12  11     1.079558167966   119.64432237   179.79474855
 H     14  13  12     1.079325155671   120.10247623   180.20401686
 H     15  14  13     1.079556924967   120.05825472   180.22470961
 H     16  15  14     1.079748226138   120.07620736   180.99010851
 H     19  17   2     0.977022745084   112.76172082   181.19067784

---------------------------
INTERNAL COORDINATES (A.U.)
---------------------------
 C      0   0   0     0.000000000000     0.00000000     0.00000000
 C      1   0   0     2.890617972706     0.00000000     0.00000000
 H      2   1   0     2.066095158753   110.10284190     0.00000000
 C      2   1   3     2.858991106784   111.74828439   120.74130408
 C      4   2   1     2.624977564597   120.74965938   241.06109786
 C      5   4   2     2.610922360081   120.83513713   179.52963892
 C      6   5   4     2.634006334160   121.55056761     0.00000000
 C      7   6   5     2.628942884698   116.35082311     0.34093906
 C      8   7   6     2.606015110346   123.06422330   359.81624594
 F      8   7   6     2.581867423765   119.66923840   178.18307707
 C      7   6   5     2.780496328882   121.07406790   179.96242915
 C     11   7   6     2.631064793852   121.05638536   135.14475540
 C     12  11   7     2.613511999134   120.35648320   180.54804999
 C     13  12  11     2.616879296720   120.25197467   359.82095380
 C     14  13  12     2.617974517596   119.75856454     0.13612886
 C     15  14  13     2.612185553556   120.16822716     0.11078960
 C      2   1   3     2.866004682750   112.38122193   241.17216756
 O     17   2   1     2.292947954306   123.28999107   143.42520549
 O     17   2   1     2.491349973477   113.93655321   321.80348634
 H      1   2   3     2.050904141675   110.83388258   177.62406546
 H      1   2   3     2.052682425774   109.32623616   297.71329091
 H      1   2   3     2.053539625591   110.06981078    57.32185616
 H      5   4   2     2.038536397410   119.66938553   359.69033313
 H      6   5   4     2.038305147164   119.78846114   180.99502222
 H      9   8   7     2.037806993337   119.01601212   179.12261782
 H     12  11   7     2.040559929633   119.81868751   359.82232088
 H     13  12  11     2.040069283093   119.64432237   179.79474855
 H     14  13  12     2.039628953670   120.10247623   180.20401686
 H     15  14  13     2.040066934166   120.05825472   180.22470961
 H     16  15  14     2.040428440988   120.07620736   180.99010851
 H     19  17   2     1.846305414821   112.76172082   181.19067784

---------------------
BASIS SET INFORMATION
---------------------
There are 4 groups of distinct atoms

 Group   1 Type C   : 11s6p1d contracted to 5s3p1d pattern {62111/411/1}
 Group   2 Type H   : 4s1p contracted to 2s1p pattern {31/1}
 Group   3 Type F   : 11s6p2d contracted to 5s3p2d pattern {62111/411/11}
 Group   4 Type O   : 11s6p2d contracted to 5s3p2d pattern {62111/411/11}

Atom   0C    basis set group =>   1
Atom   1C    basis set group =>   1
Atom   2H    basis set group =>   2
Atom   3C    basis set group =>   1
Atom   4C    basis set group =>   1
Atom   5C    basis set group =>   1
Atom   6C    basis set group =>   1
Atom   7C    basis set group =>   1
Atom   8C    basis set group =>   1
Atom   9F    basis set group =>   3
Atom  10C    basis set group =>   1
Atom  11C    basis set group =>   1
Atom  12C    basis set group =>   1
Atom  13C    basis set group =>   1
Atom  14C    basis set group =>   1
Atom  15C    basis set group =>   1
Atom  16C    basis set group =>   1
Atom  17O    basis set group =>   4
Atom  18O    basis set group =>   4
Atom  19H    basis set group =>   2
Atom  20H    basis set group =>   2
Atom  21H    basis set group =>   2
Atom  22H    basis set group =>   2
Atom  23H    basis set group =>   2
Atom  24H    basis set group =>   2
Atom  25H    basis set group =>   2
Atom  26H    basis set group =>   2
Atom  27H    basis set group =>   2
Atom  28H    basis set group =>   2
Atom  29H    basis set group =>   2
Atom  30H    basis set group =>   2
---------------------------------
AUXILIARY/J BASIS SET INFORMATION
---------------------------------
There are 4 groups of distinct atoms

 Group   1 Type C   : 12s5p4d2f1g contracted to 6s4p3d1f1g pattern {711111/2111/211/2/1}
 Group   2 Type H   : 5s2p1d contracted to 3s1p1d pattern {311/2/1}
 Group   3 Type F   : 12s5p4d2f1g contracted to 6s4p3d1f1g pattern {711111/2111/211/2/1}
 Group   4 Type O   : 12s5p4d2f1g contracted to 6s4p3d1f1g pattern {711111/2111/211/2/1}

Atom   0C    basis set group =>   1
Atom   1C    basis set group =>   1
Atom   2H    basis set group =>   2
Atom   3C    basis set group =>   1
Atom   4C    basis set group =>   1
Atom   5C    basis set group =>   1
Atom   6C    basis set group =>   1
Atom   7C    basis set group =>   1
Atom   8C    basis set group =>   1
Atom   9F    basis set group =>   3
Atom  10C    basis set group =>   1
Atom  11C    basis set group =>   1
Atom  12C    basis set group =>   1
Atom  13C    basis set group =>   1
Atom  14C    basis set group =>   1
Atom  15C    basis set group =>   1
Atom  16C    basis set group =>   1
Atom  17O    basis set group =>   4
Atom  18O    basis set group =>   4
Atom  19H    basis set group =>   2
Atom  20H    basis set group =>   2
Atom  21H    basis set group =>   2
Atom  22H    basis set group =>   2
Atom  23H    basis set group =>   2
Atom  24H    basis set group =>   2
Atom  25H    basis set group =>   2
Atom  26H    basis set group =>   2
Atom  27H    basis set group =>   2
Atom  28H    basis set group =>   2
Atom  29H    basis set group =>   2
Atom  30H    basis set group =>   2

Checking for AutoStart:
The File: sp_solv.gbw exists
Trying to determine its content:
     ... Fine, the file contains calculation information
     ... Fine, the calculation information was read
     ... Fine, the file contains a basis set
     ... Fine, the basis set was read
     ... Fine, the file contains a geometry
     ... Fine, the geometry was read
     ... Fine, the file contains a set of orbitals
     ... Fine, the orbitals can be read
     => possible old guess file was deleted
     => GBW file was renamed to GES file
     => GES file is set as startup file
     => Guess is set to MORead
     ... now leaving AutoStart

------------------------------------------------------------------------------
                             ORCA STARTUP CALCULATIONS
                           -- RI-GTO INTEGRALS CHOSEN --
------------------------------------------------------------------------------
------------------------------------------------------------------------------
                   ___                                                        
                  /   \      - P O W E R E D   B Y -                         
                 /     \                                                     
                 |  |  |   _    _      __       _____    __    __             
                 |  |  |  | |  | |    /  \     |  _  \  |  |  /  |          
                  \  \/   | |  | |   /    \    | | | |  |  | /  /          
                 / \  \   | |__| |  /  /\  \   | |_| |  |  |/  /          
                |  |  |   |  __  | /  /__\  \  |    /   |      \           
                |  |  |   | |  | | |   __   |  |    \   |  |\   \          
                \     /   | |  | | |  |  |  |  | |\  \  |  | \   \       
                 \___/    |_|  |_| |__|  |__|  |_| \__\ |__|  \__/        
                                                                              
                      - O R C A' S   B I G   F R I E N D -                    
                                      &                                       
                       - I N T E G R A L  F E E D E R -                       
                                                                              
 v1 FN, 2020, v2 2021, v3 2022-2024                                           
------------------------------------------------------------------------------


----------------------
SHARK INTEGRAL PACKAGE
----------------------

Number of atoms                             ...     31
Number of basis functions                   ...    422
Number of shells                            ...    204
Maximum angular momentum                    ...      2
Integral batch strategy                     ... SHARK/LIBINT Hybrid
RI-J (if used) integral strategy            ... SPLIT-RIJ (Revised 2003 algorithm where possible)
Printlevel                                  ...      1
Contraction scheme used                     ... SEGMENTED contraction
Prescreening option                         ... SCHWARTZ
   Thresh                                   ... 1.000e-10
   Tcut                                     ... 1.000e-11
   Tpresel                                  ... 1.000e-11 
Coulomb Range Separation                    ... NOT USED
Exchange Range Separation                   ... NOT USED
Multipole approximations                    ... NOT USED
Finite Nucleus Model                        ... NOT USED
CABS basis                                  ... NOT available
Auxiliary Coulomb fitting basis             ... AVAILABLE
   # of basis functions in Aux-J            ...   1025
   # of shells in Aux-J                     ...    335
   Maximum angular momentum in Aux-J        ...      4
Auxiliary J/K fitting basis                 ... NOT available
Auxiliary Correlation fitting basis         ... NOT available
Auxiliary 'external' fitting basis          ... NOT available

Checking pre-screening integrals            ... done (  0.0 sec) Dimension = 204
Check shell pair data                       ... done (  0.0 sec)
Shell pair information
Shell pair cut-off parameter TPreSel        ...   1.0e-11
Total number of shell pairs                 ...     20910
Shell pairs after pre-screening             ...     14856
Total number of primitive shell pairs       ...     77463
Primitive shell pairs kept                  ...     35410
          la=0 lb=0:   4559 shell pairs
          la=1 lb=0:   5676 shell pairs
          la=1 lb=1:   1793 shell pairs
          la=2 lb=0:   1641 shell pairs
          la=2 lb=1:   1030 shell pairs
          la=2 lb=2:    157 shell pairs

Calculating one electron integrals          ... done (  0.2 sec)
Calculating RI/J V-Matrix + Cholesky decomp.... done (  0.1 sec)
Calculating Nuclear repulsion               ... done (  0.0 sec) ENN=   1229.351020041368 Eh

Diagonalization of the overlap matrix:
Smallest eigenvalue                        ... 1.906e-05
Time for diagonalization                   ...    0.046 sec
Threshold for overlap eigenvalues          ... 1.000e-07
Number of eigenvalues below threshold      ... 0
Time for construction of square roots      ...    0.028 sec
Total time needed                          ...    0.077 sec

-------------------
DFT GRID GENERATION
-------------------

General Integration Accuracy     IntAcc      ... 4.388
Radial Grid Type                 RadialGrid  ... OptM3 with GC (2021)
Angular Grid (max. ang.)         AngularGrid ... 4 (Lebedev-302)
Angular grid pruning method      GridPruning ... 4 (adaptive)
Weight generation scheme         WeightScheme... mBecke (2022)
Basis function cutoff            BFCut       ... 1.0000e-10
Integration weight cutoff        WCut        ... 1.0000e-14
Partially contracted basis set               ... off
Rotationally invariant grid construction     ... off
Angular grids for H and He will be reduced by one unit
Diffuse basis detected: some atoms will have their outermost
                        angular grid increased by 1.

Total number of grid points                  ...   149900
Total number of batches                      ...     2360
Average number of points per batch           ...       63
Average number of grid points per atom       ...     4835
Initializing property integral containers    ... done (  0.0 sec)

SHARK setup successfully completed in   3.0 seconds

Maximum memory used throughout the entire STARTUP-calculation: 77.2 MB
-------------------------------------------------------------------------------
                                 ORCA GUESS
                   Start orbitals & Density for SCF / CASSCF
-------------------------------------------------------------------------------

------------
SCF SETTINGS
------------
Hamiltonian:
 Density Functional     Method          .... DFT(GTOs)
  Functional kind                       .... Exchange
  Functional name                       .... Re-regularized SCAN exchange by Furness et al
  Functional family                     .... MGGA
  Functional refs                              
    [ 0] J. W. Furness, A. D. Kaplan, J. Ning, J. P. Perdew, and J. Sun.,  J. Phys. Chem. Lett. 11, 8208-8215 (2020), doi: 10.1021/acs.jpclett.0c02405
    [ 1] J. W. Furness, A. D. Kaplan, J. Ning, J. P. Perdew, and J. Sun.,  J. Phys. Chem. Lett. 11, 9248-9248 (2020), doi: 10.1021/acs.jpclett.0c03077
  Functional external parameters        .... 6
    Parameter  0 _c1        =  6.670000e-01 : c1 parameter        
    Parameter  1 _c2        =  8.000000e-01 : c2 parameter        
    Parameter  2 _d         =  1.240000e+00 : d parameter         
    Parameter  3 _k1        =  6.500000e-02 : k1 parameter        
    Parameter  4 _eta       =  1.000000e-03 : eta parameter       
    Parameter  5 _dp2       =  3.610000e-01 : dp2 parameter       
  Functional kind                       .... Correlation
  Functional name                       .... Re-regularized SCAN correlation by Furness et al
  Functional family                     .... MGGA
  Functional refs                              
    [ 0] J. W. Furness, A. D. Kaplan, J. Ning, J. P. Perdew, and J. Sun.,  J. Phys. Chem. Lett. 11, 8208-8215 (2020), doi: 10.1021/acs.jpclett.0c02405
    [ 1] J. W. Furness, A. D. Kaplan, J. Ning, J. P. Perdew, and J. Sun.,  J. Phys. Chem. Lett. 11, 9248-9248 (2020), doi: 10.1021/acs.jpclett.0c03077
  Functional external parameters        .... 1
    Parameter  0 _eta       =  1.000000e-03 : Regularization parameter
 Gradients option       PostSCFGGA      .... off
 RI-approximation to the Coulomb term is turned on
   Number of AuxJ basis functions       .... 1025


General Settings:
 Integral files         IntName         .... sp_solv
 Hartree-Fock type      HFTyp           .... RHF
 Total Charge           Charge          ....    0
 Multiplicity           Mult            ....    1
 Number of Electrons    NEL             ....  128
 Basis Dimension        Dim             ....  422
 Nuclear Repulsion      ENuc            ....   1229.3510200414 Eh

Convergence Acceleration:
 AO-DIIS                CNVDIIS         .... on
   Start iteration      DIISMaxIt       ....    12
   Startup error        DIISStart       ....  0.200000
   # of expansion vecs  DIISMaxEq       ....     5
   Bias factor          DIISBfac        ....   1.050
   Max. coefficient     DIISMaxC        ....  10.000
 MO-DIIS                CNVKDIIS        .... off
 Trust-Rad. Augm. Hess. CNVTRAH         .... auto
   Auto Start mean grad. ratio tolernc. ....  1.125000
   Auto Start start iteration           ....     1
   Auto Start num. interpolation iter.  ....    10
   Max. Number of Micro iterations      ....    24
   Max. Number of Macro iterations      .... Maxiter - #DIIS iter
   Number of Davidson start vectors     ....     2
   Converg. threshold    (grad. norm)   ....   3.330e-04
   Grad. Scal. Fac. for Micro threshold ....   0.100
   Minimum threshold for Micro iter.    ....   1.000e-02
   NR start threshold (gradient norm)   ....   1.000e-04
   Initial trust radius                 ....   0.400
   Minimum AH scaling param. (alpha)    ....   1.000
   Maximum AH scaling param. (alpha)    .... 1000.000
   Quad. conv. algorithm                .... NR
   White noise on init. David. guess    .... on
   Maximum white noise                  ....   0.010
   Pseudo random numbers                .... off
   Inactive MOs                         .... canonical
   Orbital update algorithm             .... Taylor
   Preconditioner                       .... Diag
   Full preconditioner red. dimension   ....   250
   COSX micro iterations for RIJONX calc.... off
 SOSCF                  CNVSOSCF        .... on
   Start iteration      SOSCFMaxIt      ....   150
   Startup grad/error   SOSCFStart      ....  0.003300
   Hessian update       SOSCFHessUp     .... L-BFGS
 Level Shifting         CNVShift        .... on
   Level shift para.    LevelShift      ....    0.2500
   Turn off err/grad.   ShiftErr        ....    0.0010
 Zerner damping         CNVZerner       .... off
 Static damping         CNVDamp         .... on
   Fraction old density DampFac         ....    0.7000
   Max. Damping (<1)    DampMax         ....    0.9800
   Min. Damping (>=0)   DampMin         ....    0.0000
   Turn off err/grad.   DampErr         ....    0.1000

SCF Procedure:
 Maximum # iterations   MaxIter         ....   125
 SCF integral mode      SCFMode         .... Direct
   Integral package                     .... SHARK and LIBINT hybrid scheme
 Reset frequency        DirectResetFreq ....    20
 Integral Threshold     Thresh          ....  1.000e-10 Eh
 Primitive CutOff       TCut            ....  1.000e-11 Eh

Convergence Tolerance:
 Convergence Check Mode ConvCheckMode   .... Total+1el-Energy
 Convergence forced     ConvForced      .... 0
 Energy Change          TolE            ....  1.000e-06 Eh
 1-El. energy change                    ....  1.000e-03 Eh
 Orbital Gradient       TolG            ....  3.330e-04
 Orbital Rotation angle TolX            ....  3.330e-04
 DIIS Error             TolErr          ....  1.000e-06

---------------------
INITIAL GUESS: MOREAD
---------------------
Guess MOs are being read from file: sp_solv.ges
Input Geometry matches current geometry (good)
Atom 0: N(Shells)= 9 and 6 - projection required
Input basis set needs projection
NBasis(read)= 278
NBasis(calc)= 422
Basis set overlap was calculated
Using GuessMode=FMatrix for the initial guess
C*T matrix was formed
Effective Fockian was calculated
Effective Fockian was diagonalized
Initial density was built
                      ------------------
                      INITIAL GUESS DONE (   0.1 sec)
                      ------------------
             **** ENERGY FILE WAS UPDATED (sp_solv.en.tmp) ****
Finished Guess after   0.3 sec
Maximum memory used throughout the entire GUESS-calculation: 41.6 MB

-------------------------------------------------------------------------------------------
                                      ORCA LEAN-SCF
                              memory conserving SCF solver
-------------------------------------------------------------------------------------------

--------------------
CPCM SOLVATION MODEL
--------------------
CPCM parameters:
  Epsilon                                         ...      78.3550
  Refrac                                          ...       1.3328
  Rsolv                                           ...       1.3000
  Surface type                                    ... GAUSSIAN VDW
  Discretization scheme                           ... Constant charge density
    Threshold for H atoms                         ...       5.0000 (charges/Ang^2)
    Threshold for non-H atoms                     ...       5.0000 (charges/Ang^2)
  Epsilon function type                           ...         CPCM
Solvent:                                          ... WATER
SMD-CDS solvent descriptors:
  Soln                                            ...       1.3328
  Soln25                                          ...       1.3323
  Sola                                            ...       0.0000
  Solb                                            ...       0.0000
  Solg                                            ...       0.0000
  Solc                                            ...       0.0000
  Solh                                            ...       0.0000
Radii:
  Scheme                                          ... Element-dependent radii
  Radius for C  used is    3.4960 Bohr (=   1.8500 Ang.)
  Radius for H  used is    2.2677 Bohr (=   1.2000 Ang.)
  Radius for F  used is    3.2692 Bohr (=   1.7300 Ang.)
  Radius for O  used is    2.8724 Bohr (=   1.5200 Ang.)
Calculating surface                               ...        done! (  0.0s)
Cavity surface points                             ...         2386
Cavity Volume                                     ...    1627.9441
Cavity Surface-area                               ...     948.1285
Calculating surface distance matrix               ...        done! (  0.1s)
Performing Cholesky decomposition & store         ...        done! (  0.5s)
Overall time for CPCM initialization              ...                 0.6s

----------------------------------------D-I-I-S--------------------------------------------
Iteration    Energy (Eh)           Delta-E    RMSDP     MaxDP     DIISErr   Damp  Time(sec)
-------------------------------------------------------------------------------------------
               ***  Starting incremental Fock matrix formation  ***
    1    -829.2083037324728139     0.00e+00  1.09e-02  6.78e-01  8.29e-01  0.700  11.0
    2    -829.3243119358917284    -1.16e-01  8.04e-03  4.77e-01  5.83e-01  0.700   7.7
    3    -829.4062466230593600    -8.19e-02  5.68e-03  3.30e-01  4.09e-01  0.700   7.8
    4    -829.4638027062051151    -5.76e-02  4.00e-03  2.29e-01  2.87e-01  0.700   7.3
    5    -829.5041970458705691    -4.04e-02  2.81e-03  1.60e-01  2.01e-01  0.700   7.2
                               ***Turning on AO-DIIS***
    6    -829.5325269685804415    -2.83e-02  1.98e-03  1.13e-01  1.40e-01  0.700  12.8
    7    -829.5523863931434789    -1.99e-02  1.39e-03  7.95e-02  9.82e-02  0.700   9.6
    8    -829.5663054303117860    -1.39e-02  3.25e-03  1.86e-01  6.88e-02  0.000   7.1
                              *** Initializing SOSCF ***
---------------------------------------S-O-S-C-F--------------------------------------
Iteration    Energy (Eh)           Delta-E    RMSDP     MaxDP     MaxGrad    Time(sec)
--------------------------------------------------------------------------------------
    9    -829.5988413681084239    -3.25e-02  1.87e-05  1.18e-03  6.15e-04     7.4
               *** Restarting incremental Fock matrix formation ***
   10    -829.5988413782879434    -1.02e-08  2.09e-05  9.75e-04  1.79e-04     8.8
   11    -829.5988371330863629     4.25e-06  1.24e-05  6.28e-04  4.50e-04     9.4
   12    -829.5988424291958836    -5.30e-06  8.64e-06  6.63e-04  2.49e-05     6.4
                  *** Gradient check signals convergence ***

               *****************************************************
               *                     SUCCESS                       *
               *           SCF CONVERGED AFTER  12 CYCLES          *
               *****************************************************


SMD CDS free energy correction energy :                 7.50285     Kcal/mol
Total Energy after SMD CDS correction =              -829.586885880 Eh
             **** ENERGY FILE WAS UPDATED (sp_solv.en.tmp) ****

----------------
TOTAL SCF ENERGY
----------------

Total Energy       :       -829.58688587987547 Eh          -22574.20682 eV

Components:
Nuclear Repulsion  :       1229.35102004136843 Eh           33452.34194 eV
Electronic Energy  :      -2058.91905471270275 Eh          -56026.03579 eV
One Electron Energy:      -3570.95187813715575 Eh          -97170.54066 eV
Two Electron Energy:       1512.03282342445277 Eh           41144.50487 eV
CPCM Dielectric    :         -0.03080775786159 Eh              -0.83832 eV
SMD CDS (Gcds)     :          0.01195654932039 Eh               0.32535 eV

Virial components:
Potential Energy   :      -1656.02571111426096 Eh          -45062.75055 eV
Kinetic Energy     :        826.43882523438538 Eh           22488.54373 eV
Virial Ratio       :          2.00380918774550

DFT components:
N(Alpha)           :       63.999987014833 electrons
N(Beta)            :       63.999987014833 electrons
N(Total)           :      127.999974029666 electrons
E(X)               :     -109.515176177532 Eh       
E(C)               :       -4.202643252391 Eh       
E(XC)              :     -113.717819429923 Eh       

CPCM Solvation Model Properties:
Surface-charge          :         -0.05480855503053
Corrected charge        :          0.00000000000000
Outlying charge corr.   :          0.00017785763453 Eh               0.00484 eV
Free-energy (cav+disp)  :          0.01195654932039 Eh               0.32535 eV

---------------
SCF CONVERGENCE
---------------

  Last Energy change         ...    5.2961e-06  Tolerance :   1.0000e-06
  Last MAX-Density change    ...    6.6329e-04  Tolerance :   1.0000e-05
  Last RMS-Density change    ...    8.6412e-06  Tolerance :   1.0000e-06
  Last DIIS Error            ...    6.1462e-04  Tolerance :   1.0000e-06
  Last Orbital Gradient      ...    2.4871e-05  Tolerance :   3.3300e-04
  Last Orbital Rotation      ...    7.2526e-05  Tolerance :   3.3300e-04


----------------
ORBITAL ENERGIES
----------------

  NO   OCC          E(Eh)            E(eV) 
   0   2.0000     -24.502046      -666.7346 
   1   2.0000     -19.005212      -517.1581 
   2   2.0000     -18.946680      -515.5654 
   3   2.0000     -10.171794      -276.7886 
   4   2.0000     -10.124934      -275.5135 
   5   2.0000     -10.059414      -273.7306 
   6   2.0000     -10.058819      -273.7144 
   7   2.0000     -10.056548      -273.6526 
   8   2.0000     -10.052340      -273.5381 
   9   2.0000     -10.043972      -273.3104 
  10   2.0000     -10.042457      -273.2692 
  11   2.0000     -10.037505      -273.1344 
  12   2.0000     -10.036667      -273.1116 
  13   2.0000     -10.036385      -273.1039 
  14   2.0000     -10.035366      -273.0762 
  15   2.0000     -10.035143      -273.0701 
  16   2.0000     -10.034368      -273.0490 
  17   2.0000     -10.022450      -272.7247 
  18   2.0000      -1.186125       -32.2761 
  19   2.0000      -1.084130       -29.5007 
  20   2.0000      -0.989869       -26.9357 
  21   2.0000      -0.852646       -23.2017 
  22   2.0000      -0.830470       -22.5982 
  23   2.0000      -0.785999       -21.3881 
  24   2.0000      -0.741448       -20.1758 
  25   2.0000      -0.725225       -19.7344 
  26   2.0000      -0.718411       -19.5490 
  27   2.0000      -0.691999       -18.8302 
  28   2.0000      -0.638379       -17.3712 
  29   2.0000      -0.612590       -16.6694 
  30   2.0000      -0.596265       -16.2252 
  31   2.0000      -0.576218       -15.6797 
  32   2.0000      -0.566824       -15.4241 
  33   2.0000      -0.555939       -15.1279 
  34   2.0000      -0.512581       -13.9480 
  35   2.0000      -0.489898       -13.3308 
  36   2.0000      -0.474407       -12.9093 
  37   2.0000      -0.462818       -12.5939 
  38   2.0000      -0.456395       -12.4191 
  39   2.0000      -0.448429       -12.2024 
  40   2.0000      -0.436615       -11.8809 
  41   2.0000      -0.434335       -11.8189 
  42   2.0000      -0.419784       -11.4229 
  43   2.0000      -0.411644       -11.2014 
  44   2.0000      -0.405028       -11.0214 
  45   2.0000      -0.401407       -10.9228 
  46   2.0000      -0.388668       -10.5762 
  47   2.0000      -0.382922       -10.4198 
  48   2.0000      -0.373701       -10.1689 
  49   2.0000      -0.362267        -9.8578 
  50   2.0000      -0.358150        -9.7458 
  51   2.0000      -0.351016        -9.5516 
  52   2.0000      -0.340793        -9.2734 
  53   2.0000      -0.335679        -9.1343 
  54   2.0000      -0.322354        -8.7717 
  55   2.0000      -0.322012        -8.7624 
  56   2.0000      -0.310898        -8.4600 
  57   2.0000      -0.307764        -8.3747 
  58   2.0000      -0.298108        -8.1119 
  59   2.0000      -0.266780        -7.2594 
  60   2.0000      -0.250104        -6.8057 
  61   2.0000      -0.242591        -6.6012 
  62   2.0000      -0.239464        -6.5161 
  63   2.0000      -0.217129        -5.9084 
  64   0.0000      -0.063736        -1.7344 
  65   0.0000      -0.038872        -1.0578 
  66   0.0000      -0.035368        -0.9624 
  67   0.0000      -0.028899        -0.7864 
  68   0.0000      -0.003723        -0.1013 
  69   0.0000       0.056580         1.5396 
  70   0.0000       0.066868         1.8196 
  71   0.0000       0.092517         2.5175 
  72   0.0000       0.101798         2.7701 
  73   0.0000       0.105771         2.8782 
  74   0.0000       0.113021         3.0755 
*Only the first 10 virtual orbitals were printed.

                    ********************************
                    * MULLIKEN POPULATION ANALYSIS *
                    ********************************

-----------------------
MULLIKEN ATOMIC CHARGES
-----------------------
   0 C :   -0.547029
   1 C :    0.008622
   2 H :    0.186459
   3 C :    0.125801
   4 C :   -0.281656
   5 C :   -0.203799
   6 C :    0.069934
   7 C :    0.299474
   8 C :   -0.345733
   9 F :   -0.250855
  10 C :    0.059866
  11 C :   -0.212634
  12 C :   -0.211388
  13 C :   -0.163210
  14 C :   -0.212582
  15 C :   -0.211837
  16 C :    0.304565
  17 O :   -0.464282
  18 O :   -0.347179
  19 H :    0.183067
  20 H :    0.173421
  21 H :    0.173439
  22 H :    0.183872
  23 H :    0.186485
  24 H :    0.208279
  25 H :    0.183318
  26 H :    0.178655
  27 H :    0.180430
  28 H :    0.178840
  29 H :    0.184604
  30 H :    0.383051
Sum of atomic charges:   -0.0000000

--------------------------------
MULLIKEN REDUCED ORBITAL CHARGES
--------------------------------
  0 C s       :     3.381102  s :     3.381102
      pz      :     1.020947  p :     3.139541
      px      :     1.100063
      py      :     1.018531
      dz2     :     0.006157  d :     0.026386
      dxz     :     0.004400
      dyz     :     0.005325
      dx2y2   :     0.008167
      dxy     :     0.002337

  1 C s       :     2.982403  s :     2.982403
      pz      :     0.899337  p :     2.963946
      px      :     0.940483
      py      :     1.124127
      dz2     :     0.011323  d :     0.045029
      dxz     :     0.010453
      dyz     :     0.006527
      dx2y2   :     0.011049
      dxy     :     0.005677

  2 H s       :     0.796013  s :     0.796013
      pz      :     0.003490  p :     0.017528
      px      :     0.003418
      py      :     0.010620

  3 C s       :     3.132836  s :     3.132836
      pz      :     0.989278  p :     2.693227
      px      :     0.822400
      py      :     0.881549
      dz2     :     0.004543  d :     0.048136
      dxz     :     0.006947
      dyz     :     0.007309
      dx2y2   :     0.014452
      dxy     :     0.014884

  4 C s       :     3.254952  s :     3.254952
      pz      :     1.008517  p :     2.989355
      px      :     0.965372
      py      :     1.015465
      dz2     :     0.003280  d :     0.037350
      dxz     :     0.006513
      dyz     :     0.003853
      dx2y2   :     0.011428
      dxy     :     0.012276

  5 C s       :     3.235072  s :     3.235072
      pz      :     0.962932  p :     2.931166
      px      :     0.997827
      py      :     0.970407
      dz2     :     0.003844  d :     0.037561
      dxz     :     0.006409
      dyz     :     0.004188
      dx2y2   :     0.010496
      dxy     :     0.012624

  6 C s       :     3.165555  s :     3.165555
      pz      :     1.005710  p :     2.717948
      px      :     0.772443
      py      :     0.939795
      dz2     :     0.004588  d :     0.046564
      dxz     :     0.007759
      dyz     :     0.006348
      dx2y2   :     0.012800
      dxy     :     0.015068

  7 C s       :     3.163877  s :     3.163877
      pz      :     0.932441  p :     2.461248
      px      :     0.831679
      py      :     0.697129
      dz2     :     0.007106  d :     0.075401
      dxz     :     0.010622
      dyz     :     0.012586
      dx2y2   :     0.022404
      dxy     :     0.022683

  8 C s       :     3.193065  s :     3.193065
      pz      :     1.036676  p :     3.117396
      px      :     1.021116
      py      :     1.059603
      dz2     :     0.003839  d :     0.035272
      dxz     :     0.006148
      dyz     :     0.004201
      dx2y2   :     0.011879
      dxy     :     0.009205

  9 F s       :     3.924321  s :     3.924321
      pz      :     1.859080  p :     5.309967
      px      :     1.875585
      py      :     1.575301
      dz2     :     0.001764  d :     0.016567
      dxz     :     0.001978
      dyz     :     0.003336
      dx2y2   :     0.004605
      dxy     :     0.004885

 10 C s       :     3.257321  s :     3.257321
      pz      :     0.953601  p :     2.634618
      px      :     0.759294
      py      :     0.921723
      dz2     :     0.005801  d :     0.048194
      dxz     :     0.008367
      dyz     :     0.006888
      dx2y2   :     0.014395
      dxy     :     0.012743

 11 C s       :     3.231920  s :     3.231920
      pz      :     0.979963  p :     2.943382
      px      :     0.969179
      py      :     0.994240
      dz2     :     0.003540  d :     0.037331
      dxz     :     0.007365
      dyz     :     0.004607
      dx2y2   :     0.010231
      dxy     :     0.011589

 12 C s       :     3.248166  s :     3.248166
      pz      :     0.982869  p :     2.925460
      px      :     0.941787
      py      :     1.000804
      dz2     :     0.004183  d :     0.037762
      dxz     :     0.007273
      dyz     :     0.004495
      dx2y2   :     0.010435
      dxy     :     0.011377

 13 C s       :     3.211133  s :     3.211133
      pz      :     0.961964  p :     2.914457
      px      :     1.037809
      py      :     0.914684
      dz2     :     0.004968  d :     0.037620
      dxz     :     0.004530
      dyz     :     0.006718
      dx2y2   :     0.011603
      dxy     :     0.009800

 14 C s       :     3.248656  s :     3.248656
      pz      :     0.996977  p :     2.926147
      px      :     0.933919
      py      :     0.995250
      dz2     :     0.003548  d :     0.037780
      dxz     :     0.007330
      dyz     :     0.004709
      dx2y2   :     0.010821
      dxy     :     0.011371

 15 C s       :     3.227859  s :     3.227859
      pz      :     0.966734  p :     2.946744
      px      :     0.984751
      py      :     0.995259
      dz2     :     0.004118  d :     0.037233
      dxz     :     0.007283
      dyz     :     0.004355
      dx2y2   :     0.009834
      dxy     :     0.011645

 16 C s       :     3.160043  s :     3.160043
      pz      :     0.873342  p :     2.408861
      px      :     0.772579
      py      :     0.762940
      dz2     :     0.030881  d :     0.126530
      dxz     :     0.012097
      dyz     :     0.030693
      dx2y2   :     0.026667
      dxy     :     0.026192

 17 O s       :     3.822977  s :     3.822977
      pz      :     1.572538  p :     4.617791
      px      :     1.505042
      py      :     1.540211
      dz2     :     0.004469  d :     0.023514
      dxz     :     0.002660
      dyz     :     0.008060
      dx2y2   :     0.004857
      dxy     :     0.003468

 18 O s       :     3.721793  s :     3.721793
      pz      :     1.506852  p :     4.600005
      px      :     1.706815
      py      :     1.386338
      dz2     :     0.008193  d :     0.025380
      dxz     :     0.003595
      dyz     :     0.004336
      dx2y2   :     0.006253
      dxy     :     0.003003

 19 H s       :     0.798497  s :     0.798497
      pz      :     0.004138  p :     0.018436
      px      :     0.003917
      py      :     0.010381

 20 H s       :     0.808246  s :     0.808246
      pz      :     0.009451  p :     0.018334
      px      :     0.005104
      py      :     0.003779

 21 H s       :     0.808292  s :     0.808292
      pz      :     0.003660  p :     0.018269
      px      :     0.011004
      py      :     0.003605

 22 H s       :     0.796353  s :     0.796353
      pz      :     0.004925  p :     0.019775
      px      :     0.004720
      py      :     0.010130

 23 H s       :     0.793662  s :     0.793662
      pz      :     0.004298  p :     0.019853
      px      :     0.006173
      py      :     0.009382

 24 H s       :     0.771560  s :     0.771560
      pz      :     0.004416  p :     0.020161
      px      :     0.006112
      py      :     0.009633

 25 H s       :     0.797012  s :     0.797012
      pz      :     0.005730  p :     0.019670
      px      :     0.005220
      py      :     0.008720

 26 H s       :     0.801836  s :     0.801836
      pz      :     0.004876  p :     0.019509
      px      :     0.005605
      py      :     0.009028

 27 H s       :     0.800042  s :     0.800042
      pz      :     0.003875  p :     0.019528
      px      :     0.012389
      py      :     0.003263

 28 H s       :     0.801644  s :     0.801644
      pz      :     0.005725  p :     0.019516
      px      :     0.005158
      py      :     0.008634

 29 H s       :     0.795650  s :     0.795650
      pz      :     0.005003  p :     0.019746
      px      :     0.005734
      py      :     0.009009

 30 H s       :     0.576238  s :     0.576238
      pz      :     0.021468  p :     0.040711
      px      :     0.011891
      py      :     0.007353


------------------------
MULLIKEN OVERLAP CHARGES
------------------------
B(  0-C ,  1-C ) :   0.4001 B(  0-C ,  3-C ) :  -0.1461 B(  0-C , 16-C ) :  -0.1529 
B(  0-C , 18-O ) :   0.0625 B(  0-C , 19-H ) :   0.8410 B(  0-C , 20-H ) :   0.8202 
B(  0-C , 21-H ) :   0.8140 B(  1-C ,  2-H ) :   0.9264 B(  1-C ,  4-C ) :  -0.1813 
B(  1-C ,  5-C ) :   0.0544 B(  1-C ,  7-C ) :   0.0502 B(  1-C ,  8-C ) :  -0.0514 
B(  1-C , 16-C ) :   0.4163 B(  1-C , 17-O ) :  -0.1528 B(  1-C , 18-O ) :  -0.1629 
B(  1-C , 20-H ) :  -0.1050 B(  1-C , 21-H ) :  -0.1184 B(  2-H ,  3-C ) :  -0.1306 
B(  2-H , 16-C ) :  -0.0916 B(  3-C ,  4-C ) :   0.7666 B(  3-C ,  5-C ) :  -0.1065 
B(  3-C ,  6-C ) :  -0.1218 B(  3-C ,  7-C ) :   0.1400 B(  3-C ,  8-C ) :   0.2841 
B(  3-C , 16-C ) :   0.0887 B(  3-C , 17-O ) :  -0.0510 B(  3-C , 22-H ) :  -0.0937 
B(  3-C , 24-H ) :  -0.0871 B(  4-C ,  5-C ) :   0.5727 B(  4-C ,  6-C ) :  -0.0764 
B(  4-C ,  7-C ) :  -0.2581 B(  4-C ,  8-C ) :   0.1053 B(  4-C , 10-C ) :   0.0634 
B(  4-C , 22-H ) :   0.8290 B(  5-C ,  6-C ) :   0.6935 B(  5-C ,  7-C ) :  -0.0799 
B(  5-C ,  8-C ) :  -0.2395 B(  5-C , 10-C ) :  -0.1911 B(  5-C , 11-C ) :   0.0686 
B(  5-C , 15-C ) :  -0.0532 B(  5-C , 23-H ) :   0.8209 B(  6-C ,  7-C ) :   0.5480 
B(  6-C ,  9-F ) :  -0.1791 B(  6-C , 10-C ) :   0.0863 B(  6-C , 11-C ) :  -0.1748 
B(  6-C , 15-C ) :  -0.1510 B(  6-C , 23-H ) :  -0.0865 B(  7-C ,  8-C ) :   0.1270 
B(  7-C ,  9-F ) :   0.4092 B(  7-C , 10-C ) :  -0.2315 B(  7-C , 11-C ) :  -0.0681 
B(  7-C , 15-C ) :   0.0839 B(  8-C ,  9-F ) :  -0.1288 B(  8-C , 10-C ) :   0.0736 
B(  8-C , 24-H ) :   0.8080 B( 10-C , 11-C ) :   0.7790 B( 10-C , 12-C ) :  -0.0532 
B( 10-C , 13-C ) :  -0.1021 B( 10-C , 14-C ) :  -0.0985 B( 10-C , 15-C ) :   0.8354 
B( 10-C , 25-H ) :  -0.0992 B( 10-C , 29-H ) :  -0.0972 B( 11-C , 12-C ) :   0.7216 
B( 11-C , 13-C ) :  -0.1280 B( 11-C , 14-C ) :  -0.0905 B( 11-C , 15-C ) :  -0.2282 
B( 11-C , 25-H ) :   0.8276 B( 11-C , 26-H ) :  -0.0781 B( 12-C , 13-C ) :   0.8773 
B( 12-C , 14-C ) :  -0.1365 B( 12-C , 15-C ) :  -0.0810 B( 12-C , 25-H ) :  -0.0558 
B( 12-C , 26-H ) :   0.8396 B( 12-C , 27-H ) :  -0.0742 B( 13-C , 14-C ) :   0.9205 
B( 13-C , 15-C ) :  -0.1718 B( 13-C , 26-H ) :  -0.0788 B( 13-C , 27-H ) :   0.8268 
B( 13-C , 28-H ) :  -0.0768 B( 14-C , 15-C ) :   0.8186 B( 14-C , 27-H ) :  -0.0744 
B( 14-C , 28-H ) :   0.8358 B( 15-C , 28-H ) :  -0.0743 B( 15-C , 29-H ) :   0.8253 
B( 16-C , 17-O ) :   1.1079 B( 16-C , 18-O ) :   0.3308 B( 17-O , 18-O ) :  -0.2137 
B( 18-O , 30-H ) :   0.6123 


                     *******************************
                     * LOEWDIN POPULATION ANALYSIS *
                     *******************************

----------------------
LOEWDIN ATOMIC CHARGES
----------------------
   0 C :   -0.373712
   1 C :   -0.139113
   2 H :    0.197751
   3 C :   -0.061215
   4 C :   -0.157382
   5 C :   -0.129287
   6 C :   -0.069516
   7 C :    0.231139
   8 C :   -0.134506
   9 F :   -0.299882
  10 C :   -0.074828
  11 C :   -0.146657
  12 C :   -0.168282
  13 C :   -0.171930
  14 C :   -0.167855
  15 C :   -0.149588
  16 C :    0.361552
  17 O :   -0.475663
  18 O :   -0.386918
  19 H :    0.171509
  20 H :    0.166107
  21 H :    0.166798
  22 H :    0.186018
  23 H :    0.189462
  24 H :    0.204720
  25 H :    0.185428
  26 H :    0.179345
  27 H :    0.178306
  28 H :    0.179394
  29 H :    0.185304
  30 H :    0.323502

-------------------------------
LOEWDIN REDUCED ORBITAL CHARGES
-------------------------------
  0 C s       :     2.963379  s :     2.963379
      pz      :     1.092996  p :     3.348146
      px      :     1.145487
      py      :     1.109662
      dz2     :     0.014270  d :     0.062187
      dxz     :     0.010371
      dyz     :     0.012825
      dx2y2   :     0.019606
      dxy     :     0.005115

  1 C s       :     2.882374  s :     2.882374
      pz      :     1.013994  p :     3.166423
      px      :     1.034352
      py      :     1.118077
      dz2     :     0.021949  d :     0.090316
      dxz     :     0.019556
      dyz     :     0.014576
      dx2y2   :     0.023724
      dxy     :     0.010511

  2 H s       :     0.758754  s :     0.758754
      pz      :     0.008196  p :     0.043495
      px      :     0.008329
      py      :     0.026970

  3 C s       :     2.858113  s :     2.858113
      pz      :     0.969101  p :     3.103060
      px      :     1.036622
      py      :     1.097337
      dz2     :     0.008396  d :     0.100043
      dxz     :     0.012535
      dyz     :     0.014087
      dx2y2   :     0.032577
      dxy     :     0.032447

  4 C s       :     2.894921  s :     2.894921
      pz      :     1.006412  p :     3.180292
      px      :     1.086828
      py      :     1.087053
      dz2     :     0.005723  d :     0.082169
      dxz     :     0.012572
      dyz     :     0.007143
      dx2y2   :     0.027364
      dxy     :     0.029368

  5 C s       :     2.894681  s :     2.894681
      pz      :     0.982632  p :     3.152471
      px      :     1.094827
      py      :     1.075012
      dz2     :     0.006810  d :     0.082134
      dxz     :     0.012387
      dyz     :     0.007849
      dx2y2   :     0.025016
      dxy     :     0.030072

  6 C s       :     2.846566  s :     2.846566
      pz      :     1.008426  p :     3.125627
      px      :     1.047861
      py      :     1.069341
      dz2     :     0.008376  d :     0.097322
      dxz     :     0.014187
      dyz     :     0.012039
      dx2y2   :     0.028997
      dxy     :     0.033723

  7 C s       :     2.789111  s :     2.789111
      pz      :     0.933310  p :     2.812909
      px      :     1.032350
      py      :     0.847249
      dz2     :     0.014823  d :     0.166841
      dxz     :     0.020938
      dyz     :     0.027252
      dx2y2   :     0.051909
      dxy     :     0.051919

  8 C s       :     2.887426  s :     2.887426
      pz      :     1.015965  p :     3.169056
      px      :     1.057799
      py      :     1.095293
      dz2     :     0.006698  d :     0.078024
      dxz     :     0.011930
      dyz     :     0.007872
      dx2y2   :     0.027755
      dxy     :     0.023769

  9 F s       :     3.743621  s :     3.743621
      pz      :     1.869033  p :     5.400162
      px      :     1.872401
      py      :     1.658729
      dz2     :     0.021838  d :     0.156099
      dxz     :     0.015200
      dyz     :     0.036990
      dx2y2   :     0.041718
      dxy     :     0.040353

 10 C s       :     2.849732  s :     2.849732
      pz      :     1.005573  p :     3.124378
      px      :     1.032578
      py      :     1.086227
      dz2     :     0.010684  d :     0.100719
      dxz     :     0.016201
      dyz     :     0.013941
      dx2y2   :     0.031791
      dxy     :     0.028102

 11 C s       :     2.898174  s :     2.898174
      pz      :     1.006875  p :     3.166890
      px      :     1.093346
      py      :     1.066669
      dz2     :     0.006471  d :     0.081594
      dxz     :     0.014892
      dyz     :     0.009146
      dx2y2   :     0.024027
      dxy     :     0.027058

 12 C s       :     2.906322  s :     2.906322
      pz      :     1.002010  p :     3.179667
      px      :     1.098304
      py      :     1.079353
      dz2     :     0.007507  d :     0.082293
      dxz     :     0.015028
      dyz     :     0.008813
      dx2y2   :     0.024313
      dxy     :     0.026633

 13 C s       :     2.907660  s :     2.907660
      pz      :     1.001377  p :     3.182391
      px      :     1.107972
      py      :     1.073042
      dz2     :     0.009081  d :     0.081878
      dxz     :     0.008989
      dyz     :     0.013892
      dx2y2   :     0.027204
      dxy     :     0.022712

 14 C s       :     2.906337  s :     2.906337
      pz      :     1.002549  p :     3.179230
      px      :     1.097728
      py      :     1.078953
      dz2     :     0.006317  d :     0.082288
      dxz     :     0.014892
      dyz     :     0.009253
      dx2y2   :     0.025141
      dxy     :     0.026684

 15 C s       :     2.897843  s :     2.897843
      pz      :     1.007008  p :     3.170337
      px      :     1.095170
      py      :     1.068159
      dz2     :     0.007566  d :     0.081408
      dxz     :     0.014961
      dyz     :     0.008625
      dx2y2   :     0.023150
      dxy     :     0.027106

 16 C s       :     2.743619  s :     2.743619
      pz      :     0.954295  p :     2.621556
      px      :     0.737377
      py      :     0.929885
      dz2     :     0.064400  d :     0.273273
      dxz     :     0.023102
      dyz     :     0.068650
      dx2y2   :     0.065215
      dxy     :     0.051905

 17 O s       :     3.548937  s :     3.548937
      pz      :     1.622066  p :     4.721156
      px      :     1.495428
      py      :     1.603662
      dz2     :     0.049850  d :     0.205570
      dxz     :     0.026109
      dyz     :     0.053937
      dx2y2   :     0.043062
      dxy     :     0.032612

 18 O s       :     3.464817  s :     3.464817
      pz      :     1.502050  p :     4.671952
      px      :     1.669733
      py      :     1.500168
      dz2     :     0.049803  d :     0.250150
      dxz     :     0.020401
      dyz     :     0.070339
      dx2y2   :     0.062068
      dxy     :     0.047539

 19 H s       :     0.783592  s :     0.783592
      pz      :     0.009580  p :     0.044898
      px      :     0.008969
      py      :     0.026350

 20 H s       :     0.789636  s :     0.789636
      pz      :     0.023488  p :     0.044257
      px      :     0.012116
      py      :     0.008653

 21 H s       :     0.788982  s :     0.788982
      pz      :     0.008160  p :     0.044220
      px      :     0.027950
      py      :     0.008110

 22 H s       :     0.767946  s :     0.767946
      pz      :     0.011258  p :     0.046036
      px      :     0.010773
      py      :     0.024005

 23 H s       :     0.764300  s :     0.764300
      pz      :     0.009678  p :     0.046238
      px      :     0.014340
      py      :     0.022219

 24 H s       :     0.747632  s :     0.747632
      pz      :     0.010243  p :     0.047648
      px      :     0.014276
      py      :     0.023129

 25 H s       :     0.768673  s :     0.768673
      pz      :     0.013220  p :     0.045898
      px      :     0.012048
      py      :     0.020631

 26 H s       :     0.775125  s :     0.775125
      pz      :     0.011085  p :     0.045530
      px      :     0.013063
      py      :     0.021381

 27 H s       :     0.775993  s :     0.775993
      pz      :     0.008695  p :     0.045702
      px      :     0.029617
      py      :     0.007390

 28 H s       :     0.775071  s :     0.775071
      pz      :     0.013130  p :     0.045535
      px      :     0.011980
      py      :     0.020426

 29 H s       :     0.768640  s :     0.768640
      pz      :     0.011399  p :     0.046056
      px      :     0.013280
      py      :     0.021377

 30 H s       :     0.559915  s :     0.559915
      pz      :     0.064651  p :     0.116583
      px      :     0.032679
      py      :     0.019253


---------------------------------
LOEWDIN BOND ORDERS (THRESH 0.050000)
---------------------------------
B(  0-C ,  1-C ) :   1.0759 B(  0-C ,  3-C ) :   0.0697 B(  0-C , 16-C ) :   0.0686 
B(  0-C , 18-O ) :   0.0557 B(  0-C , 19-H ) :   0.9050 B(  0-C , 20-H ) :   0.9131 
B(  0-C , 21-H ) :   0.9153 B(  1-C ,  2-H ) :   0.8261 B(  1-C ,  3-C ) :   1.0089 
B(  1-C ,  4-C ) :   0.0908 B(  1-C ,  8-C ) :   0.0793 B(  1-C , 16-C ) :   0.8819 
B(  1-C , 17-O ) :   0.1843 B(  1-C , 18-O ) :   0.1615 B(  3-C ,  4-C ) :   1.4236 
B(  3-C ,  5-C ) :   0.0937 B(  3-C ,  6-C ) :   0.1101 B(  3-C ,  7-C ) :   0.1015 
B(  3-C ,  8-C ) :   1.4064 B(  3-C , 16-C ) :   0.0799 B(  3-C , 22-H ) :   0.0520 
B(  4-C ,  5-C ) :   1.5147 B(  4-C ,  6-C ) :   0.0908 B(  4-C ,  7-C ) :   0.1092 
B(  4-C ,  8-C ) :   0.0857 B(  4-C , 22-H ) :   0.8584 B(  4-C , 23-H ) :   0.0543 
B(  5-C ,  6-C ) :   1.3997 B(  5-C ,  7-C ) :   0.0954 B(  5-C ,  8-C ) :   0.1222 
B(  5-C , 10-C ) :   0.0851 B(  5-C , 22-H ) :   0.0548 B(  5-C , 23-H ) :   0.8530 
B(  6-C ,  7-C ) :   1.2970 B(  6-C ,  8-C ) :   0.0922 B(  6-C ,  9-F ) :   0.1549 
B(  6-C , 10-C ) :   1.0517 B(  6-C , 11-C ) :   0.0866 B(  6-C , 15-C ) :   0.0884 
B(  6-C , 23-H ) :   0.0508 B(  7-C ,  8-C ) :   1.4012 B(  7-C ,  9-F ) :   1.3160 
B(  7-C , 10-C ) :   0.0799 B(  7-C , 24-H ) :   0.0574 B(  8-C ,  9-F ) :   0.1724 
B(  8-C , 24-H ) :   0.8365 B( 10-C , 11-C ) :   1.4152 B( 10-C , 12-C ) :   0.0908 
B( 10-C , 13-C ) :   0.1227 B( 10-C , 14-C ) :   0.0902 B( 10-C , 15-C ) :   1.4138 
B( 10-C , 25-H ) :   0.0510 B( 10-C , 29-H ) :   0.0513 B( 11-C , 12-C ) :   1.5193 
B( 11-C , 13-C ) :   0.0895 B( 11-C , 14-C ) :   0.1282 B( 11-C , 15-C ) :   0.0820 
B( 11-C , 25-H ) :   0.8571 B( 11-C , 26-H ) :   0.0555 B( 12-C , 13-C ) :   1.5039 
B( 12-C , 14-C ) :   0.0880 B( 12-C , 15-C ) :   0.1284 B( 12-C , 25-H ) :   0.0531 
B( 12-C , 26-H ) :   0.8686 B( 12-C , 27-H ) :   0.0539 B( 13-C , 14-C ) :   1.5044 
B( 13-C , 15-C ) :   0.0893 B( 13-C , 26-H ) :   0.0535 B( 13-C , 27-H ) :   0.8710 
B( 13-C , 28-H ) :   0.0535 B( 14-C , 15-C ) :   1.5197 B( 14-C , 27-H ) :   0.0538 
B( 14-C , 28-H ) :   0.8687 B( 14-C , 29-H ) :   0.0531 B( 15-C , 28-H ) :   0.0554 
B( 15-C , 29-H ) :   0.8576 B( 16-C , 17-O ) :   2.1666 B( 16-C , 18-O ) :   1.5115 
B( 16-C , 30-H ) :   0.0540 B( 17-O , 18-O ) :   0.4668 B( 18-O , 30-H ) :   0.8954 


------------------------------------------
LOEWDIN REDUCED ORBITAL POPULATIONS PER MO
-------------------------------------------
THRESHOLD FOR PRINTING IS 0.1%%
                      0         1         2         3         4         5   
                 -24.50205 -19.00521 -18.94668 -10.17179 -10.12493 -10.05941
                   2.00000   2.00000   2.00000   2.00000   2.00000   2.00000
                  --------  --------  --------  --------  --------  --------
 1 C  s               0.0       0.0       0.0       0.0       0.0       1.7
 3 C  s               0.0       0.0       0.0       0.0       0.0      97.8
 7 C  s               0.0       0.0       0.0       0.0      99.2       0.0
 8 C  px              0.0       0.0       0.0       0.0       0.1       0.0
 9 F  s             100.0       0.0       0.0       0.0       0.0       0.0
 9 F  dxy             0.0       0.0       0.0       0.0       0.1       0.0
16 C  s               0.0       0.0       0.0      98.9       0.0       0.0
17 O  s               0.0       0.0      99.9       0.0       0.0       0.0
17 O  py              0.0       0.0       0.0       0.1       0.0       0.0
17 O  dyz             0.0       0.0       0.0       0.2       0.0       0.0
18 O  s               0.0      99.9       0.0       0.0       0.0       0.0
18 O  py              0.0       0.0       0.0       0.1       0.0       0.0
18 O  dx2y2           0.0       0.0       0.0       0.2       0.0       0.0

                      6         7         8         9        10        11   
                 -10.05882 -10.05655 -10.05234 -10.04397 -10.04246 -10.03751
                   2.00000   2.00000   2.00000   2.00000   2.00000   2.00000
                  --------  --------  --------  --------  --------  --------
 1 C  s              97.9       0.0       0.0       0.0       0.0       0.0
 3 C  s               1.7       0.0       0.0       0.0       0.0       0.0
 4 C  s               0.0       0.0       0.0       0.2       0.0      99.4
 4 C  px              0.0       0.0       0.0       0.1       0.0       0.0
 5 C  s               0.0       0.0       0.0      99.4       0.0       0.2
 5 C  px              0.0       0.0       0.0       0.0       0.0       0.1
 6 C  s               0.0      99.4       0.1       0.1       0.0       0.0
 6 C  px              0.0       0.0       0.1       0.0       0.0       0.0
 7 C  px              0.0       0.0       0.0       0.0       0.1       0.0
 8 C  s               0.0       0.0       0.0       0.0      99.6       0.0
10 C  s               0.0       0.1      99.4       0.0       0.0       0.0
10 C  px              0.0       0.1       0.0       0.0       0.0       0.0

                     12        13        14        15        16        17   
                 -10.03667 -10.03638 -10.03537 -10.03514 -10.03437 -10.02245
                   2.00000   2.00000   2.00000   2.00000   2.00000   2.00000
                  --------  --------  --------  --------  --------  --------
 0 C  s               0.0       0.0       0.0       0.0       0.0      99.7
11 C  s               0.1      95.9       0.3       3.2       0.1       0.0
11 C  px              0.0       0.0       0.0       0.1       0.0       0.0
12 C  s               0.0       3.6       5.9      81.6       8.6       0.0
12 C  px              0.0       0.1       0.0       0.0       0.0       0.0
13 C  s               0.0       0.1       9.3       4.5      85.7       0.0
13 C  py              0.0       0.0       0.0       0.1       0.0       0.0
14 C  s               3.2       0.0      81.2      10.0       5.2       0.0
14 C  px              0.1       0.0       0.0       0.0       0.0       0.0
15 C  s              96.3       0.1       2.9       0.3       0.1       0.0
15 C  px              0.0       0.0       0.1       0.0       0.0       0.0

                     18        19        20        21        22        23   
                  -1.18613  -1.08413  -0.98987  -0.85265  -0.83047  -0.78600
                   2.00000   2.00000   2.00000   2.00000   2.00000   2.00000
                  --------  --------  --------  --------  --------  --------
 0 C  s               0.0       0.1       0.0       0.4       0.6       6.6
 0 C  pz              0.0       0.4       0.0       0.2       0.2       1.0
 0 C  px              0.0       0.0       0.0       0.1       0.1       0.3
 0 C  py              0.0       0.0       0.0       0.1       0.1       0.7
 1 C  s               0.0       1.1       0.1       2.3       2.5      16.3
 1 C  pz              0.0       1.7       0.2       0.0       0.0       0.1
 1 C  px              0.0       0.3       0.0       1.0       0.6       0.2
 1 C  py              0.0       0.1       0.2       0.0       0.0       0.4
 2 H  s               0.0       0.1       0.0       0.2       0.3       2.1
 2 H  py              0.0       0.0       0.0       0.0       0.0       0.2
 3 C  s               0.0       0.1       0.0       9.4       6.2       6.4
 3 C  px              0.0       0.3       0.0       0.9       0.1       4.2
 4 C  s               0.0       0.0       0.0       7.6       3.2       0.0
 4 C  pz              0.0       0.0       0.0       0.2       0.1       0.0
 4 C  px              0.0       0.0       0.0       0.3       0.1       3.3
 4 C  py              0.0       0.0       0.0       1.5       0.8       0.3
 5 C  s               0.0       0.0       0.0       8.9       0.8       4.0
 5 C  pz              0.0       0.0       0.0       0.2       0.0       0.1
 5 C  px              0.0       0.0       0.0       0.2       1.2       0.6
 5 C  py              0.0       0.0       0.0       1.8       0.0       1.0
 6 C  s               0.4       0.0       0.0      13.1       0.0       9.0
 6 C  px              0.1       0.0       0.0       0.3       3.8       0.2
 6 C  py              1.0       0.0       0.0       0.0       0.0       0.0
 6 C  dz2             0.0       0.0       0.0       0.1       0.0       0.1
 7 C  s               6.6       0.0       0.0       7.1       0.9       2.3
 7 C  pz              1.1       0.0       0.0       0.5       0.0       0.1
 7 C  px              1.5       0.0       0.0       0.2       1.5       0.9
 7 C  py              7.1       0.0       0.0       3.5       0.1       1.8
 7 C  dz2             0.2       0.0       0.0       0.1       0.0       0.0
 7 C  dyz             0.3       0.0       0.0       0.0       0.0       0.0
 7 C  dx2y2           0.3       0.0       0.0       0.0       0.0       0.0
 7 C  dxy             0.4       0.0       0.0       0.1       0.0       0.1
 8 C  s               0.4       0.0       0.0       7.8       3.8       0.3
 8 C  pz              0.1       0.0       0.0       0.1       0.1       0.1
 8 C  px              1.0       0.1       0.0       0.4       0.0       2.6
 8 C  py              0.2       0.0       0.0       1.7       0.8       0.4
 9 F  s              76.6       0.0       0.0       1.0       0.1       0.4
 9 F  pz              0.2       0.0       0.0       0.1       0.0       0.1
 9 F  px              0.3       0.0       0.0       0.1       0.1       0.0
 9 F  py              1.2       0.0       0.0       0.6       0.0       0.5
10 C  s               0.0       0.0       0.0       7.5       9.0       0.9
10 C  px              0.1       0.0       0.0       0.3       2.4       3.1
11 C  s               0.0       0.0       0.0       3.1       8.8       0.2
11 C  pz              0.0       0.0       0.0       0.2       0.4       0.0
11 C  px              0.1       0.0       0.0       0.1       0.4       1.3
11 C  py              0.0       0.0       0.0       0.7       1.2       0.0
12 C  s               0.0       0.0       0.0       1.6       8.4       2.4
12 C  pz              0.0       0.0       0.0       0.0       0.2       0.1
12 C  px              0.0       0.0       0.0       0.3       0.6       0.0
12 C  py              0.0       0.0       0.0       0.2       1.2       0.4
13 C  s               0.0       0.0       0.0       1.3       8.2       3.5
13 C  px              0.0       0.0       0.0       0.5       2.0       0.4
14 C  s               0.0       0.0       0.0       1.6       8.4       2.3
14 C  pz              0.0       0.0       0.0       0.1       0.4       0.1
14 C  px              0.0       0.0       0.0       0.3       0.5       0.1
14 C  py              0.0       0.0       0.0       0.2       1.1       0.4
15 C  s               0.0       0.0       0.0       3.2       8.8       0.2
[...]
18 O  px              0.0       2.7       0.0       0.0       0.0       0.0
18 O  py              0.0       3.0       0.0       0.0       0.0       0.0
18 O  dz2             0.0      20.0       0.0       0.0       0.0       0.0
18 O  dxz             0.0      10.1       0.0       0.0       0.0       0.0
18 O  dx2y2           0.0       3.2       0.0       0.0       0.0       0.0
23 H  s               0.2       0.0       0.0       0.0       0.0       0.0
23 H  px              0.2       0.0       0.0       0.0       0.0       0.0
23 H  py              0.1       0.0       0.0       0.0       0.0       0.0
24 H  s               0.5       0.0       0.0       0.0       0.0       0.0
24 H  px              0.2       0.0       0.0       0.0       0.0       0.0
24 H  py              0.4       0.0       0.0       0.0       0.0       0.0
30 H  s               0.0      10.9       0.0       0.0       0.0       0.0
30 H  pz              0.0      10.7       0.0       0.0       0.0       0.0
30 H  px              0.0       2.1       0.0       0.0       0.0       0.0
30 H  py              0.0       0.2       0.0       0.0       0.0       0.0

                    408       409       410       411       412       413   
                  21.98208  22.02220  22.05374  22.14904  22.20458  22.20958
                   0.00000   0.00000   0.00000   0.00000   0.00000   0.00000
                  --------  --------  --------  --------  --------  --------
 0 C  s               3.9      67.5       1.7       0.1       0.1       1.9
 1 C  s               0.5      20.7       0.1       0.0       0.1       6.1
 3 C  s               1.8       0.7      18.8      18.2       0.5       1.1
 4 C  s               6.6       1.7       0.4       0.7       4.5       6.9
 5 C  s               0.8       0.5      20.2      13.0       0.8       0.2
 6 C  s               0.0       0.4      10.7      11.9       0.8       8.4
 7 C  s               6.3       5.3       0.0       0.5       4.4       0.1
 8 C  s               5.1       0.0       7.0       5.7      16.1       0.6
10 C  s               0.7       0.3       3.3       4.2       7.2      19.0
11 C  s               9.4       0.1       9.3       7.1       8.4       8.8
12 C  s              25.9       0.6       0.0       0.0      25.6       0.3
13 C  s               0.9       0.8      17.0      15.1       5.5       9.7
14 C  s              19.8       0.0       2.2       4.4       4.4      15.0
15 C  s              17.4       0.6       6.8       2.7      21.1       0.8
16 C  s               0.2       0.4       1.9      15.9       0.1      20.5

                    414       415       416       417       418       419   
                  22.23764  22.25700  22.32687  22.35101  22.39707  43.67270
                   0.00000   0.00000   0.00000   0.00000   0.00000   0.00000
                  --------  --------  --------  --------  --------  --------
 0 C  s               2.9       4.6       3.0       4.1       4.8       0.0
 1 C  s              24.3      13.1      10.5      13.4      10.4       0.0
 3 C  s               0.6       6.0       3.8       0.0      25.1       0.0
 4 C  s               4.2      10.5       9.0       3.5      10.5       0.0
 5 C  s              10.2       0.2      11.1       9.3       3.3       0.0
 6 C  s               2.6      14.8       7.8       3.3       2.7       0.0
 7 C  s               7.0      14.8       2.5       3.6       2.0       0.0
 8 C  s              12.9      11.6       1.5       1.0      12.7       0.0
10 C  s               1.6       5.5      10.6       5.8       0.6       0.0
11 C  s               9.2       1.3       9.3       6.8       0.8       0.0
12 C  s               1.7       2.1       7.6       8.4       1.0       0.0
13 C  s               0.2       0.1       7.4       7.8       0.6       0.0
14 C  s               6.2       0.1       6.5       8.9       0.8       0.0
15 C  s               7.4       4.3       6.0       9.7       0.6       0.0
16 C  s               8.6      10.5       2.9      14.0      23.6       0.0
17 O  s               0.0       0.0       0.0       0.0       0.1      38.0
18 O  s               0.0       0.0       0.0       0.0       0.0      61.9

                    420       421   
                  43.69846  57.18487
                   0.00000   0.00000
                  --------  --------
 9 F  s               0.0      99.9
17 O  s              61.9       0.0
18 O  s              37.9       0.0


                      *****************************
                      * MAYER POPULATION ANALYSIS *
                      *****************************

  NA   - Mulliken gross atomic population
  ZA   - Total nuclear charge
  QA   - Mulliken gross atomic charge
  VA   - Mayer's total valence
  BVA  - Mayer's bonded valence
  FA   - Mayer's free valence

  ATOM       NA         ZA         QA         VA         BVA        FA
  0 C      6.5470     6.0000    -0.5470     3.8054     3.8054    -0.0000
  1 C      5.9914     6.0000     0.0086     3.6602     3.6602     0.0000
  2 H      0.8135     1.0000     0.1865     0.9583     0.9583     0.0000
  3 C      5.8742     6.0000     0.1258     3.4864     3.4864    -0.0000
  4 C      6.2817     6.0000    -0.2817     3.8758     3.8758    -0.0000
  5 C      6.2038     6.0000    -0.2038     3.7856     3.7856     0.0000
  6 C      5.9301     6.0000     0.0699     3.4453     3.4453    -0.0000
  7 C      5.7005     6.0000     0.2995     3.7782     3.7782    -0.0000
  8 C      6.3457     6.0000    -0.3457     3.8926     3.8926    -0.0000
  9 F      9.2509     9.0000    -0.2509     0.9694     0.9694    -0.0000
 10 C      5.9401     6.0000     0.0599     3.4320     3.4320    -0.0000
 11 C      6.2126     6.0000    -0.2126     3.8099     3.8099    -0.0000
 12 C      6.2114     6.0000    -0.2114     3.7828     3.7828     0.0000
 13 C      6.1632     6.0000    -0.1632     3.7329     3.7329     0.0000
 14 C      6.2126     6.0000    -0.2126     3.7931     3.7931    -0.0000
 15 C      6.2118     6.0000    -0.2118     3.7758     3.7758    -0.0000
 16 C      5.6954     6.0000     0.3046     3.9731     3.9731    -0.0000
 17 O      8.4643     8.0000    -0.4643     1.9175     1.9175     0.0000
 18 O      8.3472     8.0000    -0.3472     1.9744     1.9744    -0.0000
 19 H      0.8169     1.0000     0.1831     0.9532     0.9532     0.0000
 20 H      0.8266     1.0000     0.1734     0.9557     0.9557     0.0000
 21 H      0.8266     1.0000     0.1734     0.9549     0.9549     0.0000
 22 H      0.8161     1.0000     0.1839     0.9581     0.9581     0.0000
 23 H      0.8135     1.0000     0.1865     0.9570     0.9570    -0.0000
 24 H      0.7917     1.0000     0.2083     0.9450     0.9450    -0.0000
 25 H      0.8167     1.0000     0.1833     0.9552     0.9552    -0.0000
 26 H      0.8213     1.0000     0.1787     0.9586     0.9586     0.0000
 27 H      0.8196     1.0000     0.1804     0.9576     0.9576     0.0000
 28 H      0.8212     1.0000     0.1788     0.9586     0.9586    -0.0000
 29 H      0.8154     1.0000     0.1846     0.9566     0.9566    -0.0000
 30 H      0.6169     1.0000     0.3831     0.8607     0.8607    -0.0000

  Mayer bond orders larger than 0.100000
B(  0-C ,  1-C ) :   0.9020 B(  0-C , 19-H ) :   0.9634 B(  0-C , 20-H ) :   0.9676 
B(  0-C , 21-H ) :   0.9674 B(  1-C ,  2-H ) :   0.9607 B(  1-C ,  3-C ) :   0.8032 
B(  1-C , 16-C ) :   0.9742 B(  3-C ,  4-C ) :   1.3786 B(  3-C ,  6-C ) :   0.1024 
B(  3-C ,  8-C ) :   1.3438 B(  4-C ,  5-C ) :   1.4255 B(  4-C , 22-H ) :   0.9479 
B(  5-C ,  6-C ) :   1.3515 B(  5-C , 23-H ) :   0.9428 B(  6-C ,  7-C ) :   1.4215 
B(  6-C , 10-C ) :   0.7651 B(  7-C ,  8-C ) :   1.3966 B(  7-C ,  9-F ) :   0.8987 
B(  8-C , 24-H ) :   0.9134 B( 10-C , 11-C ) :   1.3791 B( 10-C , 15-C ) :   1.3706 
B( 11-C , 12-C ) :   1.4110 B( 11-C , 25-H ) :   0.9466 B( 12-C , 13-C ) :   1.3791 
B( 12-C , 26-H ) :   0.9594 B( 13-C , 14-C ) :   1.3807 B( 13-C , 27-H ) :   0.9521 
B( 14-C , 15-C ) :   1.4161 B( 14-C , 28-H ) :   0.9589 B( 15-C , 29-H ) :   0.9456 
B( 16-C , 17-O ) :   1.8807 B( 16-C , 18-O ) :   1.0787 B( 18-O , 30-H ) :   0.8327 


-------
TIMINGS
-------

Total SCF time: 0 days 0 hours 1 min 43 sec 

Total time                  ....     103.714 sec
Sum of individual times     ....     103.658 sec  ( 99.9%)

SCF preparation             ....       0.803 sec  (  0.8%)
Fock matrix formation       ....     101.282 sec  ( 97.7%)
  Startup                   ....       0.021 sec  (  0.0% of F)
  Split-RI-J                ....      24.148 sec  ( 23.8% of F)
  XC integration            ....      52.176 sec  ( 51.5% of F)
    XC Preparation          ....       0.000 sec  (  0.0% of XC)
    Basis function eval.    ....       8.061 sec  ( 15.4% of XC)
    Density eval.           ....      23.679 sec  ( 45.4% of XC)
    XC-Functional eval.     ....       3.594 sec  (  6.9% of XC)
    XC-Potential eval.      ....      16.018 sec  ( 30.7% of XC)
  CPCM terms                ....      24.675 sec  ( 24.4% of F)
Diagonalization             ....       0.000 sec  (  0.0%)
Density matrix formation    ....       0.126 sec  (  0.1%)
Total Energy calculation    ....       0.014 sec  (  0.0%)
Population analysis         ....       0.348 sec  (  0.3%)
Orbital Transformation      ....       0.107 sec  (  0.1%)
Orbital Orthonormalization  ....       0.000 sec  (  0.0%)
DIIS solution               ....       0.776 sec  (  0.7%)
  MO trafo                  ....       0.000 sec  (  0.0 % of DIIS)
  Orb grad                  ....       0.000 sec  (  0.0 % of DIIS)
  Energy W gradient         ....       0.000 sec  (  0.0 % of DIIS)
  DIIS error                ....       0.137 sec  ( 17.6 % of DIIS)
  DIIS work                 ....       0.571 sec  ( 73.6 % of DIIS)
  Form Q                    ....       0.000 sec  (  0.0 % of DIIS)
  Form QpQm                 ....       0.000 sec  (  0.0 % of DIIS)
  Exp/Cayley                ....       0.000 sec  (  0.0 % of DIIS)
  Orb update                ....       0.000 sec  (  0.0 % of DIIS)
  Wake-sleep                ....       0.004 sec  (  0.5 % of DIIS)
SOSCF solution              ....       0.202 sec  (  0.2%)
  MO trafo                  ....       0.119 sec  ( 58.7 % of SOSCF)
  Orb grad                  ....       0.001 sec  (  0.3 % of SOSCF)
  Rot update                ....       0.008 sec  (  4.0 % of SOSCF)
  Step                      ....       0.075 sec  ( 36.9 % of SOSCF)
Finished LeanSCF after 104.3 sec

Maximum memory used throughout the entire LEANSCF-calculation: 77.5 MB


-------------------------------------------------------------------------------
                          DFT DISPERSION CORRECTION                            
                                                                               
                                DFTD4 V3.4.0                                   
-------------------------------------------------------------------------------
The R2SCAN3C composite method is recognized
Using three-body term ABC
Active option DFTDOPT                   ...         5   

-------------------------   ----------------
Dispersion correction           -0.013443976
-------------------------   ----------------

------------------   -----------------
gCP correction             0.010681425
------------------   -----------------

-------------------------   --------------------
FINAL SINGLE POINT ENERGY      -829.589648430862
-------------------------   --------------------


------------------------------------------------------------------------------
                              ORCA PROPERTY CALCULATIONS
------------------------------------------------------------------------------

GBWName                                 ... sp_solv.gbw
Number of atoms                         ...     31
Number of basis functions               ...    422
Max core memory                         ...   1024 MB

Electric properties:
Dipole moment                           ... YES
Quadrupole moment                       ...  NO
Static polarizability (Dipole/Dipole)   ...  NO
Static polarizability (Dipole/Quad.)    ...  NO
Static polarizability (Quad./Quad.)     ...  NO
Static polarizability (Velocity)        ...  NO

Atomic electric properties:
Dipole moment                           ...  NO
Quadrupole moment                       ...  NO
Static polarizability                   ...  NO

Choice of electric origin               ... Center of mass
Position of electric origin             ...     0.000023    -0.000007    -0.000014

General magnetic properties:
Magnetizability                         ...  NO

EPR properties:
g-Tensor (aka g-matrix)                 ...  NO
Zero-Field splitting spin-orbit         ...  NO
Zero-field splitting spin-spin          ...  NO
Hyperfine couplings                     ...  NO (   0 nuclei)
Quadrupole couplings                    ...  NO (   0 nuclei)
Contact density                         ...  NO (   0 nuclei)

NMR properties:
Chemical shifts                         ...  NO (   0 nuclei)
Spin-rotation constants                 ...  NO (   0 nuclei)
Spin-spin couplings                     ...  NO (   0 nuclei,    0 pairs)

Choice of magnetic origin               ... GIAO
Position of magnetic origin             ...     0.000000     0.000000     0.000000

Properties with geometric perturbations:
SCF Hessian                             ...  NO
IR spectrum                             ...  NO
VCD spectrum                            ...  NO
X-ray spectroscopy properties:
SCF XES/XAS/RIXS spectra                ...  NO


-------------
DIPOLE MOMENT
-------------

Method             : SCF
Type of density    : Electron Density
Multiplicity       :   1
Irrep              :   0
Energy             :  -829.5868858798754673 Eh
Relativity type    : 
Basis              : AO
                                X                 Y                 Z
Electronic contribution:      0.799661746       3.706647377       5.549166056
Nuclear contribution   :     -0.904423718      -3.376262065      -6.323534192
                        -----------------------------------------
Total Dipole Moment    :     -0.104761972       0.330385311      -0.774368136
                        -----------------------------------------
Magnitude (a.u.)       :      0.848395860
Magnitude (Debye)      :      2.156450900



--------------------
Rotational spectrum 
--------------------
 
Rotational constants in cm-1:             0.038591             0.006437             0.006144 
Rotational constants in MHz :          1156.914736           192.964953           184.186204 

Dipole components along the rotational axes: 
x,y,z [a.u.] :     0.107614     0.351772    -0.764494 
x,y,z [Debye]:     0.273533     0.894134    -1.943189 

 

Dipole moment calculation done in   0.0 sec 

Maximum memory used throughout the entire PROP-calculation: 37.0 MB

--------------------------------
SUGGESTED CITATIONS FOR THIS RUN
--------------------------------

Below you find a list of papers that are relevant to this ORCA run
We neither can nor want to force you to cite these papers, but we appreciate if you do
You receive ORCA, which is the product of decades of hard work by many enthusiastic individuals, for free
The only thing we kindly ask in return is that you cite our papers,
We deeply appreciate it, if you show your appreciation for ORCA by not just citing the generic ORCA reference.

Please note that relegating all ORCA citations to the supporting information does *not* help us.
SI sections are not indexed - citations you put there will not count into any citation statistics
But we need these citations in order to attract the funding resources that allow us to do what we are doing

Therefore, if you are a happy ORCA user, please consider citing a few of the papers listed below in the main body of your paper

In addition to the list printed below, the program has created the file sp_solv.bibtex that contains the list in bibtex format
You can import this file easily into all common literature databanks and citation aid programs


List of essential papers. We consider these as the minimum necessary citations

  1. Neese,F.
     Software update: the ORCA program system, version 5.0
     WIRES Comput. Molec. Sci., 2022 12(1)e1606
     doi.org/10.1002/wcms.1606
  2. Grimme,S.; Hansen,A.; Ehlert,S.; Mewes,J.
     r2SCAN-3c: A 'Swiss army knife' composite electronic-structure method
     J. Chem. Phys., 2021 154 064103
     doi.org/10.1063/5.0040021

List of papers to cite with high priority. The work reported in these papers was absolutely
necessary for this run to complete.
Our perspective: the developers of density functionals and basis sets usually get cited in chemistry papers
Good! But without the algorithms to do something with them, the functionals or basis sets would not do anything.
Hence, in our opinion, the algorithm design and method developments papers are equally worthy of getting cited

  1. Neese,F.
     An improvement of the resolution of the identity approximation for the formation of the Coulomb matrix
     J. Comp. Chem., 2003 24(14)1740-1747
     doi.org/10.1002/jcc.10318
  2. Garcia-Rates,M.; Neese,F.
     Effect of the Solute Cavity on the Solvation Energy and its Derivatives within the Framework of the Gaussian Charge Scheme
     J. Comput. Chem., 2020 41 922-939
     doi.org/10.1002/jcc.26139
  3. Neese,F.
     The SHARK Integral Generation and Digestion System
     J. Comp. Chem., 2022  1-16
     doi.org/10.1002/jcc.26942
  4. Lehtola,S.; Steigemann,C.; Oliveira,M.; Marques,M.
     Recent developments in Libxc - A comprehensive library of functionals for density functional theory
     Software X, 2018 7 
     doi.org/10.1016/j.softx.2017.11.002
  5. Caldeweyher,E.; Bannwarth,C.; Grimme,S.
     Extension of the D3 dispersion coefficient model
     J. Chem. Phys., 2017 147 034112
     doi.org/10.1063/1.4993215
  6. Caldeweyher,E.; Ehlert,S.; Hansen,A.; Neugebauer,H.; Spicher,S.; Bannwarth,C.; Grimme,S.
     A generally applicable atomic-charge dependent London dispersion correction
     J. Chem. Phys., 2019 150 154122
     doi.org/10.1063/1.5090222
  7. Caldeweyher,E.; Mewes,J.; Ehlert,S.; Grimme,S.
     Extension and evaluation of the D4 London-dispersion model for periodic systems
     Phys. Chem. Chem. Phys., 2020 22(16)8499-8512
     doi.org/10.1039/D0CP00502A
  8. Wittmann,L.; Gordiy,I.; Friede,M.; Helmich-Paris,B.; Grimme,S.; Hansen,A.; Bursch,M.
     Extension of the D3 and D4 London Dispersion Corrections to the full Actinides Series
     Phys. Chem. Chem. Phys., 2024 26(32)21379-21394
     doi.org/https://doi.org/10.1039/D4CP01514B 

List of suggested additional citations. These are papers that are important in the 'surrounding' of 
of this run, or papers that preceded the highly important papers. If you like your results we are grateful for a citation.

  1. Neese,F.
     The ORCA program system
     WIRES Comput. Molec. Sci., 2012 2(1)73-78
     doi.org/10.1002/wcms.81
  2. Neese,F.
     Software update: the ORCA program system, version 4.0
     WIRES Comput. Molec. Sci., 2018 8(1)1-6
     doi.org/10.1002/wcms.1327
  3. Neese,F.; Wennmohs,F.; Becker,U.; Riplinger,C.
     The ORCA quantum chemistry program package
     J. Chem. Phys., 2020 152 Art. No. L224108
     doi.org/10.1063/5.0004608

List of optional additional citations

  1. Neese,F.
     Approximate second-order SCF convergence for spin unrestricted wavefunctions
     Chem. Phys. Lett., 2000 325(1-3)93-98
     doi.org/10.1016/s0009-2614(00)00662-x

Timings for individual modules:

Sum of individual times          ...      107.743 sec (=   1.796 min)
Startup calculation              ...        3.051 sec (=   0.051 min)   2.8 %
SCF iterations                   ...      104.574 sec (=   1.743 min)  97.1 %
Property calculations            ...        0.118 sec (=   0.002 min)   0.1 %
                             ****ORCA TERMINATED NORMALLY****
TOTAL RUN TIME: 0 days 0 hours 1 minutes 48 seconds 408 msec
