      -----------------------------------------------------------      
     |                   =====================                   |     
     |                           x T B                           |     
     |                   =====================                   |     
     |                         S. Grimme                         |     
     |          Mulliken Center for Theoretical Chemistry        |     
     |                    University of Bonn                     |     
      -----------------------------------------------------------      

   * xtb version 6.7.1 (edcfbbe) compiled by 'albert@albert-system' on 2024-07-22

   xtb is free software: you can redistribute it and/or modify it under
   the terms of the GNU Lesser General Public License as published by
   the Free Software Foundation, either version 3 of the License, or
   (at your option) any later version.
   
   xtb is distributed in the hope that it will be useful,
   but WITHOUT ANY WARRANTY; without even the implied warranty of
   MERCHANTABILITY or FITNESS FOR A PARTICULAR PURPOSE.  See the
   GNU Lesser General Public License for more details.
   
   Cite this work as:
   * C. Bannwarth, E. Caldeweyher, S. Ehlert, A. Hansen, P. Pracht,
     J. Seibert, S. Spicher, S. Grimme, WIREs Comput. Mol. Sci., 2020, 11,
     e01493. DOI: 10.1002/wcms.1493
   
   for GFN2-xTB:
   * C. Bannwarth, S. Ehlert and S. Grimme., J. Chem. Theory Comput., 2019,
     15, 1652-1671. DOI: 10.1021/acs.jctc.8b01176
   for GFN1-xTB:
   * S. Grimme, C. Bannwarth, P. Shushkov, J. Chem. Theory Comput., 2017,
     13, 1989-2009. DOI: 10.1021/acs.jctc.7b00118
   for GFN0-xTB:
   * P. Pracht, E. Caldeweyher, S. Ehlert, S. Grimme, ChemRxiv, 2019, preprint.
     DOI: 10.26434/chemrxiv.8326202.v1
   for GFN-FF:
   * S. Spicher and S. Grimme, Angew. Chem. Int. Ed., 2020, 59, 15665-15673.
     DOI: 10.1002/anie.202004239
   
   for ALPB and GBSA implicit solvation:
   * S. Ehlert, M. Stahn, S. Spicher, S. Grimme, J. Chem. Theory Comput.,
     2021, 17, 4250-4261. DOI: 10.1021/acs.jctc.1c00471
   
   for ddCOSMO and CPCM-X implicit solvation:
   * M. Stahn, S. Ehlert, S. Grimme, J. Phys. Chem. A,
     2023, XX, XXXX-XXXX. DOI: 10.1021/acs.jpca.3c04382
   
   for DFT-D4:
   * E. Caldeweyher, C. Bannwarth and S. Grimme, J. Chem. Phys., 2017,
     147, 034112. DOI: 10.1063/1.4993215
   * E. Caldeweyher, S. Ehlert, A. Hansen, H. Neugebauer, S. Spicher,
     C. Bannwarth and S. Grimme, J. Chem. Phys., 2019, 150, 154122.
     DOI: 10.1063/1.5090222
   * E. Caldeweyher, J.-M. Mewes, S. Ehlert and S. Grimme, Phys. Chem. Chem. Phys.
     2020, 22, 8499-8512. DOI: 10.1039/D0CP00502A
   
   for sTDA-xTB:
   * S. Grimme and C. Bannwarth, J. Chem. Phys., 2016, 145, 054103.
     DOI: 10.1063/1.4959605
   
   in the mass-spec context:
   * V. Asgeirsson, C. Bauer and S. Grimme, Chem. Sci., 2017, 8, 4879.
     DOI: 10.1039/c7sc00601b
   * J. Koopman and S. Grimme, ACS Omega 2019, 4, 12, 15120-15133.
     DOI: 10.1021/acsomega.9b02011
   
   for metadynamics refer to:
   * S. Grimme, J. Chem. Theory Comput., 2019, 155, 2847-2862
     DOI: 10.1021/acs.jctc.9b00143
   
   for SPH calculations refer to:
   * S. Spicher and S. Grimme, J. Chem. Theory Comput., 2021, 17, 1701-1714
     DOI: 10.1021/acs.jctc.0c01306
   
   for ONIOM refer to:
   * C. Plett, A. Katbashev, S. Ehlert, S. Grimme, M. Bursch,
     Phys. Chem. Chem. Phys., 2023, 25, 17860-17868. DOI: 10.1039/D3CP02178E
   
   for DIPRO refer to:
   * J. Kohn, N. Gildemeister, S. Grimme, D. Fazzi, A. Hansen,
     J. Chem. Phys., 2023, just accepted.
   
   for PTB refer to:
   * S. Grimme, M. Mueller, A. Hansen, J. Chem. Phys., 2023, 158, 124111.
     DOI: 10.1063/5.0137838
   
   with help from (in alphabetical order)
   P. Atkinson, C. Bannwarth, F. Bohle, G. Brandenburg, E. Caldeweyher
   M. Checinski, S. Dohm, S. Ehlert, S. Ehrlich, I. Gerasimov, C. Hölzer
   A. Katbashev, J. Kohn, J. Koopman, C. Lavigne, S. Lehtola, F. März, M. Müller,
   F. Musil, H. Neugebauer, J. Pisarek, C. Plett, P. Pracht, F. Pultar,
   J. Seibert, P. Shushkov, S. Spicher, M. Stahn, M. Steiner, T. Strunk,
   J. Stückrath, T. Rose, and J. Unsleber
   
 * started run on 2025/04/11 at 12:29:38.320     
   ID    Z sym.   atoms
    1    6 C      1-4
    2    7 N      5
    3    1 H      6-16

           -------------------------------------------------
          |                Calculation Setup                |
           -------------------------------------------------

          program call               : /srv/scratch/z5358697/.xtb/bin/xtb solv.coord --gfn2 --sp --chrg 0 --norestart --parallel 1 --alpb water reference -I xtb_sp-xcontrol-inp
          hostname                   : k077
          coordinate file            : solv.coord
          omp threads                :                     1


           -------------------------------------------------
          |                 G F N 2 - x T B                 |
           -------------------------------------------------

        Reference                      10.1021/acs.jctc.8b01176
      * Hamiltonian:
        H0-scaling (s, p, d)           1.850000    2.230000    2.230000
        zeta-weighting                 0.500000
      * Dispersion:
        s8                             2.700000
        a1                             0.520000
        a2                             5.000000
        s9                             5.000000
      * Repulsion:
        kExp                           1.500000    1.000000
        rExp                           1.000000
      * Coulomb:
        alpha                          2.000000
        third order                    shell-resolved
        anisotropic                    true
        a3                             3.000000
        a5                             4.000000
        cn-shift                       1.200000
        cn-exp                         4.000000
        max-rad                        5.000000

      * Solvation model:               ALPB
        Solvent                        water
        Parameter file                 internal GFN2-xTB/ALPB
        Dielectric constant                8.0200E+01
        Reference state                gsolv=reference [X=1]
        Free energy shift                  2.8945E-03 Eh       1.8164E+00 kcal/mol
        Temperature                        2.9815E+02 K
        Density                            1.0000E+00 kg/L
        Solvent mass                       1.8000E+01 g/mol
        Interaction kernel             P16
        Born radius scaling (c1)           1.4744E+00
        Born radii integrator          GBOBC
        Born offset                        0.0000E+00 a0       0.0000E+00 AA
        H-bond correction              true
        Ion screening                  false
        Surface tension                    1.0000E-05 Eh       1.5569E+01 dyn/cm
        Grid points                               974 per atom

          ...................................................
          :                      SETUP                      :
          :.................................................:
          :  # basis functions                  31          :
          :  # atomic orbitals                  31          :
          :  # shells                           21          :
          :  # electrons                        32          :
          :  max. iterations                   250          :
          :  Hamiltonian                  GFN2-xTB          :
          :  restarted?                      false          :
          :  GBSA solvation                   true          :
          :  PC potential                    false          :
          :  electronic temp.          300.0000000     K    :
          :  accuracy                    1.0000000          :
          :  -> integral cutoff          0.2500000E+02      :
          :  -> integral neglect         0.1000000E-07      :
          :  -> SCF convergence          0.1000000E-05 Eh   :
          :  -> wf. convergence          0.1000000E-03 e    :
          :  Broyden damping             0.4000000          :
          :  net charge                          0          :
          :  unpaired electrons                  0          :
          ...................................................

 iter      E             dE          RMSdq      gap      omega  full diag
   1    -17.2998081 -0.172998E+02  0.264E+00   11.11       0.0  T
   2    -17.3181778 -0.183697E-01  0.146E+00   11.12       1.0  T
   3    -17.3191867 -0.100889E-02  0.530E-01   11.21       1.0  T
   4    -17.3192786 -0.919208E-04  0.935E-02   11.21       1.0  T
   5    -17.3192900 -0.114144E-04  0.405E-02   11.19       1.0  T
   6    -17.3192908 -0.811429E-06  0.147E-02   11.19       1.7  T
   7    -17.3192909 -0.137166E-06  0.213E-03   11.19      11.7  T
   8    -17.3192910 -0.384856E-08  0.116E-03   11.19      21.6  T
   9    -17.3192910 -0.155480E-08  0.197E-04   11.19     126.9  T
  10    -17.3192910 -0.521361E-10  0.996E-05   11.19     250.9  T

   *** convergence criteria satisfied after 10 iterations ***

         #    Occupation            Energy/Eh            Energy/eV
      -------------------------------------------------------------
         1        2.0000           -0.6284909             -17.1021
       ...           ...                  ...                  ...
        10        2.0000           -0.4731719             -12.8757
        11        2.0000           -0.4610309             -12.5453
        12        2.0000           -0.4493919             -12.2286
        13        2.0000           -0.4371354             -11.8951
        14        2.0000           -0.4309617             -11.7271
        15        2.0000           -0.4199259             -11.4268
        16        2.0000           -0.3654503              -9.9444 (HOMO)
        17                          0.0457655               1.2453 (LUMO)
        18                          0.0814764               2.2171
        19                          0.1105987               3.0095
        20                          0.1297805               3.5315
        21                          0.1474898               4.0134
       ...                                ...                  ...
        31                          0.3247056               8.8357
      -------------------------------------------------------------
                  HL-Gap            0.4112158 Eh           11.1898 eV
             Fermi-level           -0.1598424 Eh           -4.3495 eV

 SCC (total)                   0 d,  0 h,  0 min,  0.009 sec
 SCC setup                      ...        0 min,  0.001 sec ( 10.597%)
 Dispersion                     ...        0 min,  0.000 sec (  0.827%)
 classical contributions        ...        0 min,  0.000 sec (  0.189%)
 integral evaluation            ...        0 min,  0.001 sec (  9.752%)
 iterations                     ...        0 min,  0.004 sec ( 47.260%)
 molecular gradient             ...        0 min,  0.003 sec ( 29.733%)
 printout                       ...        0 min,  0.000 sec (  1.417%)

         :::::::::::::::::::::::::::::::::::::::::::::::::::::
         ::                     SUMMARY                     ::
         :::::::::::::::::::::::::::::::::::::::::::::::::::::
         :: total energy             -17.081897219823 Eh    ::
         :: total w/o Gsasa/hb       -17.080442225098 Eh    ::
         :: gradient norm              0.000096160199 Eh/a0 ::
         :: HOMO-LUMO gap             11.189752616251 eV    ::
         ::.................................................::
         :: SCC energy               -17.319281513770 Eh    ::
         :: -> isotropic ES            0.016520724358 Eh    ::
         :: -> anisotropic ES          0.005648817901 Eh    ::
         :: -> anisotropic XC          0.013345123618 Eh    ::
         :: -> dispersion             -0.007699754202 Eh    ::
         :: -> Gsolv                  -0.002751196318 Eh    ::
         ::    -> Gelec               -0.001296201592 Eh    ::
         ::    -> Gsasa               -0.002082544902 Eh    ::
         ::    -> Ghb                 -0.002266998984 Eh    ::
         ::    -> Gshift               0.002894549160 Eh    ::
         :: repulsion energy           0.237384293947 Eh    ::
         :: add. restraining           0.000000000000 Eh    ::
         :: total charge               0.000000000000 e     ::
         :::::::::::::::::::::::::::::::::::::::::::::::::::::

           -------------------------------------------------
          |                Property Printout                |
           -------------------------------------------------

    * Orbital Energies and Occupations

         #    Occupation            Energy/Eh            Energy/eV
      -------------------------------------------------------------
         1        2.0000           -0.6284909             -17.1021
       ...           ...                  ...                  ...
         4        2.0000           -0.5659905             -15.4014
         5        2.0000           -0.5571812             -15.1617
         6        2.0000           -0.5277728             -14.3614
         7        2.0000           -0.5099963             -13.8777
         8        2.0000           -0.4979179             -13.5490
         9        2.0000           -0.4893498             -13.3159
        10        2.0000           -0.4731719             -12.8757
        11        2.0000           -0.4610309             -12.5453
        12        2.0000           -0.4493919             -12.2286
        13        2.0000           -0.4371354             -11.8951
        14        2.0000           -0.4309617             -11.7271
        15        2.0000           -0.4199259             -11.4268
        16        2.0000           -0.3654503              -9.9444 (HOMO)
        17                          0.0457655               1.2453 (LUMO)
        18                          0.0814764               2.2171
        19                          0.1105987               3.0095
        20                          0.1297805               3.5315
        21                          0.1474898               4.0134
        22                          0.1514912               4.1223
        23                          0.1642098               4.4684
        24                          0.1743031               4.7430
        25                          0.1858599               5.0575
        26                          0.2057655               5.5992
        27                          0.2222126               6.0467
       ...                                ...                  ...
        31                          0.3247056               8.8357
      -------------------------------------------------------------
                  HL-Gap            0.4112158 Eh           11.1898 eV
             Fermi-level           -0.1598424 Eh           -4.3495 eV

     #   Z          covCN         q      C6AA      α(0)
     1   6 C        3.751    -0.111    22.683     6.792
     2   6 C        3.799    -0.061    21.678     6.629
     3   6 C        3.799    -0.073    21.891     6.662
     4   6 C        3.731     0.012    20.458     6.456
     5   7 N        2.628    -0.393    30.190     8.160
     6   1 H        0.925     0.037     2.486     2.466
     7   1 H        0.925     0.038     2.471     2.458
     8   1 H        0.925     0.037     2.484     2.465
     9   1 H        0.924     0.033     2.549     2.497
    10   1 H        0.924     0.033     2.538     2.491
    11   1 H        0.924     0.034     2.529     2.487
    12   1 H        0.924     0.026     2.640     2.541
    13   1 H        0.924     0.034     2.536     2.490
    14   1 H        0.924     0.031     2.570     2.507
    15   1 H        0.860     0.160     1.333     1.809
    16   1 H        0.860     0.161     1.328     1.805

 Mol. C6AA /au·bohr⁶  :       1655.050069
 Mol. C8AA /au·bohr⁸  :      33676.316514
 Mol. α(0) /au        :         60.715383


Wiberg/Mayer (AO) data.
largest (>0.10) Wiberg bond orders for each atom

 ---------------------------------------------------------------------------
     #   Z sym  total        # sym  WBO       # sym  WBO       # sym  WBO
 ---------------------------------------------------------------------------
     1   6 C    3.996 --     2 C    1.021     6 H    0.988     7 H    0.988
                             8 H    0.987
     2   6 C    3.997 --     1 C    1.021     3 C    1.001     9 H    0.982
                            10 H    0.978
     3   6 C    3.997 --     2 C    1.001     4 C    0.995    12 H    0.981
                            11 H    0.977
     4   6 C    3.985 --     5 N    1.027     3 C    0.995    14 H    0.976
                            13 H    0.975
     5   7 N    2.995 --     4 C    1.027    15 H    0.961    16 H    0.961
     6   1 H    0.999 --     1 C    0.988
     7   1 H    0.999 --     1 C    0.988
     8   1 H    0.998 --     1 C    0.987
     9   1 H    0.999 --     2 C    0.982
    10   1 H    0.999 --     2 C    0.978
    11   1 H    0.999 --     3 C    0.977
    12   1 H    0.999 --     3 C    0.981
    13   1 H    0.999 --     4 C    0.975
    14   1 H    0.999 --     4 C    0.976
    15   1 H    0.974 --     5 N    0.961
    16   1 H    0.974 --     5 N    0.961
 ---------------------------------------------------------------------------

Topologies differ in total number of bonds
Writing topology from bond orders to xtbtopo.mol

molecular dipole:
                 x           y           z       tot (Debye)
 q only:        0.205      -0.173       0.126
   full:        0.424      -0.371       0.325       1.652
molecular quadrupole (traceless):
                xx          xy          yy          xz          yz          zz
 q only:       -1.452       1.440       1.047      -1.562       0.118       0.405
  q+dip:       -5.234       2.515       2.755      -2.909       0.275       2.479
   full:       -4.617       2.749       2.620      -3.141       0.299       1.997


           -------------------------------------------------
          | TOTAL ENERGY              -17.081897219823 Eh   |
          | GRADIENT NORM               0.000096160199 Eh/α |
          | HOMO-LUMO GAP              11.189752616251 eV   |
           -------------------------------------------------

------------------------------------------------------------------------
 * finished run on 2025/04/11 at 12:29:38.384     
------------------------------------------------------------------------
 total:
 * wall-time:     0 d,  0 h,  0 min,  0.063 sec
 *  cpu-time:     0 d,  0 h,  0 min,  0.017 sec
 * ratio c/w:     0.273 speedup
 SCF:
 * wall-time:     0 d,  0 h,  0 min,  0.010 sec
 *  cpu-time:     0 d,  0 h,  0 min,  0.010 sec
 * ratio c/w:     0.983 speedup

