
                                 *****************
                                 * O   R   C   A *
                                 *****************

                                            #,                                       
                                            ###                                      
                                            ####                                     
                                            #####                                    
                                            ######                                   
                                           ########,                                 
                                     ,,################,,,,,                         
                               ,,#################################,,                 
                          ,,##########################################,,             
                       ,#########################################, ''#####,          
                    ,#############################################,,   '####,        
                  ,##################################################,,,,####,       
                ,###########''''           ''''###############################       
              ,#####''   ,,,,##########,,,,          '''####'''          '####       
            ,##' ,,,,###########################,,,                        '##       
           ' ,,###''''                  '''############,,,                           
         ,,##''                                '''############,,,,        ,,,,,,###''
      ,#''                                            '''#######################'''  
     '                                                          ''''####''''         
             ,#######,   #######,   ,#######,      ##                                
            ,#'     '#,  ##    ##  ,#'     '#,    #''#        ,####,   ,####,        
            ##       ##  ##   ,#'  ##            #'  '#       #'       #'  '#        
            ##       ##  #######   ##           ,######,      #####,   #    #        
            '#,     ,#'  ##    ##  '#,     ,#' ,#      #,     #,   #   #,  ,#        
             '#######'   ##     ##  '#######'  #'      '#     '####' # '####'        



                #########################################################
                #                        -***-                          #
                #          Department of theory and spectroscopy        #
                #                                                       #
                #                      Frank Neese                      #
                #                                                       #
                #     Directorship, Architecture, Infrastructure        #
                #                    SHARK, DRIVERS                     #
                #        Core code/Algorithms in most modules           #
                #                                                       #
                #        Max Planck Institute fuer Kohlenforschung      #
                #                Kaiser Wilhelm Platz 1                 #
                #                 D-45470 Muelheim/Ruhr                 #
                #                      Germany                          #
                #                                                       #
                #                  All rights reserved                  #
                #                        -***-                          #
                #########################################################


                         Program Version 6.0.0  -   RELEASE  -


 With contributions from (in alphabetic order):
   Daniel Aravena         : Magnetic Suceptibility
   Michael Atanasov       : Ab Initio Ligand Field Theory (pilot matlab implementation)
   Alexander A. Auer      : GIAO ZORA, VPT2 properties, NMR spectrum
   Ute Becker             : All parallelization in ORCA, NUMFREQ, NUMCALC
   Giovanni Bistoni       : ED, misc. LED, open-shell LED, HFLD
   Martin Brehm           : Molecular dynamics
   Dmytro Bykov           : pre 5.0 version of the SCF Hessian
   Marcos Casanova-Páez   : Triplet and SCS-CIS(D). UHF-(DLPNO)-IP/EA/STEOM-CCSD. UHF-CVS-IP/STEOM-CCSD
   Vijay G. Chilkuri      : MRCI spin determinant printing, contributions to CSF-ICE
   Pauline Colinet        : FMM embedding
   Dipayan Datta          : RHF DLPNO-CCSD density
   Achintya Kumar Dutta   : EOM-CC, STEOM-CC
   Nicolas Foglia         : Exact transition moments, OPA infrastructure, MCD improvements
   Dmitry Ganyushin       : Spin-Orbit,Spin-Spin,Magnetic field MRCI
   Miquel Garcia          : C-PCM and meta-GGA Hessian, CCSD/C-PCM, Gaussian charge scheme
   Tiago L. C. Gouveia    : GS-ROHF, GS-ROCIS
   Yang Guo               : DLPNO-NEVPT2, F12-NEVPT2, CIM, IAO-localization
   Andreas Hansen         : Spin unrestricted coupled pair/coupled cluster methods
   Ingolf Harden          : AUTO-CI MPn and infrastructure 
   Benjamin Helmich-Paris : MC-RPA, TRAH-(SCF,CASSCF), AVAS, COSX integrals, SCF dyn. polar.
   Lee Huntington         : MR-EOM, pCC
   Robert Izsak           : Overlap fitted RIJCOSX, COSX-SCS-MP3, EOM
   Riya Kayal             : Wick's Theorem for AUTO-CI, AUTO-CI UHF-CCSDT
   Emily Kempfer          : AUTO-CI, RHF CISDT and CCSDT
   Christian Kollmar      : KDIIS, OOCD, Brueckner-CCSD(T), CCSD density, CASPT2, CASPT2-K, improved NEVPT2
   Axel Koslowski         : Symmetry handling
   Simone Kossmann        : Meta GGA functionals, TD-DFT gradient, OOMP2, (MP2 Hessian; deprecated post 5.0)
   Lucas Lang             : DCDCAS
   Marvin Lechner         : AUTO-CI (C++ implementation), FIC-MRCC
   Spencer Leger          : CASSCF response
   Dagmar Lenk            : GEPOL surface, SMD, ORCA-2-JSON
   Dimitrios Liakos       : Extrapolation schemes; Compound Job, initial MDCI parallelization
   Dimitrios Manganas     : Further ROCIS development; embedding schemes. LFT, Crystal Embedding
   Dimitrios Pantazis     : SARC Basis sets
   Anastasios Papadopoulos: AUTO-CI, single reference methods and gradients
   Taras Petrenko         : pre 6.0 DFT Hessian and TD-DFT gradient, (ASA, deprecated), ECA, 1-Electron XAS/XES, NRVS
   Peter Pinski           : DLPNO-MP2, DLPNO-MP2 Gradient
   Christoph Reimann      : Effective Core Potentials
   Marius Retegan         : Local ZFS, SOC
   Christoph Riplinger    : Optimizer, TS searches, QM/MM, DLPNO-CCSD(T), (RO)-DLPNO pert. Triples
   Michael Roemelt        : Original ROCIS implementation
   Masaaki Saitow         : Open-shell DLPNO-CCSD energy and density
   Barbara Sandhoefer     : DKH picture change effects
   Kantharuban Sivalingam : CASSCF convergence/infrastructure, NEVPT2 and variants, FIC-MRCI
   Bernardo de Souza      : ESD, SOC TD-DFT
   Georgi Stoychev        : AutoAux, RI-MP2 NMR, DLPNO-MP2 response, X2C
   Van Anh Tran           : RI-MP2 g-tensors
   Willem Van den Heuvel  : Paramagnetic NMR
   Zikuan Wang            : NOTCH, Electric field optimization 
   Frank Wennmohs         : Technical directorship and infrastructure
   Hang Xu                : AUTO-CI-Response properties 


 We gratefully acknowledge several colleagues who have allowed us to
 interface, adapt or use parts of their codes:
   Stefan Grimme, W. Hujo, H. Kruse, P. Pracht,  : VdW corrections, initial TS optimization,
                  C. Bannwarth, S. Ehlert,         DFT functionals, gCP, sTDA/sTD-DF
                  L. Wittmann, M. Mueller
   Ed Valeev, F. Pavosevic, A. Kumar             : LibInt (2-el integral package), F12 methods
   Garnet Chan, S. Sharma, J. Yang, R. Olivares  : DMRG
   Ulf Ekstrom                                   : XCFun DFT Library
   Mihaly Kallay                                 : mrcc  (arbitrary order and MRCC methods)
   Frank Weinhold                                : gennbo (NPA and NBO analysis)
   Simon Mueller                                 : openCOSMO-RS
   Christopher J. Cramer and Donald G. Truhlar   : smd solvation model
   Lars Goerigk                                  : TD-DFT with DH, B97 family of functionals
   V. Asgeirsson, H. Jonsson                     : NEB implementation
   FAccTs GmbH                                   : IRC, NEB, NEB-TS, DLPNO-Multilevel, CI-OPT
                                                   MM, QMMM, 2- and 3-layer-ONIOM, Crystal-QMMM,
                                                   LR-CPCM, SF, NACMEs, symmetry and pop. for TD-DFT,
                                                   nearIR, NL-DFT gradient (VV10), updates on ESD,
                                                   ML-optimized integration grids, MBIS, APM,
                                                   GOAT, DOCKER, SOLVATOR, interface openCOSMO-RS
   S Lehtola, MJT Oliveira, MAL Marques          : LibXC Library
   Liviu Ungur et al                             : ANISO software


 Your calculation uses the libint2 library for the computation of 2-el integrals
 For citations please refer to: http://libint.valeyev.net

 Your ORCA version has been built with support for libXC version: 6.2.2
 For citations please refer to: https://libxc.gitlab.io

 This ORCA versions uses:
   CBLAS   interface :  Fast vector & matrix operations
   LAPACKE interface :  Fast linear algebra routines
   SCALAPACK package :  Parallel linear algebra routines
   Shared memory     :  Shared parallel matrices
   BLAS/LAPACK       :  OpenBLAS 0.3.27  USE64BITINT DYNAMIC_ARCH NO_AFFINITY SkylakeX SINGLE_THREADED
        Core in use  :  SkylakeX
   Copyright (c) 2011-2014, The OpenBLAS Project


Your calculation utilizes the geometrical counterpoise correction gCP
Please cite in your paper:
H.Kruse, S. Grimme J.Chem.Phys., 136, (2012), 154101 
   

Your calculation utilizes the atom-pairwise dispersion correction
based on EEQ partial charges (D4)


================================================================================

----- Orbital basis set information -----
Your calculation utilizes the basis: def2-SV(P)
   F. Weigend and R. Ahlrichs, Phys. Chem. Chem. Phys. 7, 3297 (2005).

----- AuxJ basis set information -----
Your calculation utilizes the auxiliary basis: def2/J
   F. Weigend, Phys. Chem. Chem. Phys. 8, 1057 (2006).

================================================================================
                                        WARNINGS
                       Please study these warnings very carefully!
================================================================================


================================================================================
                                       INPUT FILE
================================================================================
NAME = sp.inp
|  1> ! pbe def2-sv(p) def2/J RI DEFGRID1 loosescf d4 GCP(DFT/SV(P)) printgap
|  2> %output
|  3>     printlevel normal
|  4> end
|  5> * xyz 0 1
|  6> C -4.6798661546 -1.0208239702 -0.2825676898
|  7> C -3.9724501065 -2.2065429503 -0.1399869126
|  8> C -2.5991000362 -2.1789367475 0.0168894851
|  9> C -1.9080456292 -0.9690641958 0.032614612
| 10> C -2.6229013049 0.2251667084 -0.1124641473
| 11> C -4.0074424209 0.1864904676 -0.2683884417
| 12> C -1.9309990012 1.5197757093 -0.1033687603
| 13> O -2.5453310665 2.5777040042 -0.2249983846
| 14> C -0.466008778 1.4903172572 0.0543323817
| 15> C 0.1883799931 2.709780403 0.0331115111
| 16> C 1.5727410737 2.7676037427 0.1677965355
| 17> C 2.2969775916 1.6168427504 0.3262656585
| 18> C 1.6727892415 0.3463565511 0.3643511498
| 19> C 0.2521915497 0.2819126207 0.2167024916
| 20> C -0.4425663542 -0.9880701217 0.2103527362
| 21> O 0.1309809484 -2.0838944971 0.3404813077
| 22> N 2.3865739276 -0.7708171943 0.5643225439
| 23> C 3.8205377679 -0.8775998708 0.6009459307
| 24> C 4.435452788 -0.8759034026 -0.8146561226
| 25> O 5.8107355694 -1.1691459619 -0.799912121
| 26> H -5.751380724 -1.0395268527 -0.4043341987
| 27> H -4.4924826942 -3.1515430828 -0.1506436039
| 28> H -2.0311716412 -3.0903759792 0.1309734779
| 29> H -4.5316808921 1.1244183963 -0.3772410915
| 30> H -0.4004143926 3.6052227727 -0.0929355427
| 31> H 2.0722325295 3.7233435763 0.1450136555
| 32> H 3.3667123274 1.6798457257 0.4274779405
| 33> H 1.8512789718 -1.6354263458 0.5118791306
| 34> H 4.0735740669 -1.8236792423 1.0823437094
| 35> H 4.2475602963 -0.0668826372 1.1967148402
| 36> H 4.2435818457 0.0856040581 -1.3081084606
| 37> H 3.9710237517 -1.6649630734 -1.4109108836
| 38> H 6.2870662956 -0.4728718258 -0.3260066435
| 39> *
| 40> 
| 41>                          ****END OF INPUT****
================================================================================

                       ****************************
                       * Single Point Calculation *
                       ****************************

---------------------------------
CARTESIAN COORDINATES (ANGSTROEM)
---------------------------------
  C     -4.679866   -1.020824   -0.282568
  C     -3.972450   -2.206543   -0.139987
  C     -2.599100   -2.178937    0.016889
  C     -1.908046   -0.969064    0.032615
  C     -2.622901    0.225167   -0.112464
  C     -4.007442    0.186490   -0.268388
  C     -1.930999    1.519776   -0.103369
  O     -2.545331    2.577704   -0.224998
  C     -0.466009    1.490317    0.054332
  C      0.188380    2.709780    0.033112
  C      1.572741    2.767604    0.167797
  C      2.296978    1.616843    0.326266
  C      1.672789    0.346357    0.364351
  C      0.252192    0.281913    0.216702
  C     -0.442566   -0.988070    0.210353
  O      0.130981   -2.083894    0.340481
  N      2.386574   -0.770817    0.564323
  C      3.820538   -0.877600    0.600946
  C      4.435453   -0.875903   -0.814656
  O      5.810736   -1.169146   -0.799912
  H     -5.751381   -1.039527   -0.404334
  H     -4.492483   -3.151543   -0.150644
  H     -2.031172   -3.090376    0.130973
  H     -4.531681    1.124418   -0.377241
  H     -0.400414    3.605223   -0.092936
  H      2.072233    3.723344    0.145014
  H      3.366712    1.679846    0.427478
  H      1.851279   -1.635426    0.511879
  H      4.073574   -1.823679    1.082344
  H      4.247560   -0.066883    1.196715
  H      4.243582    0.085604   -1.308108
  H      3.971024   -1.664963   -1.410911
  H      6.287066   -0.472872   -0.326007

----------------------------
CARTESIAN COORDINATES (A.U.)
----------------------------
  NO LB      ZA    FRAG     MASS         X           Y           Z
   0 C     6.0000    0    12.011   -8.843665   -1.929078   -0.533976
   1 C     6.0000    0    12.011   -7.506843   -4.169762   -0.264537
   2 C     6.0000    0    12.011   -4.911587   -4.117594    0.031917
   3 C     6.0000    0    12.011   -3.605684   -1.831266    0.061633
   4 C     6.0000    0    12.011   -4.956565    0.425503   -0.212526
   5 C     6.0000    0    12.011   -7.572969    0.352416   -0.507181
   6 C     6.0000    0    12.011   -3.649059    2.871960   -0.195339
   7 O     8.0000    0    15.999   -4.809979    4.871155   -0.425185
   8 C     6.0000    0    12.011   -0.880629    2.816291    0.102673
   9 C     6.0000    0    12.011    0.355987    5.120743    0.062572
  10 C     6.0000    0    12.011    2.972050    5.230013    0.317089
  11 C     6.0000    0    12.011    4.340659    3.055390    0.616553
  12 C     6.0000    0    12.011    3.161114    0.654519    0.688524
  13 C     6.0000    0    12.011    0.476573    0.532738    0.409508
  14 C     6.0000    0    12.011   -0.836329   -1.867182    0.397509
  15 O     8.0000    0    15.999    0.247518   -3.937990    0.643416
  16 N     7.0000    0    14.007    4.509971   -1.456633    1.066415
  17 C     6.0000    0    12.011    7.219770   -1.658423    1.135623
  18 C     6.0000    0    12.011    8.381791   -1.655218   -1.539477
  19 O     8.0000    0    15.999   10.980699   -2.209366   -1.511615
  20 H     1.0000    0     1.008  -10.868534   -1.964421   -0.764081
  21 H     1.0000    0     1.008   -8.489562   -5.955553   -0.284675
  22 H     1.0000    0     1.008   -3.838358   -5.839964    0.247504
  23 H     1.0000    0     1.008   -8.563636    2.124843   -0.712882
  24 H     1.0000    0     1.008   -0.756674    6.812884   -0.175623
  25 H     1.0000    0     1.008    3.915952    7.036100    0.274036
  26 H     1.0000    0     1.008    6.362164    3.174448    0.807816
  27 H     1.0000    0     1.008    3.498410   -3.090508    0.967311
  28 H     1.0000    0     1.008    7.697939   -3.446254    2.045333
  29 H     1.0000    0     1.008    8.026726   -0.126390    2.261463
  30 H     1.0000    0     1.008    8.019208    0.161768   -2.471967
  31 H     1.0000    0     1.008    7.504147   -3.146324   -2.666235
  32 H     1.0000    0     1.008   11.880833   -0.893598   -0.616063

--------------------------------
INTERNAL COORDINATES (ANGSTROEM)
--------------------------------
 C      0   0   0     0.000000000000     0.00000000     0.00000000
 C      1   0   0     1.388054841462     0.00000000     0.00000000
 C      2   1   0     1.382556589143   120.05628086     0.00000000
 C      3   2   1     1.393411304823   120.74777567   359.92197634
 C      4   3   2     1.399376266780   119.10918183     0.00000000
 C      1   2   3     1.382014066658   119.81651716     0.05564860
 C      5   4   3     1.467931874830   120.74479416   180.10202359
 O      7   5   4     1.229394130909   121.51875468   180.25729680
 C      7   5   4     1.473748216168   116.84499002     0.43389646
 C      9   7   5     1.384111755985   116.79019982   178.61497070
 C     10   9   7     1.392098845590   120.34931553   180.37680577
 C     11  10   9     1.368898045219   120.15936878   359.81199589
 C     12  11  10     1.416049710872   121.61015312   359.71334600
 C      9   7   5     1.415068029747   122.26727172   358.79211767
 C     14   9   7     1.447613563911   120.33681205     1.04768840
 O     15  14   9     1.243672390608   123.45008067   179.58303550
 N     13  12  11     1.340729023323   121.12732236   182.23516527
 C     17  13  12     1.438400538011   126.61247246   352.01124347
 C     18  17  13     1.543389948541   111.94737608   281.50632496
 O     19  18  17     1.406275688826   112.32080792   188.43758742
 H      1   2   3     1.078573295117   120.20492155   180.04741574
 H      2   1   3     1.078690274251   120.10898500   179.96130195
 H      3   2   1     1.079944115379   121.16602011   179.89535491
 H      6   1   2     1.079992441404   121.43056391   179.99307735
 H     10   9   7     1.079066135998   118.35490368     0.18211098
 H     11  10   9     1.078633118149   119.68722773   179.70809632
 H     12  11  10     1.076357610602   119.17570548   179.90941839
 H     17  13  12     1.018253399779   114.83279908   183.90701328
 H     18  17  13     1.091254950562   107.86372758   162.51809911
 H     18  17  13     1.092955290094   110.38408415    44.51709434
 H     19  18  17     1.097636672747   110.09969338    64.19408101
 H     19  18  17     1.092624928261   109.29189045   305.43071176
 H     20  19  18     0.967613060540   109.66438662   295.87007991

---------------------------
INTERNAL COORDINATES (A.U.)
---------------------------
 C      0   0   0     0.000000000000     0.00000000     0.00000000
 C      1   0   0     2.623043509226     0.00000000     0.00000000
 C      2   1   0     2.612653318128   120.05628086     0.00000000
 C      3   2   1     2.633165758024   120.74777567   359.92197634
 C      4   3   2     2.644437902523   119.10918183     0.00000000
 C      1   2   3     2.611628099210   119.81651716     0.05564860
 C      5   4   3     2.773989226682   120.74479416   180.10202359
 O      7   5   4     2.323218218068   121.51875468   180.25729680
 C      7   5   4     2.784980518913   116.84499002     0.43389646
 C      9   7   5     2.615592157552   116.79019982   178.61497070
 C     10   9   7     2.630685569512   120.34931553   180.37680577
 C     11  10   9     2.586842410723   120.15936878   359.81199589
 C     12  11  10     2.675946145566   121.61015312   359.71334600
 C      9   7   5     2.674091037089   122.26727172   358.79211767
 C     14   9   7     2.735593183541   120.33681205     1.04768840
 O     15  14   9     2.350200218569   123.45008067   179.58303550
 N     13  12  11     2.533610673880   121.12732236   182.23516527
 C     17  13  12     2.718183087725   126.61247246   352.01124347
 C     18  17  13     2.916584320589   111.94737608   281.50632496
 O     19  18  17     2.657475920673   112.32080792   188.43758742
 H      1   2   3     2.038208143133   120.20492155   180.04741574
 H      2   1   3     2.038429201659   120.10898500   179.96130195
 H      3   2   1     2.040798618007   121.16602011   179.89535491
 H      6   1   2     2.040889940959   121.43056391   179.99307735
 H     10   9   7     2.039139477425   118.35490368     0.18211098
 H     11  10   9     2.038321192279   119.68722773   179.70809632
 H     12  11  10     2.034021106200   119.17570548   179.90941839
 H     17  13  12     1.924220060516   114.83279908   183.90701328
 H     18  17  13     2.062172998849   107.86372758   162.51809911
 H     18  17  13     2.065386174898   110.38408415    44.51709434
 H     19  18  17     2.074232706040   110.09969338    64.19408101
 H     19  18  17     2.064761881508   109.29189045   305.43071176
 H     20  19  18     1.828523688027   109.66438662   295.87007991

---------------------
BASIS SET INFORMATION
---------------------
There are 4 groups of distinct atoms

 Group   1 Type C   : 7s4p1d contracted to 3s2p1d pattern {511/31/1}
 Group   2 Type O   : 7s4p1d contracted to 3s2p1d pattern {511/31/1}
 Group   3 Type N   : 7s4p1d contracted to 3s2p1d pattern {511/31/1}
 Group   4 Type H   : 4s contracted to 2s pattern {31}

Atom   0C    basis set group =>   1
Atom   1C    basis set group =>   1
Atom   2C    basis set group =>   1
Atom   3C    basis set group =>   1
Atom   4C    basis set group =>   1
Atom   5C    basis set group =>   1
Atom   6C    basis set group =>   1
Atom   7O    basis set group =>   2
Atom   8C    basis set group =>   1
Atom   9C    basis set group =>   1
Atom  10C    basis set group =>   1
Atom  11C    basis set group =>   1
Atom  12C    basis set group =>   1
Atom  13C    basis set group =>   1
Atom  14C    basis set group =>   1
Atom  15O    basis set group =>   2
Atom  16N    basis set group =>   3
Atom  17C    basis set group =>   1
Atom  18C    basis set group =>   1
Atom  19O    basis set group =>   2
Atom  20H    basis set group =>   4
Atom  21H    basis set group =>   4
Atom  22H    basis set group =>   4
Atom  23H    basis set group =>   4
Atom  24H    basis set group =>   4
Atom  25H    basis set group =>   4
Atom  26H    basis set group =>   4
Atom  27H    basis set group =>   4
Atom  28H    basis set group =>   4
Atom  29H    basis set group =>   4
Atom  30H    basis set group =>   4
Atom  31H    basis set group =>   4
Atom  32H    basis set group =>   4
---------------------------------
AUXILIARY/J BASIS SET INFORMATION
---------------------------------
There are 4 groups of distinct atoms

 Group   1 Type C   : 12s5p4d2f1g contracted to 6s4p3d1f1g pattern {711111/2111/211/2/1}
 Group   2 Type O   : 12s5p4d2f1g contracted to 6s4p3d1f1g pattern {711111/2111/211/2/1}
 Group   3 Type N   : 12s5p4d2f1g contracted to 6s4p3d1f1g pattern {711111/2111/211/2/1}
 Group   4 Type H   : 5s2p1d contracted to 3s1p1d pattern {311/2/1}

Atom   0C    basis set group =>   1
Atom   1C    basis set group =>   1
Atom   2C    basis set group =>   1
Atom   3C    basis set group =>   1
Atom   4C    basis set group =>   1
Atom   5C    basis set group =>   1
Atom   6C    basis set group =>   1
Atom   7O    basis set group =>   2
Atom   8C    basis set group =>   1
Atom   9C    basis set group =>   1
Atom  10C    basis set group =>   1
Atom  11C    basis set group =>   1
Atom  12C    basis set group =>   1
Atom  13C    basis set group =>   1
Atom  14C    basis set group =>   1
Atom  15O    basis set group =>   2
Atom  16N    basis set group =>   3
Atom  17C    basis set group =>   1
Atom  18C    basis set group =>   1
Atom  19O    basis set group =>   2
Atom  20H    basis set group =>   4
Atom  21H    basis set group =>   4
Atom  22H    basis set group =>   4
Atom  23H    basis set group =>   4
Atom  24H    basis set group =>   4
Atom  25H    basis set group =>   4
Atom  26H    basis set group =>   4
Atom  27H    basis set group =>   4
Atom  28H    basis set group =>   4
Atom  29H    basis set group =>   4
Atom  30H    basis set group =>   4
Atom  31H    basis set group =>   4
Atom  32H    basis set group =>   4
------------------------------------------------------------------------------
                             ORCA STARTUP CALCULATIONS
                           -- RI-GTO INTEGRALS CHOSEN --
------------------------------------------------------------------------------
------------------------------------------------------------------------------
                   ___                                                        
                  /   \      - P O W E R E D   B Y -                         
                 /     \                                                     
                 |  |  |   _    _      __       _____    __    __             
                 |  |  |  | |  | |    /  \     |  _  \  |  |  /  |          
                  \  \/   | |  | |   /    \    | | | |  |  | /  /          
                 / \  \   | |__| |  /  /\  \   | |_| |  |  |/  /          
                |  |  |   |  __  | /  /__\  \  |    /   |      \           
                |  |  |   | |  | | |   __   |  |    \   |  |\   \          
                \     /   | |  | | |  |  |  |  | |\  \  |  | \   \       
                 \___/    |_|  |_| |__|  |__|  |_| \__\ |__|  \__/        
                                                                              
                      - O R C A' S   B I G   F R I E N D -                    
                                      &                                       
                       - I N T E G R A L  F E E D E R -                       
                                                                              
 v1 FN, 2020, v2 2021, v3 2022-2024                                           
------------------------------------------------------------------------------


----------------------
SHARK INTEGRAL PACKAGE
----------------------

Number of atoms                             ...     33
Number of basis functions                   ...    306
Number of shells                            ...    146
Maximum angular momentum                    ...      2
Integral batch strategy                     ... SHARK/LIBINT Hybrid
RI-J (if used) integral strategy            ... SPLIT-RIJ (Revised 2003 algorithm where possible)
Printlevel                                  ...      1
Contraction scheme used                     ... SEGMENTED contraction
Prescreening option                         ... SCHWARTZ
   Thresh                                   ... 1.000e-09
   Tcut                                     ... 1.000e-10
   Tpresel                                  ... 1.000e-10 
Coulomb Range Separation                    ... NOT USED
Exchange Range Separation                   ... NOT USED
Multipole approximations                    ... NOT USED
Finite Nucleus Model                        ... NOT USED
CABS basis                                  ... NOT available
Auxiliary Coulomb fitting basis             ... AVAILABLE
   # of basis functions in Aux-J            ...   1123
   # of shells in Aux-J                     ...    365
   Maximum angular momentum in Aux-J        ...      4
Auxiliary J/K fitting basis                 ... NOT available
Auxiliary Correlation fitting basis         ... NOT available
Auxiliary 'external' fitting basis          ... NOT available

Checking pre-screening integrals            ... done (  0.0 sec) Dimension = 146
Check shell pair data                       ... done (  0.0 sec)
Shell pair information
Shell pair cut-off parameter TPreSel        ...   1.0e-10
Total number of shell pairs                 ...     10731
Shell pairs after pre-screening             ...      7979
Total number of primitive shell pairs       ...     43077
Primitive shell pairs kept                  ...     20024
          la=0 lb=0:   2684 shell pairs
          la=1 lb=0:   2713 shell pairs
          la=1 lb=1:    713 shell pairs
          la=2 lb=0:   1141 shell pairs
          la=2 lb=1:    602 shell pairs
          la=2 lb=2:    126 shell pairs

Calculating one electron integrals          ... done (  0.1 sec)
Calculating RI/J V-Matrix + Cholesky decomp.... done (  0.3 sec)
Calculating Nuclear repulsion               ... done (  0.0 sec) ENN=   1455.140398610093 Eh

Diagonalization of the overlap matrix:
Smallest eigenvalue                        ... 1.737e-04
Time for diagonalization                   ...    0.010 sec
Threshold for overlap eigenvalues          ... 1.000e-07
Number of eigenvalues below threshold      ... 0
Time for construction of square roots      ...    0.029 sec
Total time needed                          ...    0.052 sec

-------------------
DFT GRID GENERATION
-------------------

General Integration Accuracy     IntAcc      ... 4.159
Radial Grid Type                 RadialGrid  ... OptM3 with GC (2021)
Angular Grid (max. ang.)         AngularGrid ... 3 (Lebedev-194)
Angular grid pruning method      GridPruning ... 4 (adaptive)
Weight generation scheme         WeightScheme... mBecke (2022)
Basis function cutoff            BFCut       ... 1.0000e-10
Integration weight cutoff        WCut        ... 1.0000e-14
Partially contracted basis set               ... off
Rotationally invariant grid construction     ... off
Angular grids for H and He will be reduced by one unit

Total number of grid points                  ...    82860
Total number of batches                      ...     1309
Average number of points per batch           ...       63
Average number of grid points per atom       ...     2511
Initializing property integral containers    ... done (  0.0 sec)

SHARK setup successfully completed in   2.0 seconds

Maximum memory used throughout the entire STARTUP-calculation: 43.2 MB
-------------------------------------------------------------------------------
                                 ORCA GUESS
                   Start orbitals & Density for SCF / CASSCF
-------------------------------------------------------------------------------

------------
SCF SETTINGS
------------
Hamiltonian:
 Density Functional     Method          .... DFT(GTOs)
 Exchange Functional    Exchange        .... PBE
   PBE kappa parameter   XKappa         ....  0.804000
   PBE mue parameter    XMuePBE         ....  0.219520
 Correlation Functional Correlation     .... PBE
   PBE beta parameter  CBetaPBE         ....  0.066725
 LDA part of GGA corr.  LDAOpt          .... PW91-LDA
 Gradients option       PostSCFGGA      .... off
   NL short-range parameter             ....  6.400000
 RI-approximation to the Coulomb term is turned on
   Number of AuxJ basis functions       .... 1123


General Settings:
 Integral files         IntName         .... sp
 Hartree-Fock type      HFTyp           .... RHF
 Total Charge           Charge          ....    0
 Multiplicity           Mult            ....    1
 Number of Electrons    NEL             ....  140
 Basis Dimension        Dim             ....  306
 Nuclear Repulsion      ENuc            ....   1455.1403986101 Eh

Convergence Acceleration:
 AO-DIIS                CNVDIIS         .... on
   Start iteration      DIISMaxIt       ....    12
   Startup error        DIISStart       ....  0.200000
   # of expansion vecs  DIISMaxEq       ....     5
   Bias factor          DIISBfac        ....   1.050
   Max. coefficient     DIISMaxC        ....  10.000
 MO-DIIS                CNVKDIIS        .... off
 Trust-Rad. Augm. Hess. CNVTRAH         .... auto
   Auto Start mean grad. ratio tolernc. ....  1.125000
   Auto Start start iteration           ....    50
   Auto Start num. interpolation iter.  ....    10
   Max. Number of Micro iterations      ....    24
   Max. Number of Macro iterations      .... Maxiter - #DIIS iter
   Number of Davidson start vectors     ....     2
   Converg. threshold    (grad. norm)   ....   1.000e-04
   Grad. Scal. Fac. for Micro threshold ....   0.100
   Minimum threshold for Micro iter.    ....   1.000e-02
   NR start threshold (gradient norm)   ....   1.000e-04
   Initial trust radius                 ....   0.400
   Minimum AH scaling param. (alpha)    ....   1.000
   Maximum AH scaling param. (alpha)    .... 1000.000
   Quad. conv. algorithm                .... NR
   White noise on init. David. guess    .... on
   Maximum white noise                  ....   0.010
   Pseudo random numbers                .... off
   Inactive MOs                         .... canonical
   Orbital update algorithm             .... Taylor
   Preconditioner                       .... Diag
   Full preconditioner red. dimension   ....   250
 SOSCF                  CNVSOSCF        .... on
   Start iteration      SOSCFMaxIt      ....   150
   Startup grad/error   SOSCFStart      ....  0.003300
   Hessian update       SOSCFHessUp     .... L-BFGS
 Level Shifting         CNVShift        .... on
   Level shift para.    LevelShift      ....    0.2500
   Turn off err/grad.   ShiftErr        ....    0.0010
 Zerner damping         CNVZerner       .... off
 Static damping         CNVDamp         .... on
   Fraction old density DampFac         ....    0.7000
   Max. Damping (<1)    DampMax         ....    0.9800
   Min. Damping (>=0)   DampMin         ....    0.0000
   Turn off err/grad.   DampErr         ....    0.1000

SCF Procedure:
 Maximum # iterations   MaxIter         ....   125
 SCF integral mode      SCFMode         .... Direct
   Integral package                     .... SHARK and LIBINT hybrid scheme
 Reset frequency        DirectResetFreq ....    20
 Integral Threshold     Thresh          ....  1.000e-09 Eh
 Primitive CutOff       TCut            ....  1.000e-10 Eh

Convergence Tolerance:
 Convergence Check Mode ConvCheckMode   .... Total+1el-Energy
 Convergence forced     ConvForced      .... 0
 Energy Change          TolE            ....  1.000e-05 Eh
 1-El. energy change                    ....  1.000e-02 Eh
 Orbital Gradient       TolG            ....  1.000e-04
 Orbital Rotation angle TolX            ....  1.000e-04
 DIIS Error             TolErr          ....  5.000e-04

------------------------------
INITIAL GUESS: MODEL POTENTIAL
------------------------------
Loading Hartree-Fock densities                     ... done
Calculating cut-offs                               ... done
Initializing the effective Hamiltonian             ... done
Setting up the integral package (SHARK)            ... done
Starting the Coulomb interaction                   ... done (   0.8 sec)
Making the grid                                    ... done (   0.6 sec)
Mapping shells                                     ... done
Starting the XC term evaluation                    ... done (   0.6 sec)
  promolecular density results
     # of electrons  =    139.992979255
     EX              =   -116.753658192
     EC              =     -4.728587463
     EX+EC           =   -121.482245655
Transforming the Hamiltonian                       ... done (   0.0 sec)
Diagonalizing the Hamiltonian                      ... done (   0.0 sec)
Back transforming the eigenvectors                 ... done (   0.0 sec)
Now organizing SCF variables                       ... done
                      ------------------
                      INITIAL GUESS DONE (   2.1 sec)
                      ------------------
             **** ENERGY FILE WAS UPDATED (sp.en.tmp) ****
Finished Guess after   2.3 sec
Maximum memory used throughout the entire GUESS-calculation: 34.4 MB

-------------------------------------------------------------------------------------------
                                      ORCA LEAN-SCF
                              memory conserving SCF solver
-------------------------------------------------------------------------------------------

----------------------------------------D-I-I-S--------------------------------------------
Iteration    Energy (Eh)           Delta-E    RMSDP     MaxDP     DIISErr   Damp  Time(sec)
-------------------------------------------------------------------------------------------
               ***  Starting incremental Fock matrix formation  ***
    1    -895.8520776019656751     0.00e+00  3.86e-03  9.65e-02  2.25e-01  0.700   3.3
Warning: op=0 Small HOMO/LUMO gap (   0.056) - skipping pre-diagonalization
         Will do a full diagonalization
    2    -896.0324445650423968    -1.80e-01  2.21e-03  5.17e-02  8.17e-02  0.700   2.9
                               ***Turning on AO-DIIS***
    3    -896.0940878556286862    -6.16e-02  8.54e-04  1.78e-02  2.55e-02  0.700   2.7
    4    -896.1325206832245840    -3.84e-02  1.33e-03  2.89e-02  1.26e-02  0.000   2.7
    5    -896.2184765243548554    -8.60e-02  3.52e-04  8.77e-03  5.71e-03  0.000   2.8
                              *** Initializing SOSCF ***
---------------------------------------S-O-S-C-F--------------------------------------
Iteration    Energy (Eh)           Delta-E    RMSDP     MaxDP     MaxGrad    Time(sec)
--------------------------------------------------------------------------------------
    6    -896.2191128936767655    -6.36e-04  1.22e-04  3.77e-03  2.23e-03     2.7
               *** Restarting incremental Fock matrix formation ***
    7    -896.2191657573287102    -5.29e-05  8.21e-05  2.87e-03  5.21e-04     3.1
    8    -896.2191481136349012     1.76e-05  6.05e-05  2.05e-03  1.05e-03     2.6
    9    -896.2191738184435508    -2.57e-05  2.19e-05  5.99e-04  8.42e-05     2.5
   10    -896.2191726759072026     1.14e-06  1.25e-05  3.90e-04  1.59e-04     2.5
                 **** Energy Check signals convergence ****

               *****************************************************
               *                     SUCCESS                       *
               *           SCF CONVERGED AFTER  10 CYCLES          *
               *****************************************************

             **** ENERGY FILE WAS UPDATED (sp.en.tmp) ****

----------------
TOTAL SCF ENERGY
----------------

Total Energy       :       -896.21917267590720 Eh          -24387.36352 eV

Components:
Nuclear Repulsion  :       1455.14039861009337 Eh           39596.38329 eV
Electronic Energy  :      -2351.35957128600057 Eh          -63983.74681 eV
One Electron Energy:      -4108.85168576708566 Eh         -111807.53856 eV
Two Electron Energy:       1757.49211448108508 Eh           47823.79175 eV

Virial components:
Potential Energy   :      -1785.11116679990005 Eh          -48575.34437 eV
Kinetic Energy     :        888.89199412399284 Eh           24187.98085 eV
Virial Ratio       :          2.00824304707473

DFT components:
N(Alpha)           :       70.000244583043 electrons
N(Beta)            :       70.000244583043 electrons
N(Total)           :      140.000489166086 electrons
E(X)               :     -118.569426821248 Eh       
E(C)               :       -4.744788634944 Eh       
E(XC)              :     -123.314215456192 Eh       

---------------
SCF CONVERGENCE
---------------

  Last Energy change         ...   -1.1425e-06  Tolerance :   1.0000e-05
  Last MAX-Density change    ...    3.9016e-04  Tolerance :   1.0000e-03
  Last RMS-Density change    ...    1.2514e-05  Tolerance :   1.0000e-04
  Last DIIS Error            ...    2.2292e-03  Tolerance :   5.0000e-04
  Last Orbital Gradient      ...    1.5886e-04  Tolerance :   1.0000e-04
  Last Orbital Rotation      ...    1.8870e-04  Tolerance :   1.0000e-04


----------------
ORBITAL ENERGIES
----------------

  NO   OCC          E(Eh)            E(eV) 
   0   2.0000     -18.759990      -510.4853 
   1   2.0000     -18.749521      -510.2004 
   2   2.0000     -18.743089      -510.0254 
   3   2.0000     -14.021238      -381.5373 
   4   2.0000      -9.978352      -271.5248 
   5   2.0000      -9.974667      -271.4245 
   6   2.0000      -9.961097      -271.0552 
   7   2.0000      -9.945534      -270.6317 
   8   2.0000      -9.938380      -270.4371 
   9   2.0000      -9.913929      -269.7717 
  10   2.0000      -9.913124      -269.7498 
  11   2.0000      -9.912945      -269.7449 
  12   2.0000      -9.911579      -269.7078 
  13   2.0000      -9.911238      -269.6985 
  14   2.0000      -9.909178      -269.6424 
  15   2.0000      -9.908960      -269.6365 
  16   2.0000      -9.908247      -269.6171 
  17   2.0000      -9.905173      -269.5335 
  18   2.0000      -9.904375      -269.5118 
  19   2.0000      -9.896139      -269.2876 
  20   2.0000      -0.941897       -25.6303 
  21   2.0000      -0.936589       -25.4859 
  22   2.0000      -0.935680       -25.4612 
  23   2.0000      -0.875712       -23.8293 
  24   2.0000      -0.797484       -21.7006 
  25   2.0000      -0.783194       -21.3118 
  26   2.0000      -0.726126       -19.7589 
  27   2.0000      -0.703910       -19.1544 
  28   2.0000      -0.688304       -18.7297 
  29   2.0000      -0.684700       -18.6316 
  30   2.0000      -0.655190       -17.8286 
  31   2.0000      -0.610235       -16.6053 
  32   2.0000      -0.598167       -16.2770 
  33   2.0000      -0.582702       -15.8561 
  34   2.0000      -0.573206       -15.5977 
  35   2.0000      -0.539359       -14.6767 
  36   2.0000      -0.525001       -14.2860 
  37   2.0000      -0.498679       -13.5697 
  38   2.0000      -0.492016       -13.3884 
  39   2.0000      -0.476872       -12.9763 
  40   2.0000      -0.466094       -12.6831 
  41   2.0000      -0.447214       -12.1693 
  42   2.0000      -0.436670       -11.8824 
  43   2.0000      -0.428668       -11.6646 
  44   2.0000      -0.423698       -11.5294 
  45   2.0000      -0.414094       -11.2681 
  46   2.0000      -0.409743       -11.1497 
  47   2.0000      -0.401250       -10.9186 
  48   2.0000      -0.388473       -10.5709 
  49   2.0000      -0.385208       -10.4820 
  50   2.0000      -0.380238       -10.3468 
  51   2.0000      -0.374473       -10.1899 
  52   2.0000      -0.369129       -10.0445 
  53   2.0000      -0.359791        -9.7904 
  54   2.0000      -0.352717        -9.5979 
  55   2.0000      -0.350043        -9.5252 
  56   2.0000      -0.337484        -9.1834 
  57   2.0000      -0.332180        -9.0391 
  58   2.0000      -0.324333        -8.8255 
  59   2.0000      -0.317716        -8.6455 
  60   2.0000      -0.308908        -8.4058 
  61   2.0000      -0.297878        -8.1057 
  62   2.0000      -0.280571        -7.6347 
  63   2.0000      -0.250243        -6.8095 
  64   2.0000      -0.243122        -6.6157 
  65   2.0000      -0.241212        -6.5637 
  66   2.0000      -0.236528        -6.4363 
  67   2.0000      -0.218603        -5.9485 
  68   2.0000      -0.205977        -5.6049 
  69   2.0000      -0.188177        -5.1206 
  70   0.0000      -0.126812        -3.4507 
  71   0.0000      -0.079300        -2.1579 
  72   0.0000      -0.052572        -1.4306 
  73   0.0000      -0.032374        -0.8810 
  74   0.0000       0.006528         0.1776 
  75   0.0000       0.017123         0.4659 
  76   0.0000       0.025755         0.7008 
  77   0.0000       0.044881         1.2213 
  78   0.0000       0.049197         1.3387 
  79   0.0000       0.050644         1.3781 
  80   0.0000       0.070762         1.9255 
*Only the first 10 virtual orbitals were printed.

                    ********************************
                    * MULLIKEN POPULATION ANALYSIS *
                    ********************************

-----------------------
MULLIKEN ATOMIC CHARGES
-----------------------
   0 C :   -0.020811
   1 C :   -0.016432
   2 C :   -0.133360
   3 C :    0.050991
   4 C :    0.037984
   5 C :   -0.125691
   6 C :    0.085427
   7 O :   -0.150083
   8 C :    0.018820
   9 C :   -0.139440
  10 C :   -0.008181
  11 C :   -0.155364
  12 C :    0.080873
  13 C :    0.050399
  14 C :    0.072741
  15 O :   -0.218754
  16 N :   -0.226424
  17 C :   -0.101726
  18 C :    0.000013
  19 O :   -0.425211
  20 H :    0.062805
  21 H :    0.062569
  22 H :    0.059400
  23 H :    0.058465
  24 H :    0.055738
  25 H :    0.058595
  26 H :    0.028401
  27 H :    0.247316
  28 H :    0.107841
  29 H :    0.094003
  30 H :    0.092172
  31 H :    0.098891
  32 H :    0.298032
Sum of atomic charges:   -0.0000000

--------------------------------
MULLIKEN REDUCED ORBITAL CHARGES
--------------------------------
  0 C s       :     3.189394  s :     3.189394
      pz      :     0.970286  p :     2.796389
      px      :     0.849181
      py      :     0.976923
      dz2     :     0.002995  d :     0.035027
      dxz     :     0.002301
      dyz     :     0.006152
      dx2y2   :     0.014279
      dxy     :     0.009300

  1 C s       :     3.187302  s :     3.187302
      pz      :     0.968633  p :     2.794032
      px      :     0.954853
      py      :     0.870545
      dz2     :     0.003178  d :     0.035098
      dxz     :     0.005190
      dyz     :     0.003124
      dx2y2   :     0.010555
      dxy     :     0.013051

  2 C s       :     3.335912  s :     3.335912
      pz      :     0.944140  p :     2.763248
      px      :     0.881879
      py      :     0.937230
      dz2     :     0.003047  d :     0.034201
      dxz     :     0.005153
      dyz     :     0.003241
      dx2y2   :     0.009710
      dxy     :     0.013049

  3 C s       :     3.119720  s :     3.119720
      pz      :     0.984442  p :     2.791420
      px      :     0.936930
      py      :     0.870048
      dz2     :     0.002903  d :     0.037869
      dxz     :     0.004328
      dyz     :     0.006695
      dx2y2   :     0.013238
      dxy     :     0.010705

  4 C s       :     3.117480  s :     3.117480
      pz      :     0.988237  p :     2.806619
      px      :     0.824052
      py      :     0.994331
      dz2     :     0.003008  d :     0.037917
      dxz     :     0.005842
      dyz     :     0.004760
      dx2y2   :     0.011274
      dxy     :     0.013032

  5 C s       :     3.338438  s :     3.338438
      pz      :     0.940029  p :     2.752986
      px      :     1.019192
      py      :     0.793765
      dz2     :     0.003040  d :     0.034267
      dxz     :     0.004988
      dyz     :     0.003491
      dx2y2   :     0.010849
      dxy     :     0.011899

  6 C s       :     3.049356  s :     3.049356
      pz      :     0.841434  p :     2.774405
      px      :     0.964617
      py      :     0.968355
      dz2     :     0.004931  d :     0.090812
      dxz     :     0.008947
      dyz     :     0.014536
      dx2y2   :     0.036364
      dxy     :     0.026035

  7 O s       :     3.723935  s :     3.723935
      pz      :     1.311775  p :     4.409416
      px      :     1.653501
      py      :     1.444140
      dz2     :     0.001891  d :     0.016732
      dxz     :     0.001367
      dyz     :     0.003927
      dx2y2   :     0.004281
      dxy     :     0.005266

  8 C s       :     3.130565  s :     3.130565
      pz      :     0.983944  p :     2.811900
      px      :     0.963960
      py      :     0.863997
      dz2     :     0.002990  d :     0.038715
      dxz     :     0.003881
      dyz     :     0.008215
      dx2y2   :     0.013042
      dxy     :     0.010588

  9 C s       :     3.338578  s :     3.338578
      pz      :     0.973141  p :     2.766880
      px      :     0.866264
      py      :     0.927475
      dz2     :     0.003046  d :     0.033982
      dxz     :     0.004967
      dyz     :     0.003328
      dx2y2   :     0.009771
      dxy     :     0.012870

 10 C s       :     3.190327  s :     3.190327
      pz      :     0.959712  p :     2.781317
      px      :     0.954064
      py      :     0.867541
      dz2     :     0.003254  d :     0.036537
      dxz     :     0.006196
      dyz     :     0.003448
      dx2y2   :     0.010629
      dxy     :     0.013011

 11 C s       :     3.304186  s :     3.304186
      pz      :     1.048027  p :     2.818769
      px      :     0.760791
      py      :     1.009952
      dz2     :     0.003237  d :     0.032408
      dxz     :     0.002070
      dyz     :     0.005703
      dx2y2   :     0.013173
      dxy     :     0.008226

 12 C s       :     3.018325  s :     3.018325
      pz      :     0.930362  p :     2.841197
      px      :     1.029671
      py      :     0.881164
      dz2     :     0.004588  d :     0.059605
      dxz     :     0.008990
      dyz     :     0.013442
      dx2y2   :     0.015735
      dxy     :     0.016850

 13 C s       :     3.127323  s :     3.127323
      pz      :     1.083840  p :     2.787692
      px      :     0.847585
      py      :     0.856267
      dz2     :     0.003108  d :     0.034585
      dxz     :     0.005079
      dyz     :     0.004686
      dx2y2   :     0.011262
      dxy     :     0.010451

 14 C s       :     3.062236  s :     3.062236
      pz      :     0.854077  p :     2.775987
      px      :     0.963829
      py      :     0.958081
      dz2     :     0.005067  d :     0.089036
      dxz     :     0.008252
      dyz     :     0.016777
      dx2y2   :     0.033675
      dxy     :     0.025265

 15 O s       :     3.743552  s :     3.743552
      pz      :     1.385467  p :     4.459652
      px      :     1.646492
      py      :     1.427694
      dz2     :     0.001790  d :     0.015550
      dxz     :     0.000924
      dyz     :     0.003949
      dx2y2   :     0.004298
      dxy     :     0.004590

 16 N s       :     3.368360  s :     3.368360
      pz      :     1.588111  p :     3.834251
      px      :     1.099264
      py      :     1.146876
      dz2     :     0.002655  d :     0.023813
      dxz     :     0.003520
      dyz     :     0.002443
      dx2y2   :     0.006098
      dxy     :     0.009097

 17 C s       :     3.043511  s :     3.043511
      pz      :     1.070636  p :     3.009186
      px      :     0.856590
      py      :     1.081960
      dz2     :     0.006523  d :     0.049028
      dxz     :     0.013188
      dyz     :     0.009665
      dx2y2   :     0.012379
      dxy     :     0.007273

 18 C s       :     3.062474  s :     3.062474
      pz      :     1.032682  p :     2.874115
      px      :     0.760013
      py      :     1.081420
      dz2     :     0.008134  d :     0.063398
      dxz     :     0.015874
      dyz     :     0.009901
      dx2y2   :     0.016065
      dxy     :     0.013424

 19 O s       :     3.790044  s :     3.790044
      pz      :     1.763058  p :     4.619447
      px      :     1.259740
      py      :     1.596649
      dz2     :     0.001499  d :     0.015720
      dxz     :     0.002444
      dyz     :     0.003781
      dx2y2   :     0.003126
      dxy     :     0.004871

 20 H s       :     0.937195  s :     0.937195

 21 H s       :     0.937431  s :     0.937431

 22 H s       :     0.940600  s :     0.940600

 23 H s       :     0.941535  s :     0.941535

 24 H s       :     0.944262  s :     0.944262

 25 H s       :     0.941405  s :     0.941405

 26 H s       :     0.971599  s :     0.971599

 27 H s       :     0.752684  s :     0.752684

 28 H s       :     0.892159  s :     0.892159

 29 H s       :     0.905997  s :     0.905997

 30 H s       :     0.907828  s :     0.907828

 31 H s       :     0.901109  s :     0.901109

 32 H s       :     0.701968  s :     0.701968


------------------------
MULLIKEN OVERLAP CHARGES
------------------------
B(  0-C ,  1-C ) :   0.1079 B(  0-C ,  2-C ) :   0.4073 B(  0-C ,  3-C ) :  -0.4365 
B(  0-C ,  4-C ) :   0.3643 B(  0-C ,  5-C ) :   0.0989 B(  0-C ,  6-C ) :   0.0623 
B(  0-C , 20-H ) :   0.8940 B(  0-C , 21-H ) :  -0.1797 B(  0-C , 23-H ) :  -0.1878 
B(  1-C ,  2-C ) :   0.1076 B(  1-C ,  3-C ) :   0.3615 B(  1-C ,  4-C ) :  -0.4397 
B(  1-C ,  5-C ) :   0.4086 B(  1-C , 14-C ) :   0.0611 B(  1-C , 20-H ) :  -0.1786 
B(  1-C , 21-H ) :   0.8936 B(  1-C , 22-H ) :  -0.1906 B(  2-C ,  3-C ) :   0.3237 
B(  2-C ,  4-C ) :   0.0852 B(  2-C ,  5-C ) :  -0.4034 B(  2-C , 13-C ) :   0.0812 
B(  2-C , 14-C ) :  -0.2077 B(  2-C , 21-H ) :  -0.1763 B(  2-C , 22-H ) :   0.8862 
B(  3-C ,  4-C ) :   0.2287 B(  3-C ,  5-C ) :   0.0699 B(  3-C ,  8-C ) :  -0.1632 
B(  3-C , 13-C ) :  -0.1892 B(  3-C , 14-C ) :   0.1166 B(  3-C , 15-O ) :  -0.2794 
B(  3-C , 22-H ) :  -0.1621 B(  4-C ,  5-C ) :   0.2969 B(  4-C ,  7-O ) :  -0.3096 
B(  4-C ,  8-C ) :  -0.2311 B(  4-C ,  9-C ) :   0.0871 B(  4-C , 13-C ) :  -0.1860 
B(  4-C , 23-H ) :  -0.1768 B(  5-C ,  6-C ) :  -0.2165 B(  5-C ,  8-C ) :   0.0847 
B(  5-C , 20-H ) :  -0.1766 B(  5-C , 23-H ) :   0.8923 B(  6-C ,  7-O ) :   1.6244 
B(  6-C ,  9-C ) :  -0.2143 B(  6-C , 10-C ) :   0.0729 B(  6-C , 12-C ) :   0.0535 
B(  6-C , 14-C ) :  -0.2511 B(  6-C , 23-H ) :  -0.0536 B(  6-C , 24-H ) :  -0.0595 
B(  7-O ,  8-C ) :  -0.3172 B(  7-O , 24-H ) :   0.0530 B(  8-C ,  9-C ) :   0.2894 
B(  8-C , 10-C ) :   0.3828 B(  8-C , 11-C ) :  -0.4082 B(  8-C , 12-C ) :   0.1713 
B(  8-C , 13-C ) :   0.3784 B(  8-C , 24-H ) :  -0.1751 B(  9-C , 10-C ) :  -0.0626 
B(  9-C , 11-C ) :   0.4306 B(  9-C , 12-C ) :  -0.4492 B(  9-C , 13-C ) :   0.0796 
B(  9-C , 24-H ) :   0.8980 B(  9-C , 25-H ) :  -0.1892 B( 10-C , 11-C ) :   0.1128 
B( 10-C , 12-C ) :   0.4692 B( 10-C , 13-C ) :  -0.4169 B( 10-C , 24-H ) :  -0.1945 
B( 10-C , 25-H ) :   0.9074 B( 10-C , 26-H ) :  -0.1943 B( 11-C , 12-C ) :   0.1326 
B( 11-C , 13-C ) :   0.2092 B( 11-C , 14-C ) :   0.0584 B( 11-C , 16-N ) :  -0.2417 
B( 11-C , 25-H ) :  -0.1851 B( 11-C , 26-H ) :   0.8795 B( 12-C , 13-C ) :   0.1381 
B( 12-C , 14-C ) :  -0.2448 B( 12-C , 16-N ) :   1.0157 B( 12-C , 17-C ) :  -0.0996 
B( 12-C , 26-H ) :  -0.1781 B( 12-C , 29-H ) :  -0.0528 B( 13-C , 14-C ) :   0.0690 
B( 13-C , 15-O ) :  -0.2284 B( 13-C , 16-N ) :  -0.2286 B( 13-C , 27-H ) :  -0.1106 
B( 14-C , 15-O ) :   1.4209 B( 14-C , 22-H ) :  -0.0586 B( 15-O , 16-N ) :  -0.0851 
B( 15-O , 27-H ) :   0.1601 B( 16-N , 17-C ) :   0.4829 B( 16-N , 18-C ) :  -0.0827 
B( 16-N , 27-H ) :   0.5396 B( 17-C , 18-C ) :   0.7772 B( 17-C , 19-O ) :  -0.1164 
B( 17-C , 28-H ) :   0.6477 B( 17-C , 29-H ) :   0.6459 B( 17-C , 30-H ) :  -0.1023 
B( 18-C , 19-O ) :   0.6774 B( 18-C , 29-H ) :  -0.0696 B( 18-C , 30-H ) :   0.7415 
B( 18-C , 31-H ) :   0.6899 B( 18-C , 32-H ) :  -0.0894 B( 19-O , 30-H ) :  -0.0518 
B( 19-O , 31-H ) :  -0.0579 B( 19-O , 32-H ) :   0.5297 B( 28-H , 29-H ) :  -0.0654 
B( 30-H , 31-H ) :  -0.0796 


                     *******************************
                     * LOEWDIN POPULATION ANALYSIS *
                     *******************************

----------------------
LOEWDIN ATOMIC CHARGES
----------------------
   0 C :   -0.107490
   1 C :   -0.104713
   2 C :   -0.088211
   3 C :   -0.044699
   4 C :   -0.053536
   5 C :   -0.082843
   6 C :    0.058684
   7 O :   -0.130819
   8 C :   -0.043988
   9 C :   -0.111507
  10 C :   -0.096859
  11 C :   -0.148027
  12 C :    0.034007
  13 C :   -0.090249
  14 C :    0.057031
  15 O :   -0.176724
  16 N :   -0.125738
  17 C :   -0.183529
  18 C :   -0.135657
  19 O :   -0.331084
  20 H :    0.128885
  21 H :    0.128797
  22 H :    0.135267
  23 H :    0.135952
  24 H :    0.135253
  25 H :    0.129597
  26 H :    0.124451
  27 H :    0.243951
  28 H :    0.128315
  29 H :    0.111594
  30 H :    0.100399
  31 H :    0.118802
  32 H :    0.284686

-------------------------------
LOEWDIN REDUCED ORBITAL CHARGES
-------------------------------
  0 C s       :     2.893441  s :     2.893441
      pz      :     0.963025  p :     3.121783
      px      :     1.066647
      py      :     1.092110
      dz2     :     0.006969  d :     0.092266
      dxz     :     0.003860
      dyz     :     0.013490
      dx2y2   :     0.039136
      dxy     :     0.028812

  1 C s       :     2.893726  s :     2.893726
      pz      :     0.959742  p :     3.118592
      px      :     1.086767
      py      :     1.072084
      dz2     :     0.007256  d :     0.092395
      dxz     :     0.011242
      dyz     :     0.006088
      dx2y2   :     0.031139
      dxy     :     0.036670

  2 C s       :     2.894618  s :     2.894618
      pz      :     0.947608  p :     3.103366
      px      :     1.075925
      py      :     1.079833
      dz2     :     0.006925  d :     0.090228
      dxz     :     0.010952
      dyz     :     0.006402
      dx2y2   :     0.029351
      dxy     :     0.036598

  3 C s       :     2.854553  s :     2.854553
      pz      :     0.966936  p :     3.082852
      px      :     1.041161
      py      :     1.074755
      dz2     :     0.008193  d :     0.107294
      dxz     :     0.008844
      dyz     :     0.014271
      dx2y2   :     0.041254
      dxy     :     0.034732

  4 C s       :     2.854350  s :     2.854350
      pz      :     0.972102  p :     3.090966
      px      :     1.068192
      py      :     1.050672
      dz2     :     0.008520  d :     0.108220
      dxz     :     0.012477
      dyz     :     0.009985
      dx2y2   :     0.036893
      dxy     :     0.040345

  5 C s       :     2.895016  s :     2.895016
      pz      :     0.941808  p :     3.097388
      px      :     1.074634
      py      :     1.080946
      dz2     :     0.006916  d :     0.090439
      dxz     :     0.010846
      dyz     :     0.006669
      dx2y2   :     0.031867
      dxy     :     0.034142

  6 C s       :     2.855235  s :     2.855235
      pz      :     0.822396  p :     2.870112
      px      :     1.029409
      py      :     1.018307
      dz2     :     0.012666  d :     0.215969
      dxz     :     0.017134
      dyz     :     0.027697
      dx2y2   :     0.091307
      dxy     :     0.067165

  7 O s       :     3.553778  s :     3.553778
      pz      :     1.316594  p :     4.547557
      px      :     1.692729
      py      :     1.538235
      dz2     :     0.004003  d :     0.029484
      dxz     :     0.001794
      dyz     :     0.005089
      dx2y2   :     0.007847
      dxy     :     0.010750

  8 C s       :     2.854913  s :     2.854913
      pz      :     0.964220  p :     3.080198
      px      :     1.045141
      py      :     1.070837
      dz2     :     0.008319  d :     0.108876
      dxz     :     0.008098
      dyz     :     0.017800
      dx2y2   :     0.040603
      dxy     :     0.034057

  9 C s       :     2.891345  s :     2.891345
      pz      :     0.979895  p :     3.130089
      px      :     1.068568
      py      :     1.081625
      dz2     :     0.006946  d :     0.090074
      dxz     :     0.010508
      dyz     :     0.006627
      dx2y2   :     0.029736
      dxy     :     0.036256

 10 C s       :     2.889142  s :     2.889142
      pz      :     0.950171  p :     3.111909
      px      :     1.088024
      py      :     1.073714
      dz2     :     0.007443  d :     0.095808
      dxz     :     0.013571
      dyz     :     0.006921
      dx2y2   :     0.031356
      dxy     :     0.036517

 11 C s       :     2.890335  s :     2.890335
      pz      :     1.037765  p :     3.170601
      px      :     1.062216
      py      :     1.070620
      dz2     :     0.007288  d :     0.087091
      dxz     :     0.003603
      dyz     :     0.012367
      dx2y2   :     0.037169
      dxy     :     0.026665

 12 C s       :     2.829018  s :     2.829018
      pz      :     0.929811  p :     2.985194
      px      :     1.042740
      py      :     1.012643
      dz2     :     0.010927  d :     0.151780
      dxz     :     0.018943
      dyz     :     0.028697
      dx2y2   :     0.044499
      dxy     :     0.048715

 13 C s       :     2.848180  s :     2.848180
      pz      :     1.060516  p :     3.141625
      px      :     1.034227
      py      :     1.046882
      dz2     :     0.008241  d :     0.100444
      dxz     :     0.010609
      dyz     :     0.009942
      dx2y2   :     0.037018
      dxy     :     0.034634

 14 C s       :     2.851178  s :     2.851178
      pz      :     0.840997  p :     2.878529
      px      :     1.026897
      py      :     1.010635
      dz2     :     0.012747  d :     0.213262
      dxz     :     0.016040
      dyz     :     0.032832
      dx2y2   :     0.086385
      dxy     :     0.065259

 15 O s       :     3.550340  s :     3.550340
      pz      :     1.387996  p :     4.598544
      px      :     1.684473
      py      :     1.526075
      dz2     :     0.003772  d :     0.027839
      dxz     :     0.001324
      dyz     :     0.005148
      dx2y2   :     0.008141
      dxy     :     0.009454

 16 N s       :     3.093892  s :     3.093892
      pz      :     1.560617  p :     3.974104
      px      :     1.181010
      py      :     1.232477
      dz2     :     0.004729  d :     0.057742
      dxz     :     0.006898
      dyz     :     0.004674
      dx2y2   :     0.018192
      dxy     :     0.023249

 17 C s       :     2.914468  s :     2.914468
      pz      :     1.097406  p :     3.152665
      px      :     0.931164
      py      :     1.124095
      dz2     :     0.017468  d :     0.116396
      dxz     :     0.032251
      dyz     :     0.021170
      dx2y2   :     0.030365
      dxy     :     0.015142

 18 C s       :     2.924803  s :     2.924803
      pz      :     1.080498  p :     3.067769
      px      :     0.865410
      py      :     1.121861
      dz2     :     0.020751  d :     0.143086
      dxz     :     0.037194
      dyz     :     0.021859
      dx2y2   :     0.035136
      dxy     :     0.028146

 19 O s       :     3.542677  s :     3.542677
      pz      :     1.778463  p :     4.761197
      px      :     1.334050
      py      :     1.648683
      dz2     :     0.002478  d :     0.027210
      dxz     :     0.004364
      dyz     :     0.005458
      dx2y2   :     0.006306
      dxy     :     0.008604

 20 H s       :     0.871115  s :     0.871115

 21 H s       :     0.871203  s :     0.871203

 22 H s       :     0.864733  s :     0.864733

 23 H s       :     0.864048  s :     0.864048

 24 H s       :     0.864747  s :     0.864747

 25 H s       :     0.870403  s :     0.870403

 26 H s       :     0.875549  s :     0.875549

 27 H s       :     0.756049  s :     0.756049

 28 H s       :     0.871685  s :     0.871685

 29 H s       :     0.888406  s :     0.888406

 30 H s       :     0.899601  s :     0.899601

 31 H s       :     0.881198  s :     0.881198

 32 H s       :     0.715314  s :     0.715314


---------------------------------
LOEWDIN BOND ORDERS (THRESH 0.050000)
---------------------------------
B(  0-C ,  1-C ) :   1.4715 B(  0-C ,  2-C ) :   0.0876 B(  0-C ,  3-C ) :   0.0989 
B(  0-C ,  4-C ) :   0.0873 B(  0-C ,  5-C ) :   1.5192 B(  0-C , 20-H ) :   0.8870 
B(  1-C ,  2-C ) :   1.5171 B(  1-C ,  3-C ) :   0.0872 B(  1-C ,  4-C ) :   0.0990 
B(  1-C ,  5-C ) :   0.0882 B(  1-C , 21-H ) :   0.8871 B(  2-C ,  3-C ) :   1.4044 
B(  2-C ,  4-C ) :   0.0827 B(  2-C ,  5-C ) :   0.1092 B(  2-C , 14-C ) :   0.0806 
B(  2-C , 22-H ) :   0.8729 B(  3-C ,  4-C ) :   1.3334 B(  3-C ,  5-C ) :   0.0825 
B(  3-C ,  6-C ) :   0.0767 B(  3-C , 13-C ) :   0.0754 B(  3-C , 14-C ) :   1.0636 
B(  3-C , 15-O ) :   0.0949 B(  4-C ,  5-C ) :   1.4014 B(  4-C ,  6-C ) :   1.0751 
B(  4-C ,  7-O ) :   0.0998 B(  4-C ,  8-C ) :   0.0755 B(  4-C , 14-C ) :   0.0720 
B(  5-C ,  6-C ) :   0.0836 B(  5-C , 23-H ) :   0.8737 B(  6-C ,  7-O ) :   2.1309 
B(  6-C ,  8-C ) :   1.0650 B(  6-C ,  9-C ) :   0.0944 B(  6-C , 13-C ) :   0.0686 
B(  7-O ,  8-C ) :   0.0993 B(  7-O ,  9-C ) :   0.0647 B(  8-C ,  9-C ) :   1.4477 
B(  8-C , 10-C ) :   0.0883 B(  8-C , 11-C ) :   0.0989 B(  8-C , 12-C ) :   0.0784 
B(  8-C , 13-C ) :   1.2908 B(  8-C , 14-C ) :   0.0782 B(  9-C , 10-C ) :   1.4318 
B(  9-C , 11-C ) :   0.0891 B(  9-C , 12-C ) :   0.0649 B(  9-C , 13-C ) :   0.0894 
B(  9-C , 24-H ) :   0.8713 B( 10-C , 11-C ) :   1.5694 B( 10-C , 12-C ) :   0.0857 
B( 10-C , 13-C ) :   0.0737 B( 10-C , 25-H ) :   0.8845 B( 11-C , 12-C ) :   1.3053 
B( 11-C , 13-C ) :   0.0828 B( 11-C , 16-N ) :   0.1009 B( 11-C , 26-H ) :   0.8751 
B( 12-C , 13-C ) :   1.2379 B( 12-C , 14-C ) :   0.0782 B( 12-C , 16-N ) :   1.4041 
B( 12-C , 17-C ) :   0.0709 B( 13-C , 14-C ) :   1.1615 B( 13-C , 15-O ) :   0.1058 
B( 13-C , 16-N ) :   0.1068 B( 14-C , 15-O ) :   1.9989 B( 15-O , 16-N ) :   0.0821 
B( 15-O , 27-H ) :   0.1101 B( 16-N , 17-C ) :   1.1068 B( 16-N , 18-C ) :   0.0652 
B( 16-N , 27-H ) :   0.7805 B( 17-C , 18-C ) :   1.0764 B( 17-C , 19-O ) :   0.0873 
B( 17-C , 28-H ) :   0.9041 B( 17-C , 29-H ) :   0.8987 B( 18-C , 19-O ) :   1.2491 
B( 18-C , 30-H ) :   0.9120 B( 18-C , 31-H ) :   0.9140 B( 19-O , 32-H ) :   0.8912 


------------------------------------------
LOEWDIN REDUCED ORBITAL POPULATIONS PER MO
-------------------------------------------
THRESHOLD FOR PRINTING IS 0.1%%
                      0         1         2         3         4         5   
                 -18.75999 -18.74952 -18.74309 -14.02124  -9.97835  -9.97467
                   2.00000   2.00000   2.00000   2.00000   2.00000   2.00000
                  --------  --------  --------  --------  --------  --------
 3 C  px              0.0       0.0       0.0       0.0       0.1       0.0
 6 C  s               0.0       0.0       0.0       0.0       0.0      99.4
 7 O  s               0.0       0.0      99.9       0.0       0.0       0.0
 7 O  py              0.0       0.0       0.0       0.0       0.0       0.2
 8 C  px              0.0       0.0       0.0       0.0       0.0       0.1
14 C  s               0.0       0.0       0.0       0.0      99.4       0.0
15 O  s               0.0      99.9       0.0       0.0       0.0       0.0
15 O  py              0.0       0.0       0.0       0.0       0.2       0.0
16 N  s               0.0       0.0       0.0      99.8       0.0       0.0
19 O  s              99.9       0.0       0.0       0.0       0.0       0.0

                      6         7         8         9        10        11   
                  -9.96110  -9.94553  -9.93838  -9.91393  -9.91312  -9.91294
                   2.00000   2.00000   2.00000   2.00000   2.00000   2.00000
                  --------  --------  --------  --------  --------  --------
 2 C  py              0.0       0.0       0.0       0.1       0.0       0.0
 3 C  s               0.0       0.0       0.0      99.1       0.2       0.0
 4 C  s               0.0       0.0       0.0       0.2       0.0       0.0
 4 C  py              0.0       0.0       0.0       0.1       0.0       0.0
 8 C  s               0.0       0.0       0.0       0.2      79.6      19.7
11 C  py              0.1       0.0       0.0       0.0       0.0       0.0
12 C  s              99.5       0.0       0.0       0.0       0.0       0.0
13 C  s               0.0       0.0       0.0       0.0      19.7      79.8
13 C  px              0.1       0.0       0.0       0.0       0.0       0.0
14 C  px              0.0       0.0       0.0       0.1       0.0       0.0
16 N  px              0.1       0.0       0.1       0.0       0.0       0.0
16 N  py              0.1       0.0       0.0       0.0       0.0       0.0
17 C  s               0.0       0.0      99.6       0.0       0.0       0.0
18 C  s               0.0      99.6       0.0       0.0       0.0       0.0
19 O  px              0.0       0.1       0.0       0.0       0.0       0.0

                     12        13        14        15        16        17   
                  -9.91158  -9.91124  -9.90918  -9.90896  -9.90825  -9.90517
                   2.00000   2.00000   2.00000   2.00000   2.00000   2.00000
                  --------  --------  --------  --------  --------  --------
 0 C  s               0.0       0.0       0.0       2.6      96.8       0.2
 0 C  py              0.0       0.0       0.0       0.1       0.0       0.1
 1 C  s               0.0       0.0       0.0      96.9       2.6       0.0
 1 C  py              0.0       0.0       0.0       0.0       0.1       0.0
 2 C  s               0.0       0.0       0.0       0.1       0.0       0.6
 2 C  px              0.0       0.0       0.0       0.1       0.0       0.0
 3 C  s               0.2       0.0       0.0       0.0       0.0       0.0
 3 C  py              0.1       0.0       0.0       0.0       0.0       0.0
 4 C  s              99.2       0.0       0.0       0.0       0.0       0.1
 4 C  px              0.0       0.0       0.0       0.0       0.0       0.1
 5 C  s               0.1       0.0       0.0       0.0       0.2      98.7
 5 C  px              0.1       0.0       0.0       0.0       0.0       0.0
 5 C  py              0.0       0.0       0.0       0.0       0.1       0.0
 9 C  px              0.0       0.1       0.0       0.0       0.0       0.0
10 C  s               0.0      98.9       0.6       0.0       0.0       0.0
10 C  py              0.0       0.0       0.1       0.0       0.0       0.0
11 C  s               0.0       0.6      98.9       0.0       0.0       0.0
11 C  py              0.0       0.1       0.0       0.0       0.0       0.0
12 C  py              0.0       0.0       0.1       0.0       0.0       0.0

                     18        19        20        21        22        23   
                  -9.90438  -9.89614  -0.94190  -0.93659  -0.93568  -0.87571
                   2.00000   2.00000   2.00000   2.00000   2.00000   2.00000
                  --------  --------  --------  --------  --------  --------
 1 C  s               0.1       0.0       0.0       0.0       0.0       0.0
 1 C  px              0.1       0.0       0.0       0.0       0.0       0.0
 2 C  s              98.8       0.0       0.2       0.0       0.0       0.0
 2 C  px              0.0       0.0       0.3       0.0       0.0       0.0
 2 C  py              0.0       0.0       0.1       0.0       0.0       0.0
 3 C  s               0.0       0.0       1.6       0.0       0.0       0.1
 3 C  px              0.0       0.0       1.7       0.0       0.2       0.0
 3 C  py              0.1       0.0       0.1       0.0       0.2       0.0
 4 C  s               0.0       0.0       0.4       0.1       1.3       0.0
 4 C  px              0.0       0.0       0.1       0.0       0.1       0.0
 4 C  py              0.0       0.0       0.0       0.0       2.0       0.0
 5 C  s               0.6       0.0       0.0       0.0       0.2       0.0
 5 C  px              0.0       0.0       0.0       0.0       0.2       0.0
 6 C  s               0.0       0.0       1.1       0.5      18.2       0.0
 6 C  pz              0.0       0.0       0.0       0.0       0.1       0.0
 6 C  px              0.0       0.0       0.1       0.1       2.9       0.0
 6 C  py              0.0       0.0       0.2       0.2       8.5       0.0
 6 C  dz2             0.0       0.0       0.0       0.0       0.5       0.0
 6 C  dx2y2           0.0       0.0       0.0       0.0       0.3       0.0
 6 C  dxy             0.0       0.0       0.0       0.0       0.8       0.0
 7 O  s               0.0       0.0       1.9       1.2      46.9       0.0
 7 O  px              0.0       0.0       0.1       0.0       1.5       0.0
 7 O  py              0.0       0.0       0.2       0.1       4.5       0.0
 7 O  dxy             0.0       0.0       0.0       0.0       0.1       0.0
 8 C  s               0.0       0.0       0.4       0.0       1.3       0.3
 8 C  px              0.0       0.0       0.0       0.0       1.9       0.2
 8 C  py              0.0       0.1       0.1       0.0       0.2       0.0
 9 C  s               0.0      99.6       0.1       0.0       0.2       0.2
 9 C  px              0.0       0.0       0.0       0.0       0.3       0.0
10 C  s               0.0       0.0       0.0       0.0       0.0       0.4
10 C  px              0.0       0.1       0.0       0.0       0.0       0.0
10 C  py              0.0       0.0       0.0       0.0       0.0       0.3
11 C  s               0.0       0.0       0.1       0.0       0.0       2.4
11 C  px              0.0       0.0       0.0       0.0       0.0       0.2
11 C  py              0.0       0.0       0.1       0.0       0.0       1.6
12 C  s               0.0       0.0       0.9       0.0       0.0      14.6
12 C  pz              0.0       0.0       0.0       0.0       0.0       0.1
12 C  px              0.0       0.0       0.1       0.0       0.0       2.0
12 C  py              0.0       0.0       0.3       0.0       0.0       3.6
12 C  dz2             0.0       0.0       0.0       0.0       0.0       0.3
12 C  dxy             0.0       0.0       0.0       0.0       0.0       0.2
13 C  s               0.0       0.0       2.0       0.0       0.0       1.5
13 C  px              0.0       0.0       0.1       0.0       0.0       2.1
13 C  py              0.0       0.0       1.7       0.0       0.3       0.0
14 C  s               0.0       0.0      17.8       0.2       0.7       0.3
14 C  pz              0.0       0.0       0.1       0.0       0.0       0.0
14 C  px              0.0       0.0       2.4       0.0       0.2       0.1
14 C  py              0.0       0.0       7.7       0.1       0.7       1.3
14 C  dz2             0.0       0.0       0.5       0.0       0.0       0.0
14 C  dx2y2           0.0       0.0       0.3       0.0       0.0       0.0
14 C  dxy             0.0       0.0       0.6       0.0       0.0       0.1
15 O  s               0.0       0.0      45.7       0.5       2.6       2.3
15 O  px              0.0       0.0       0.9       0.0       0.0       0.2
15 O  py              0.0       0.0       4.6       0.0       0.2       0.1
16 N  s               0.0       0.0       1.2       0.2       0.0      38.9
16 N  pz              0.0       0.0       0.0       0.0       0.0       0.1
16 N  py              0.0       0.0       0.0       0.0       0.0       0.9
16 N  dz2             0.0       0.0       0.0       0.0       0.0       0.2
17 C  s               0.0       0.0       0.2       1.1       0.0       7.7
17 C  pz              0.0       0.0       0.0       0.7       0.0       0.0
17 C  px              0.0       0.0       0.1       0.4       0.0       5.5
17 C  dx2y2           0.0       0.0       0.0       0.0       0.0       0.2
18 C  s               0.0       0.0       0.2      10.5       0.2       0.2
18 C  pz              0.0       0.0       0.0       0.1       0.0       0.6
18 C  px              0.0       0.0       0.1       8.0       0.2       1.0
18 C  py              0.0       0.0       0.0       0.2       0.0       0.0
18 C  dz2             0.0       0.0       0.0       0.2       0.0       0.0
18 C  dx2y2           0.0       0.0       0.0       0.6       0.0       0.0
19 O  s               0.0       0.0       0.7      56.6       1.0       0.8
19 O  pz              0.0       0.0       0.0       0.5       0.0       0.0
19 O  px              0.0       0.0       0.0       0.9       0.0       0.0
19 O  py              0.0       0.0       0.0       2.0       0.0       0.0
22 H  s               0.1       0.0       0.2       0.0       0.0       0.0
23 H  s               0.0       0.0       0.0       0.0       0.1       0.0
24 H  s               0.0       0.1       0.0       0.0       0.2       0.0
26 H  s               0.0       0.0       0.0       0.0       0.0       0.5
27 H  s               0.0       0.0       1.5       0.0       0.1       5.6
28 H  s               0.0       0.0       0.0       0.2       0.0       1.0
29 H  s               0.0       0.0       0.0       0.2       0.0       1.1
30 H  s               0.0       0.0       0.0       1.2       0.0       0.1
31 H  s               0.0       0.0       0.0       1.2       0.0       0.1
32 H  s               0.0       0.0       0.2      11.6       0.2       0.2

                     24        25        26        27        28        29   
                  -0.79748  -0.78319  -0.72613  -0.70391  -0.68830  -0.68470
                   2.00000   2.00000   2.00000   2.00000   2.00000   2.00000
                  --------  --------  --------  --------  --------  --------
 0 C  s               6.6       3.5       6.8       0.4       4.8       6.1
 0 C  px              1.7       0.7       0.4       0.0       0.0       0.0
 0 C  py              0.0       0.0       0.3       0.0       5.4       1.8
 0 C  dxy             0.0       0.0       0.0       0.0       0.2       0.1
 1 C  s               6.7       3.4       6.8       0.3       3.1       8.4
 1 C  px              0.5       0.1       0.1       0.0       4.9       0.4
 1 C  py              1.2       0.6       0.6       0.0       1.3       0.3
 1 C  dx2y2           0.0       0.0       0.0       0.0       0.2       0.0
 2 C  s               7.8       2.9       1.0       0.0      16.9       0.2
 2 C  px              0.3       0.3       2.2       0.2       0.1       3.5
 2 C  py              1.8       0.4       0.3       0.0       0.2       1.0
 2 C  dz2             0.1       0.0       0.0       0.0       0.1       0.0
 2 C  dx2y2           0.0       0.0       0.1       0.0       0.0       0.1
 3 C  s              11.8       1.6       2.9       0.2       6.7       5.0
 3 C  px              1.1       1.3       1.1       0.0       0.1       0.1
 3 C  py              0.2       0.1       2.4       0.0       6.5       1.0
 3 C  dz2             0.1       0.0       0.0       0.0       0.1       0.0
 3 C  dxy             0.0       0.0       0.0       0.0       0.2       0.1
 4 C  s              11.6       1.8       2.8       0.3       4.9       7.1
 4 C  pz              0.0       0.0       0.0       0.0       0.1       0.0
 4 C  px              0.0       0.7       3.3       0.2       4.6       0.1
 4 C  py              1.5       0.6       0.0       0.0       2.3       0.3
 4 C  dz2             0.1       0.0       0.0       0.0       0.0       0.1
 4 C  dx2y2           0.0       0.0       0.0       0.0       0.2       0.0
 5 C  s               7.6       3.1       1.0       0.0      16.9       0.2
 5 C  px              0.8       0.1       1.3       0.1       0.1       3.2
 5 C  py              1.2       0.6       1.2       0.1       0.1       1.3
 5 C  dz2             0.1       0.0       0.0       0.0       0.1       0.0
 5 C  dx2y2           0.0       0.0       0.1       0.0       0.0       0.1
 6 C  s               1.1       0.1       2.1       0.4       0.8       0.0
 6 C  px              0.4       2.6       1.0       0.8       0.1       4.3
 6 C  py              4.0       0.1       3.3       0.3       2.2       1.4
 6 C  dx2y2           0.0       0.0       0.0       0.0       0.0       0.1
 6 C  dxy             0.1       0.0       0.0       0.0       0.1       0.0
 7 O  s               1.8       0.2       1.0       0.5       1.1       0.0
 7 O  px              0.0       0.0       0.0       0.0       0.0       0.2
 7 O  py              0.1       0.0       0.1       0.0       0.1       0.1
 8 C  s               4.1       9.3       2.8       2.1       0.3       8.4
 8 C  px              0.1       1.8       1.0       0.0       0.1       0.2
 8 C  py              0.3       0.0       2.9       2.5       0.0       0.0
 8 C  dz2             0.0       0.1       0.0       0.0       0.0       0.1
 9 C  s               1.9       9.1       1.3       7.0       0.1       1.8
 9 C  px              0.0       0.5       2.7       0.1       0.0       2.7
 9 C  py              0.5       1.5       0.3       0.1       0.0       1.2
 9 C  dz2             0.0       0.1       0.0       0.1       0.0       0.0
10 C  s               1.4       8.7       8.8       4.0       0.0       3.5
10 C  px              0.1       0.5       0.1       1.1       0.0       2.5
10 C  py              0.2       1.3       0.8       0.1       0.0       0.7
10 C  dz2             0.0       0.1       0.1       0.0       0.0       0.0
[...]
10 C  s               0.0       0.0       0.3       0.1       0.1       0.0
10 C  dz2             0.0       0.0       0.1       0.0       0.0       0.0
10 C  dx2y2           0.0       0.0       0.7       0.3       0.6       0.0
10 C  dxy             0.0       0.1       2.8       0.4       1.0       0.0
11 C  s               0.0       0.0       0.3       0.0       0.2       0.0
11 C  py              0.0       0.1       0.1       0.0       0.0       0.0
11 C  dz2             0.0       0.0       0.1       0.0       0.1       0.0
11 C  dx2y2           0.1       0.1       4.0       0.5       1.8       0.0
11 C  dxy             0.0       0.1       0.4       0.0       0.0       0.1
12 C  s               0.0       0.1       0.0       0.0       0.0       0.0
12 C  px              0.1       0.0       0.4       0.0       0.0       0.1
12 C  py              0.0       0.1       0.2       0.1       0.1       0.0
12 C  dyz             0.0       0.0       0.2       0.0       0.1       0.0
12 C  dx2y2           0.1       0.1       3.4       0.3       0.0       0.7
12 C  dxy             0.4       1.4       4.0       0.6       4.6       0.1
13 C  s               0.1       0.1       0.0       0.0       0.1       0.0
13 C  px              0.1       0.0       0.2       0.0       0.0       0.0
13 C  py              0.0       0.1       0.1       0.2       0.4       0.2
13 C  dxz             0.0       0.0       0.1       0.0       0.0       0.0
13 C  dx2y2           0.0       0.4       5.6       0.5       0.1       3.0
13 C  dxy             1.1       1.7       1.3       0.8       6.8       0.4
14 C  s               0.0       0.0       1.5       2.2       0.5       1.9
14 C  px              0.1       0.1       0.0       0.3       0.4       0.7
14 C  py              0.1       0.1       0.1       2.3       0.1       2.1
14 C  dz2             0.0       0.0       0.3       0.4       0.2       0.3
14 C  dxz             0.1       0.1       0.0       0.1       0.1       0.0
14 C  dyz             0.0       0.0       0.0       0.1       0.0       0.2
14 C  dx2y2           4.2       4.9       0.2       0.0       6.8       3.4
14 C  dxy             1.9       0.8       1.0       4.0       1.2       3.8
15 O  s               0.0       0.2       0.7       2.7       0.3       2.9
15 O  px              0.2       0.1       0.2       0.2       0.5       0.6
15 O  py              0.1       0.2       0.2       1.6       0.0       1.6
15 O  dz2             0.1       0.3       2.1       6.0       0.6       5.4
15 O  dxz             0.1       0.1       0.1       0.1       0.3       0.2
15 O  dyz             0.0       0.0       0.1       0.6       0.1       0.7
15 O  dx2y2           9.1       8.2       0.6      13.1       2.2       5.2
15 O  dxy             2.3       1.7       2.6       8.6       9.3      16.0
16 N  s               0.0       0.0       0.3       0.1       0.1       0.0
16 N  px              0.0       0.2       0.1       0.1       0.1       0.0
16 N  py              0.0       0.2       0.3       0.0       0.3       0.0
16 N  dz2             0.0       0.0       0.2       0.0       0.0       0.0
16 N  dxz             0.3       0.2       0.1       0.0       0.0       0.0
16 N  dyz             0.0       0.1       0.1       0.0       0.1       0.0
16 N  dx2y2           0.1       1.4       0.0       0.0       0.8       0.2
16 N  dxy             0.0       0.3       3.1       0.3       0.5       0.0
17 C  px              0.0       0.2       0.0       0.0       0.0       0.0
17 C  dxz             0.4       0.3       0.0       0.0       0.0       0.0
17 C  dx2y2           0.0       0.1       0.0       0.0       0.0       0.0
17 C  dxy             0.0       0.0       0.1       0.0       0.0       0.0
18 C  s               1.6       1.2       0.0       0.0       0.0       0.0
18 C  px              2.1       1.6       0.0       0.0       0.0       0.0
18 C  dz2             1.9       1.4       0.0       0.0       0.0       0.0
18 C  dx2y2           3.9       2.9       0.0       0.0       0.0       0.0
18 C  dxy             0.8       0.6       0.0       0.0       0.0       0.0
19 O  s               2.2       1.8       0.0       0.0       0.0       0.0
19 O  px              2.5       1.9       0.0       0.0       0.0       0.0
19 O  dz2             8.9       6.6       0.0       0.0       0.0       0.0
19 O  dyz             0.2       0.1       0.0       0.0       0.0       0.0
19 O  dx2y2          23.9      18.0       0.1       0.0       0.0       0.0
19 O  dxy             6.5       4.5       0.0       0.0       0.0       0.0
20 H  s               0.0       0.0       0.2       0.0       0.0       0.0
21 H  s               0.0       0.0       0.2       0.0       0.0       0.0
22 H  s               0.0       0.0       0.2       0.0       0.1       0.0
23 H  s               0.0       0.0       0.2       0.0       0.1       0.0
24 H  s               0.0       0.0       0.1       0.0       0.1       0.0
25 H  s               0.0       0.0       0.1       0.0       0.1       0.0
26 H  s               0.0       0.0       0.2       0.0       0.1       0.0
27 H  s               0.0       0.0       0.1       0.0       0.0       0.1
32 H  s               0.4       0.3       0.0       0.0       0.0       0.0



                      *****************************
                      * MAYER POPULATION ANALYSIS *
                      *****************************

  NA   - Mulliken gross atomic population
  ZA   - Total nuclear charge
  QA   - Mulliken gross atomic charge
  VA   - Mayer's total valence
  BVA  - Mayer's bonded valence
  FA   - Mayer's free valence

  ATOM       NA         ZA         QA         VA         BVA        FA
  0 C      6.0208     6.0000    -0.0208     3.7356     3.7356     0.0000
  1 C      6.0164     6.0000    -0.0164     3.7347     3.7347     0.0000
  2 C      6.1334     6.0000    -0.1334     3.8061     3.8061    -0.0000
  3 C      5.9490     6.0000     0.0510     3.7459     3.7459    -0.0000
  4 C      5.9620     6.0000     0.0380     3.7096     3.7096     0.0000
  5 C      6.1257     6.0000    -0.1257     3.7979     3.7979     0.0000
  6 C      5.9146     6.0000     0.0854     4.0458     4.0458    -0.0000
  7 O      8.1501     8.0000    -0.1501     2.3909     2.3909    -0.0000
  8 C      5.9812     6.0000     0.0188     3.7659     3.7659    -0.0000
  9 C      6.1394     6.0000    -0.1394     3.7732     3.7732    -0.0000
 10 C      6.0082     6.0000    -0.0082     3.7110     3.7110    -0.0000
 11 C      6.1554     6.0000    -0.1554     3.7807     3.7807    -0.0000
 12 C      5.9191     6.0000     0.0809     4.0293     4.0293    -0.0000
 13 C      5.9496     6.0000     0.0504     3.5769     3.5769    -0.0000
 14 C      5.9273     6.0000     0.0727     4.0178     4.0178     0.0000
 15 O      8.2188     8.0000    -0.2188     2.3345     2.3345     0.0000
 16 N      7.2264     7.0000    -0.2264     3.3132     3.3132     0.0000
 17 C      6.1017     6.0000    -0.1017     4.0355     4.0355     0.0000
 18 C      6.0000     6.0000     0.0000     4.0303     4.0303    -0.0000
 19 O      8.4252     8.0000    -0.4252     2.0144     2.0144    -0.0000
 20 H      0.9372     1.0000     0.0628     0.9507     0.9507     0.0000
 21 H      0.9374     1.0000     0.0626     0.9507     0.9507     0.0000
 22 H      0.9406     1.0000     0.0594     0.9836     0.9836    -0.0000
 23 H      0.9415     1.0000     0.0585     0.9838     0.9838     0.0000
 24 H      0.9443     1.0000     0.0557     0.9869     0.9869    -0.0000
 25 H      0.9414     1.0000     0.0586     0.9507     0.9507     0.0000
 26 H      0.9716     1.0000     0.0284     0.9688     0.9688     0.0000
 27 H      0.7527     1.0000     0.2473     0.9662     0.9662     0.0000
 28 H      0.8922     1.0000     0.1078     0.9628     0.9628     0.0000
 29 H      0.9060     1.0000     0.0940     0.9601     0.9601     0.0000
 30 H      0.9078     1.0000     0.0922     0.9555     0.9555    -0.0000
 31 H      0.9011     1.0000     0.0989     0.9582     0.9582    -0.0000
 32 H      0.7020     1.0000     0.2980     0.8804     0.8804     0.0000

  Mayer bond orders larger than 0.100000
B(  0-C ,  1-C ) :   1.3270 B(  0-C ,  5-C ) :   1.3364 B(  0-C , 20-H ) :   0.9668 
B(  1-C ,  2-C ) :   1.3357 B(  1-C , 21-H ) :   0.9665 B(  2-C ,  3-C ) :   1.3813 
B(  2-C , 22-H ) :   0.9544 B(  3-C ,  4-C ) :   1.3349 B(  3-C , 14-C ) :   0.9800 
B(  4-C ,  5-C ) :   1.3782 B(  4-C ,  6-C ) :   0.9569 B(  5-C , 23-H ) :   0.9569 
B(  6-C ,  7-O ) :   2.1560 B(  6-C ,  8-C ) :   0.9487 B(  8-C ,  9-C ) :   1.4280 
B(  8-C , 13-C ) :   1.3020 B(  9-C , 10-C ) :   1.2313 B(  9-C , 24-H ) :   0.9566 
B( 10-C , 11-C ) :   1.3879 B( 10-C , 25-H ) :   0.9657 B( 11-C , 12-C ) :   1.2422 
B( 11-C , 26-H ) :   0.9509 B( 12-C , 13-C ) :   1.2159 B( 12-C , 16-N ) :   1.3836 
B( 13-C , 14-C ) :   1.0248 B( 14-C , 15-O ) :   1.9611 B( 15-O , 27-H ) :   0.1452 
B( 16-N , 17-C ) :   1.0260 B( 16-N , 27-H ) :   0.7624 B( 17-C , 18-C ) :   1.0829 
B( 17-C , 28-H ) :   0.9171 B( 17-C , 29-H ) :   0.9045 B( 18-C , 19-O ) :   1.0763 
B( 18-C , 30-H ) :   0.9243 B( 18-C , 31-H ) :   0.9239 B( 19-O , 32-H ) :   0.8529 


-------
TIMINGS
-------

Total SCF time: 0 days 0 hours 0 min 28 sec 

Total time                  ....      28.347 sec
Sum of individual times     ....      27.824 sec  ( 98.2%)

SCF preparation             ....       0.268 sec  (  0.9%)
Fock matrix formation       ....      26.112 sec  ( 92.1%)
  Startup                   ....       0.073 sec  (  0.3% of F)
  Split-RI-J                ....      14.331 sec  ( 54.9% of F)
  XC integration            ....      11.042 sec  ( 42.3% of F)
    Basis function eval.    ....       4.263 sec  ( 38.6% of XC)
    Density eval.           ....       2.195 sec  ( 19.9% of XC)
    XC-Functional eval.     ....       0.714 sec  (  6.5% of XC)
    XC-Potential eval.      ....       2.815 sec  ( 25.5% of XC)
Diagonalization             ....       0.000 sec  (  0.0%)
Density matrix formation    ....       0.267 sec  (  0.9%)
Total Energy calculation    ....       0.042 sec  (  0.1%)
Population analysis         ....       0.226 sec  (  0.8%)
Orbital Transformation      ....       0.093 sec  (  0.3%)
Orbital Orthonormalization  ....       0.000 sec  (  0.0%)
DIIS solution               ....       0.539 sec  (  1.9%)
  MO trafo                  ....       0.000 sec  (  0.0 % of DIIS)
  Orb grad                  ....       0.000 sec  (  0.0 % of DIIS)
  Energy W gradient         ....       0.000 sec  (  0.0 % of DIIS)
  DIIS error                ....       0.024 sec  (  4.5 % of DIIS)
  DIIS work                 ....       0.438 sec  ( 81.2 % of DIIS)
  Form Q                    ....       0.000 sec  (  0.0 % of DIIS)
  Form QpQm                 ....       0.000 sec  (  0.0 % of DIIS)
  Exp/Cayley                ....       0.000 sec  (  0.0 % of DIIS)
  Orb update                ....       0.000 sec  (  0.0 % of DIIS)
  Wake-sleep                ....       0.027 sec  (  5.0 % of DIIS)
SOSCF solution              ....       0.277 sec  (  1.0%)
  MO trafo                  ....       0.106 sec  ( 38.3 % of SOSCF)
  Orb grad                  ....       0.003 sec  (  1.1 % of SOSCF)
  Rot update                ....       0.088 sec  ( 31.7 % of SOSCF)
  Step                      ....       0.080 sec  ( 28.7 % of SOSCF)
Finished LeanSCF after  28.5 sec

Maximum memory used throughout the entire LEANSCF-calculation: 29.7 MB


-------------------------------------------------------------------------------
                          DFT DISPERSION CORRECTION                            
                                                                               
                                DFTD4 V3.4.0                                   
-------------------------------------------------------------------------------
The PBE functional is recognized
Active option DFTDOPT                   ...         5   

-------------------------   ----------------
Dispersion correction           -0.046362461
-------------------------   ----------------

------------------   -----------------
gCP correction             0.143209906
------------------   -----------------

-------------------------   --------------------
FINAL SINGLE POINT ENERGY      -896.122325231299
-------------------------   --------------------


------------------------------------------------------------------------------
                              ORCA PROPERTY CALCULATIONS
------------------------------------------------------------------------------

GBWName                                 ... sp.gbw
Number of atoms                         ...     33
Number of basis functions               ...    306
Max core memory                         ...   1024 MB

Electric properties:
Dipole moment                           ... YES
Quadrupole moment                       ...  NO
Static polarizability (Dipole/Dipole)   ...  NO
Static polarizability (Dipole/Quad.)    ...  NO
Static polarizability (Quad./Quad.)     ...  NO
Static polarizability (Velocity)        ...  NO

Atomic electric properties:
Dipole moment                           ...  NO
Quadrupole moment                       ...  NO
Static polarizability                   ...  NO

Choice of electric origin               ... Center of mass
Position of electric origin             ...     0.000005    -0.000002     0.000003

General magnetic properties:
Magnetizability                         ...  NO

EPR properties:
g-Tensor (aka g-matrix)                 ...  NO
Zero-Field splitting spin-orbit         ...  NO
Zero-field splitting spin-spin          ...  NO
Hyperfine couplings                     ...  NO (   0 nuclei)
Quadrupole couplings                    ...  NO (   0 nuclei)
Contact density                         ...  NO (   0 nuclei)

NMR properties:
Chemical shifts                         ...  NO (   0 nuclei)
Spin-rotation constants                 ...  NO (   0 nuclei)
Spin-spin couplings                     ...  NO (   0 nuclei,    0 pairs)

Choice of magnetic origin               ... GIAO
Position of magnetic origin             ...     0.000000     0.000000     0.000000

Properties with geometric perturbations:
SCF Hessian                             ...  NO
IR spectrum                             ...  NO
VCD spectrum                            ...  NO
X-ray spectroscopy properties:
SCF XES/XAS/RIXS spectra                ...  NO


-------------
DIPOLE MOMENT
-------------

Method             : SCF
Type of density    : Electron Density
Multiplicity       :   1
Irrep              :   0
Energy             :  -896.2191726759072026 Eh
Relativity type    : 
Basis              : AO
                                X                 Y                 Z
Electronic contribution:    -11.347371148       2.516202965       0.844446711
Nuclear contribution   :     12.171353270      -2.572473492      -0.547213392
                        -----------------------------------------
Total Dipole Moment    :      0.823982122      -0.056270527       0.297233319
                        -----------------------------------------
Magnitude (a.u.)       :      0.877758825
Magnitude (Debye)      :      2.231085626



--------------------
Rotational spectrum 
--------------------
 
Rotational constants in cm-1:             0.022491             0.006976             0.005475 
Rotational constants in MHz :           674.253730           209.140562           164.145044 

Dipole components along the rotational axes: 
x,y,z [a.u.] :     0.824364    -0.048602     0.297527 
x,y,z [Debye]:     2.095367    -0.123537     0.756253 

 

Dipole moment calculation done in   0.0 sec 

Maximum memory used throughout the entire PROP-calculation: 20.6 MB

--------------------------------
SUGGESTED CITATIONS FOR THIS RUN
--------------------------------

Below you find a list of papers that are relevant to this ORCA run
We neither can nor want to force you to cite these papers, but we appreciate if you do
You receive ORCA, which is the product of decades of hard work by many enthusiastic individuals, for free
The only thing we kindly ask in return is that you cite our papers,
We deeply appreciate it, if you show your appreciation for ORCA by not just citing the generic ORCA reference.

Please note that relegating all ORCA citations to the supporting information does *not* help us.
SI sections are not indexed - citations you put there will not count into any citation statistics
But we need these citations in order to attract the funding resources that allow us to do what we are doing

Therefore, if you are a happy ORCA user, please consider citing a few of the papers listed below in the main body of your paper

In addition to the list printed below, the program has created the file sp.bibtex that contains the list in bibtex format
You can import this file easily into all common literature databanks and citation aid programs


List of essential papers. We consider these as the minimum necessary citations

  1. Neese,F.
     Software update: the ORCA program system, version 5.0
     WIRES Comput. Molec. Sci., 2022 12(1)e1606
     doi.org/10.1002/wcms.1606

List of papers to cite with high priority. The work reported in these papers was absolutely
necessary for this run to complete.
Our perspective: the developers of density functionals and basis sets usually get cited in chemistry papers
Good! But without the algorithms to do something with them, the functionals or basis sets would not do anything.
Hence, in our opinion, the algorithm design and method developments papers are equally worthy of getting cited

  1. Neese,F.
     An improvement of the resolution of the identity approximation for the formation of the Coulomb matrix
     J. Comp. Chem., 2003 24(14)1740-1747
     doi.org/10.1002/jcc.10318
  2. Neese,F.
     The SHARK Integral Generation and Digestion System
     J. Comp. Chem., 2022  1-16
     doi.org/10.1002/jcc.26942
  3. Caldeweyher,E.; Bannwarth,C.; Grimme,S.
     Extension of the D3 dispersion coefficient model
     J. Chem. Phys., 2017 147 034112-XXXX
     doi.org/10.1063/1.4993215
  4. Caldeweyher,E.; Ehlert,S.; Hansen,A.; Neugebauer,H.; Spicher,S.; Bannwarth,C.; Grimme,S.
     A generally applicable atomic-charge dependent London dispersion correction
     J. Chem. Phys., 2019 150 154122-XXXX
     doi.org/10.1063/1.5090222
  5. Caldeweyher,E.; Mewes,J.; Ehlert,S.; Grimme,S.
     Extension and evaluation of the D4 London-dispersion model for periodic systems
     Phys. Chem. Chem. Phys., 2020 22(16)8499-8512
     doi.org/10.1039/D0CP00502A

List of suggested additional citations. These are papers that are important in the 'surrounding' of 
of this run, or papers that preceded the highly important papers. If you like your results we are grateful for a citation.

  1. Neese,F.
     The ORCA program system
     WIRES Comput. Molec. Sci., 2012 2(1)73-78
     doi.org/10.1002/wcms.81
  2. Neese,F.
     Software update: the ORCA program system, version 4.0
     WIRES Comput. Molec. Sci., 2018 8(1)1-6
     doi.org/10.1002/wcms.1327
  3. Neese,F.; Wennmohs,F.; Becker,U.; Riplinger,C.
     The ORCA quantum chemistry program package
     J. Chem. Phys., 2020 152 Art. No. L224108
     doi.org/10.1063/5.0004608

List of optional additional citations

  1. Neese,F.
     Approximate second-order SCF convergence for spin unrestricted wavefunctions
     Chem. Phys. Lett., 2000 325(1-3)93-98
     doi.org/10.1016/s0009-2614(00)00662-x

Timings for individual modules:

Sum of individual times          ...       33.126 sec (=   0.552 min)
Startup calculation              ...        2.069 sec (=   0.034 min)   6.2 %
SCF iterations                   ...       30.926 sec (=   0.515 min)  93.4 %
Property calculations            ...        0.131 sec (=   0.002 min)   0.4 %
                             ****ORCA TERMINATED NORMALLY****
TOTAL RUN TIME: 0 days 0 hours 0 minutes 34 seconds 20 msec
