11
 energy: -18.585347298440 gnorm: 0.025458074509 xtb: 6.7.1 (edcfbbe)
C            0.04948278517213        1.47020962345098       -0.27249146334165
C           -1.33162197585680        0.99599261148382        0.12172611912040
Cl          -1.70636410706694       -0.72851317374311       -0.40974121813565
C            1.20538570097580        0.99648562786199        0.58015153309317
Cl           1.74290845640231       -0.72812755591740        0.21372770271317
H            0.24171992025206        1.30023349595406       -1.33619037805549
H            0.02426760629472        2.56191104595363       -0.13387902415544
H           -1.47137885953848        1.01124623634424        1.20451539551213
H           -2.09868278263561        1.60705145415190       -0.35462622458842
H            0.95752464867576        1.01240167257156        1.64345012576700
H            2.09053399314531        1.60760213395525        0.40191475680596
11
 energy: -18.586959723945 gnorm: 0.015206904916 xtb: 6.7.1 (edcfbbe)
C            0.04900677052811        1.50198232368191       -0.27002952782685
C           -1.32399854587771        1.00280683501282        0.12806575123173
Cl          -1.61406698478071       -0.72479342435914       -0.39402328530728
C            1.19609986304431        1.00338137126262        0.58335204672336
Cl           1.65081304929320       -0.72437364130761        0.19641314374547
H            0.23950362840590        1.29025560040579       -1.32424482610007
H            0.02676478170980        2.59143858207106       -0.14812665275589
H           -1.46562670610949        1.00435289634709        1.20738591164441
H           -2.10750831915666        1.57778456825151       -0.36219911727482
H            0.95126454979326        1.00523019590738        1.64404260928553
H            2.10152329897024        1.57842786479349        0.39792127136960
11
 energy: -18.587280015556 gnorm: 0.005944537242 xtb: 6.7.1 (edcfbbe)
C            0.04887953212220        1.51973009752775       -0.26933860786430
C           -1.32004999358860        0.99924260795398        0.12924699657643
Cl          -1.57864524245333       -0.72204355297093       -0.38604340041976
C            1.19198593124097        0.99977587002920        0.58310308193307
Cl           1.61488337184595       -0.72156833261035        0.19140123794157
H            0.23850426167802        1.29202469493152       -1.31866484008893
H            0.02769701775704        2.60589728716711       -0.15327701709399
H           -1.45992132439816        1.00526326635680        1.20698058248499
H           -2.10944337057474        1.56073632011602       -0.36373340080348
H            0.94604639941496        1.00605479787222        1.64167243009806
H            2.10383880277593        1.56138011569358        0.39721026197150
11
 energy: -18.587331601135 gnorm: 0.002576588207 xtb: 6.7.1 (edcfbbe)
C            0.04888293730826        1.51795238660703       -0.26934438875090
C           -1.32205313926619        0.99649917095635        0.12807046737243
Cl          -1.57629543513378       -0.71988061218956       -0.38537939816593
C            1.19428443271272        0.99701147552226        0.58270015229006
Cl           1.61247413167298       -0.71939087779458        0.19113897072891
H            0.23855056956613        1.29394728538101       -1.31888854833081
H            0.02709489941513        2.60245053975650       -0.14994481783527
H           -1.46092181630571        1.00812840812159        1.20630766454164
H           -2.10990144137574        1.56011812453631       -0.36433450227188
H            0.94718811377477        1.00887142890343        1.64138069325494
H            2.10447213345169        1.56078584226658        0.39685103190198
11
 energy: -18.587345881843 gnorm: 0.000770193753 xtb: 6.7.1 (edcfbbe)
C            0.04895571977093        1.51651144817998       -0.26974415714324
C           -1.32296204532713        0.99355551798324        0.12643654434205
Cl          -1.57907410992325       -0.72013785924329       -0.38387577675112
C            1.19570626344345        0.99404862302355        0.58148905640411
Cl           1.61459054524860       -0.71963169864281        0.19344934565423
H            0.23885337655472        1.29790767650474       -1.32056546981418
H            0.02620164645706        2.60055851082598       -0.14495923209726
H           -1.46176710753370        1.01011225801783        1.20542961337723
H           -2.10894190481729        1.56103982936772       -0.36546112055009
H            0.94825536897926        1.01080575213422        1.64085280311603
H            2.10395763296761        1.56172311391577        0.39550571819742
11
 energy: -18.587347240835 gnorm: 0.000346657268 xtb: 6.7.1 (edcfbbe)
C            0.04886323198117        1.51585109344195       -0.26922898580966
C           -1.32325288803713        0.99296782510848        0.12592500501429
Cl          -1.57789674028523       -0.72143149095214       -0.38286770267400
C            1.19615148668584        0.99344987946080        0.58111324163729
Cl           1.61317267433821       -0.72091485137408        0.19392457702006
H            0.23892997802843        1.30029835498707       -1.32099167124530
H            0.02557546337920        2.59999136633238       -0.14145239472176
H           -1.46337262582021        1.01153620443196        1.20501954631563
H           -2.10874992412666        1.56093292983579       -0.36748991699518
H            0.94987981113506        1.01218482842220        1.64103072663092
H            2.10447491854156        1.56162703237251        0.39357489956291
11
 energy: -18.587347804967 gnorm: 0.000275752070 xtb: 6.7.1 (edcfbbe)
C            0.04877953778218        1.51636444777133       -0.26876666104125
C           -1.32314462792758        0.99289868428078        0.12565409022583
Cl          -1.57820444675904       -0.72183212072758       -0.38199758412847
C            1.19614150060553        0.99337408405768        0.58082037356015
Cl           1.61318665198518       -0.72130598101840        0.19480805717802
H            0.23889030092607        1.30193181760412       -1.32077725163337
H            0.02528254858580        2.60046117892767       -0.13982135533595
H           -1.46445581269175        1.01177275731124        1.20450367089215
H           -2.10864700676584        1.55987543381280       -0.36897061411517
H            0.95105796860773        1.01237295555045        1.64092251835332
H            2.10488877147196        1.56057991449680        0.39218208077992
11
 energy: -18.587347970671 gnorm: 0.000074425522 xtb: 6.7.1 (edcfbbe)
C            0.04871937239205        1.51678248401825       -0.26842724920165
C           -1.32311081427434        0.99296026607153        0.12560197065254
Cl          -1.57682220111771       -0.72228267064347       -0.38143807596161
C            1.19612544911134        0.99342824877592        0.58076230028140
Cl           1.61172508857450       -0.72174538276785        0.19479621861848
H            0.23883757969143        1.30286210502782       -1.32047500302846
H            0.02513164313161        2.60070008027532       -0.13897581187842
H           -1.46502018152669        1.01217755856849        1.20426239250454
H           -2.10848489963818        1.55908167917576       -0.36981279145987
H            0.95165095008038        1.01273049142671        1.64089255002428
H            2.10502339939585        1.55979831213843        0.39137082418395
11
 energy: -18.587347985636 gnorm: 0.000023906550 xtb: 6.7.1 (edcfbbe)
C            0.04871435677009        1.51669772408560       -0.26839866205039
C           -1.32321304628342        0.99290053964228        0.12553204237770
Cl          -1.57698943700809       -0.72230935969568       -0.38136170674249
C            1.19624324559924        0.99336158084642        0.58073295061537
Cl           1.61187816439731       -0.72176470864746        0.19489171399216
H            0.23884646294707        1.30309846685981       -1.32052000721483
H            0.02506688628104        2.60057432214508       -0.13860972095471
H           -1.46516578272120        1.01232750192011        1.20421583225123
H           -2.10847813364061        1.55901829709519       -0.37002072306654
H            0.95178923623950        1.01284617088884        1.64089806419863
H            2.10508343323933        1.55974263692673        0.39119754132904
