20
 energy: -27.120942423591 gnorm: 0.035236213635 xtb: 6.7.1 (edcfbbe)
C           -2.69884764372855       -1.25096509673710       -0.31457009177810
C           -2.59824937858443        0.21061102436515        0.11244937271766
C           -1.27023125148852        0.52244363815118        0.80079967582109
C           -0.09201264129643        0.40894260014357       -0.12721650968810
O           -0.11191460811752        0.68314996966523       -1.31703155807675
O            1.01890444672388       -0.00138250328948        0.51216425314509
C            2.24093810189309       -0.08128274885162       -0.29102865424119
C            3.34440381692307       -0.54398125687905        0.62474495485097
H           -2.60007385158392       -1.91655019410034        0.55003110500503
H           -3.66206318124527       -1.45781802694672       -0.79097571189065
H           -1.91072849794461       -1.51191163197364       -1.03000170783255
H           -3.40726218347144        0.44981509990188        0.81086484106480
H           -2.72223580646964        0.86909895763922       -0.75412218126062
H           -1.11167838172715       -0.12543852399061        1.66814080312806
H           -1.26194825843364        1.55761606707219        1.16983983825969
H            2.06614719029416       -0.78418224808342       -1.11105793752041
H            2.44277359656449        0.90923885655428       -0.70951277694728
H            4.27465056686156       -0.61760549078471        0.05337599763968
H            3.49988851941343        0.16478698324561        1.44324052620335
H            3.12118466132317       -1.52888634296628        1.04454958069416
20
 energy: -27.122149077720 gnorm: 0.013378505242 xtb: 6.7.1 (edcfbbe)
C           -2.69407545447097       -1.24817925767273       -0.30910141473234
C           -2.59649295171649        0.21015211485590        0.11520560084779
C           -1.26589762866003        0.51742204095968        0.80057773453717
C           -0.09124936777332        0.40967183031667       -0.13335356087044
O           -0.10945524154907        0.68020855243770       -1.31655154905296
O            1.01211184287798        0.00335586382863        0.49907402600303
C            2.23218325494048       -0.08276393175158       -0.28367324970569
C            3.34788447674582       -0.54519410806374        0.62503986345238
H           -2.59567135336296       -1.90807909952110        0.55257262421219
H           -3.65365673210310       -1.44420994579193       -0.78446830116775
H           -1.90675915186586       -1.49325734121729       -1.02240016396247
H           -3.40804918114726        0.44239621390240        0.80877904748739
H           -2.70512395134229        0.85552877502659       -0.76018064448578
H           -1.09810845388028       -0.13738468525188        1.65760344918152
H           -1.26836160079955        1.54993409318671        1.16608251139791
H            2.05467470633697       -0.78215095531865       -1.10523473637132
H            2.42950509948425        0.90642943051597       -0.70577655062487
H            4.27267485588530       -0.61783177773704        0.05552869564543
H            3.49052670789784        0.16080936125633        1.44013147577851
H            3.11498534040830       -1.52115804182534        1.04482896172425
20
 energy: -27.122374472755 gnorm: 0.004213011945 xtb: 6.7.1 (edcfbbe)
C           -2.68919022371124       -1.24922913447358       -0.30658669124400
C           -2.59101956397663        0.21033187684205        0.11670708210303
C           -1.26049036344152        0.51597935420089        0.80449693687581
C           -0.08992924434375        0.41126069483044       -0.13728820713826
O           -0.10933506673294        0.68193151997693       -1.31902182616996
O            1.00814709457531        0.00624563841852        0.49073300506119
C            2.22225641467158       -0.08260647017825       -0.28276211914168
C            3.34084651911378       -0.54521967014552        0.62806390131018
H           -2.59078907500484       -1.90599004618588        0.55386044603741
H           -3.64720277402449       -1.44122489610699       -0.78110566417229
H           -1.90216114978541       -1.48838487090848       -1.01823501901707
H           -3.40319187267179        0.44525677383579        0.80541390219214
H           -2.68725959475791        0.84974565501197       -0.76273489912683
H           -1.08594575546977       -0.14728893956053        1.65162730126426
H           -1.26768764560378        1.54534225256483        1.17198913958000
H            2.04926715197097       -0.78236755287704       -1.10593025302177
H            2.42421369006608        0.90469060586829       -0.70916758329673
H            4.26061881845298       -0.61648190220280        0.05715070293118
H            3.47743057119083        0.16153388289315        1.44043807543243
H            3.10306728538831       -1.51782563966849        1.04703558883490
20
 energy: -27.122408746642 gnorm: 0.001704265344 xtb: 6.7.1 (edcfbbe)
C           -2.68618386190582       -1.25027850024672       -0.30499375453285
C           -2.58894973101011        0.21088761192090        0.11673546246226
C           -1.25890330813971        0.51574397007197        0.80655252264073
C           -0.08949566377779        0.41555959423362       -0.13848086456684
O           -0.11189010624849        0.68762031197379       -1.32066998364001
O            1.00763717539519        0.00826243197008        0.48684723738756
C            2.21870568531237       -0.08273271366221       -0.28471890867141
C            3.33598223152222       -0.54549646093632        0.62951491927674
H           -2.58738349811492       -1.90592813110351        0.55630102756136
H           -3.64415279195157       -1.44274645115362       -0.77943455862572
H           -1.89866931858216       -1.48911071590682       -1.01629093915789
H           -3.40266887877969        0.44845312328408        0.80213876371219
H           -2.68019541192343        0.84863883752522       -0.76414990144673
H           -1.08099769428272       -0.15280633576280        1.64848289820356
H           -1.26735099540038        1.54268530703104        1.17925043599200
H            2.04912170795884       -0.78380659693202       -1.10826016471049
H            2.42564509068736        0.90298285616935       -0.71396634397561
H            4.25606852911987       -0.61759933540749        0.05986444736539
H            3.46998649101951        0.16275475933880        1.44115712038134
H            3.09533956500719       -1.51738443027202        1.04880440363837
20
 energy: -27.122424662637 gnorm: 0.002027119023 xtb: 6.7.1 (edcfbbe)
C           -2.68263785056636       -1.25145000294971       -0.30211194416137
C           -2.58642458467220        0.21182100261568        0.11552971473374
C           -1.25781134295786        0.51537215014796        0.80867183387274
C           -0.09000414963248        0.42217994385062       -0.14030021617144
O           -0.11667178953170        0.70242081041002       -1.32153117763011
O            1.00783347268931        0.01111131435243        0.48070603974469
C            2.21626283951188       -0.08285255850252       -0.28922241442649
C            3.32961198447030       -0.54600291365123        0.63104814950678
H           -2.58284961316037       -1.90469205559581        0.56166794443891
H           -3.64056563422890       -1.44732957394166       -0.77639349833520
H           -1.89413050049227       -1.49213862506487       -1.01254549671276
H           -3.40309209193198        0.45351698941223        0.79594626164349
H           -2.67216891988881        0.84727100548782       -0.76759033695561
H           -1.07651673889808       -0.16175862763915        1.64305387850263
H           -1.26690556075120        1.53813302657049        1.19263307490834
H            2.05021312475487       -0.78653672722245       -1.11209436075174
H            2.42974607841607        0.90038440869707       -0.72256325120174
H            4.25279851475254       -0.62108525341359        0.06620138834264
H            3.46031996980573        0.16429247861683        1.44216035376018
H            3.08463800821729       -1.51695766004486        1.05141787618627
20
 energy: -27.122429009816 gnorm: 0.001188444682 xtb: 6.7.1 (edcfbbe)
C           -2.68254284209233       -1.25161665227256       -0.30148185197795
C           -2.58633552003255        0.21166236195278        0.11485366936673
C           -1.25811779362780        0.51516569861439        0.80831636767916
C           -0.08987270830463        0.42480135540485       -0.14014175955947
O           -0.11653499053795        0.70655378649523       -1.32074099072602
O            1.00793600102969        0.01146627528310        0.48010946228801
C            2.21699662121176       -0.08313004838454       -0.28998322118496
C            3.32949593810034       -0.54631949811810        0.63083698754813
H           -2.58288031437605       -1.90405159645836        0.56294340343243
H           -3.64033892775758       -1.44829966790473       -0.77567902789989
H           -1.89396958666472       -1.49327621707713       -1.01154909031016
H           -3.40341662201800        0.45383960452007        0.79474770722645
H           -2.67199958067047        0.84665964904170       -0.76868584499594
H           -1.07703568741461       -0.16285220993836        1.64210201974994
H           -1.26779601963679        1.53729602093179        1.19410647923066
H            2.05018051068221       -0.78700479732838       -1.11237607543449
H            2.43030589679864        0.89998316124232       -0.72323131210413
H            4.25346323392009       -0.62215724915836        0.06720943189208
H            3.46011256648964        0.16400220350333        1.44191517469583
H            3.08399504080685       -1.51702304821374        1.05141229037755
20
 energy: -27.122433057060 gnorm: 0.001146272119 xtb: 6.7.1 (edcfbbe)
C           -2.68227153374510       -1.25243027458980       -0.29901381957615
C           -2.58555462948525        0.21134443597425        0.11233186510888
C           -1.25863489136980        0.51438724593095        0.80746816015743
C           -0.08992827609649        0.43039619599037       -0.14029500138575
O           -0.11471757647203        0.72253345913703       -1.31772525318861
O            1.00740852967121        0.01095279718009        0.47798296692236
C            2.21866076819083       -0.08367246448952       -0.29203873950982
C            3.32881506990117       -0.54715734028803        0.63026679734741
H           -2.58367232957842       -1.90171715919924        0.56779493291382
H           -3.63951068193448       -1.45105045027940       -0.77323137349002
H           -1.89327788691245       -1.49749751221058       -1.00736088251688
H           -3.40389255474796        0.45605214611996        0.79007153500538
H           -2.66961554622545        0.84408189659881       -0.77320572053054
H           -1.07807452459469       -0.16729956288715        1.63851032560145
H           -1.27000112123598        1.53441016152623        1.19907764479381
H            2.05012508420791       -0.78806671977557       -1.11316763785937
H            2.43085413625682        0.89929663247062       -0.72487527306904
H            4.25457048405565       -0.62496738942063        0.06973088338177
H            3.45885328574693        0.16318790210215        1.44120949677715
H            3.08150941027335       -1.51708486775524        1.05115291241068
20
 energy: -27.122435317727 gnorm: 0.000556599380 xtb: 6.7.1 (edcfbbe)
C           -2.68202295959280       -1.25314457398108       -0.29848056076624
C           -2.58508397610807        0.21118688671931        0.11190708686109
C           -1.25839183235514        0.51456455846109        0.80782371984448
C           -0.08940538095146        0.43223401724101       -0.13994373149092
O           -0.11371058792534        0.72619749447931       -1.31710104753475
O            1.00682026706070        0.00985974254845        0.47763460866293
C            2.21785691912124       -0.08402556100510       -0.29214252565503
C            3.32821152211425       -0.54746806879581        0.63027373987887
H           -2.58430834709028       -1.90171691740815        0.56892367677308
H           -3.63904764082342       -1.45147877141433       -0.77324675934970
H           -1.89251414073237       -1.49880304533601       -1.00602062866492
H           -3.40387628707023        0.45697276712864        0.78857974131666
H           -2.66764324806295        0.84312533675133       -0.77426267456660
H           -1.07713194887232       -0.16786429491305        1.63803079875234
H           -1.27071454127349        1.53432110889057        1.19974555714800
H            2.05015010821255       -0.78808794579315       -1.11382978563161
H            2.43007222841997        0.89921201996512       -0.72463236492815
H            4.25354906871259       -0.62498321176623        0.06921419737537
H            3.45806557944275        0.16300720984971        1.44115473776202
H            3.08077041367956       -1.51740961948635        1.05105603350703
20
 energy: -27.122438723316 gnorm: 0.000594261545 xtb: 6.7.1 (edcfbbe)
C           -2.68154095481979       -1.25485561439966       -0.29676997341300
C           -2.58413321062585        0.21090368529336        0.11017552266319
C           -1.25841009297349        0.51517115393773        0.80842441247601
C           -0.08870006282917        0.43537351753501       -0.13890282934199
O           -0.11049281229152        0.73866237029132       -1.31414272900913
O            1.00495380407279        0.00496342872501        0.47681050480144
C            2.21634154104241       -0.08506185025119       -0.29228091955404
C            3.32745389647448       -0.54834064206164        0.62974741824893
H           -2.58707459965401       -1.90126631288429        0.57260792046650
H           -3.63765308459202       -1.45277682212579       -0.77361640950364
H           -1.89030219843580       -1.50312305904314       -1.00149937050007
H           -3.40425069906901        0.45958518842124        0.78398102321376
H           -2.66312750150382        0.84049826901441       -0.77787266477776
H           -1.07626277143476       -0.16846230961741        1.63720506504937
H           -1.27301112746345        1.53446319310033        1.20098073623963
H            2.05089210851298       -0.78790207454242       -1.11558357997299
H            2.42723944848160        0.89938572742805       -0.72302231767203
H            4.25205520436017       -0.62491777751822        0.06752805917699
H            3.45723608959746        0.16200400576374        1.44081403076793
H            3.08043223905656       -1.51860494493117        1.05009991993483
20
 energy: -27.122438689579 gnorm: 0.001723407074 xtb: 6.7.1 (edcfbbe)
C           -2.68105895004678       -1.25656665481824       -0.29505938605976
C           -2.58318244514363        0.21062048386742        0.10844395846528
C           -1.25842835359185        0.51577774941437        0.80902510510754
C           -0.08799474470689        0.43851301782902       -0.13786192719306
O           -0.10727503665770        0.75112724610333       -1.31118441048350
O            1.00308734108488        0.00006711490157        0.47598640093995
C            2.21482616296357       -0.08609813949728       -0.29241931345304
C            3.32669627083472       -0.54921321532748        0.62922109661898
H           -2.58984085221774       -1.90081570836043        0.57629216415993
H           -3.63625852836063       -1.45407487283725       -0.77398605965757
H           -1.88809025613924       -1.50744307275026       -0.99697811233522
H           -3.40462511106778        0.46219760971384        0.77938230511086
H           -2.65861175494469        0.83787120127749       -0.78148265498892
H           -1.07539359399720       -0.16906032432177        1.63637933134641
H           -1.27530771365342        1.53460527731009        1.20221591533126
H            2.05163410881341       -0.78771620329168       -1.11733737431436
H            2.42440666854324        0.89955943489097       -0.72141227041591
H            4.25056134000775       -0.62485234327021        0.06584192097862
H            3.45640659975217        0.16100080167778        1.44047332377384
H            3.08009406443356       -1.51980027037599        1.04914380636264
20
 energy: -27.122441575225 gnorm: 0.000780272525 xtb: 6.7.1 (edcfbbe)
C           -2.68059634985579       -1.25671809680933       -0.29455701343205
C           -2.58301285048290        0.21036227887861        0.10778261839535
C           -1.25897728448447        0.51616168730875        0.80893736117827
C           -0.08795462833237        0.44070938621265       -0.13720565439297
O           -0.10705014324578        0.75542671773083       -1.30958056706557
O            1.00281106897834       -0.00107951795218        0.47541010204836
C            2.21500028629343       -0.08681818524724       -0.29286347381529
C            3.32671532164655       -0.54967536265965        0.62873460626712
H           -2.59034420243461       -1.90016765342454        0.57746465707181
H           -3.63516116311901       -1.45505333526555       -0.77437945244095
H           -1.88688126843412       -1.50849335810448       -0.99528820740683
H           -3.40507376053709        0.46202976195957        0.77803090982766
H           -2.65842351403933        0.83711127220810       -0.78255580482645
H           -1.07650113181193       -0.16856346394767        1.63665798628351
H           -1.27667578567020        1.53495576212323        1.20255733613633
H            2.05186917889641       -0.78824747832747       -1.11783669485105
H            2.42389394014394        0.89908620024580       -0.72134480170557
H            4.25106127105160       -0.62533981820737        0.06595983226801
H            3.45648474569019        0.16034875793939        1.44011037584719
H            3.08046148565288       -1.52033642252615        1.04864970390707
20
 energy: -27.122444481044 gnorm: 0.000260049235 xtb: 6.7.1 (edcfbbe)
C           -2.67881459300807       -1.25757760999892       -0.29309085374558
C           -2.58254163514209        0.20997700061837        0.10610923810862
C           -1.26012511017360        0.51742978674031        0.80915082291712
C           -0.08806117033068        0.44405923436619       -0.13563096799684
O           -0.10513147418893        0.76813677199705       -1.30517090082795
O            1.00108532284833       -0.00624039674766        0.47419961215244
C            2.21415924185429       -0.08878791282633       -0.29346001950539
C            3.32640912195499       -0.55081389031467        0.62753264805375
H           -2.59214539694615       -1.89901950977181        0.58075211105498
H           -3.63150633352926       -1.45713973032003       -0.77608577321889
H           -1.88257792016555       -1.51162749322399       -0.99013601802217
H           -3.40614544590505        0.46250146901222        0.77424513011881
H           -2.65677257533568        0.83514613020314       -0.78551817225022
H           -1.07853670514628       -0.16665093133651        1.63772777313306
H           -1.27985086091117        1.53643327279036        1.20249374918589
H            2.05252169100310       -0.78946991333681       -1.11925222523551
H            2.42099906241794        0.89810764725152       -0.72047439760998
H            4.25106116165051       -0.62546120077976        0.06490679750206
H            3.45606040094795        0.15868371415875        1.43934565940554
H            3.08155843401113       -1.52198730634613        1.04703960607420
20
 energy: -27.122446494600 gnorm: 0.000431077052 xtb: 6.7.1 (edcfbbe)
C           -2.67593212627490       -1.25918215125050       -0.29119116117124
C           -2.58161989758419        0.20938420876325        0.10419646739010
C           -1.26118685060887        0.51961943799323        0.80980641926068
C           -0.08798983477350        0.44925092642240       -0.13372153107742
O           -0.10223202977789        0.78588313992711       -1.29984418334704
O            0.99841002653790       -0.01281661898088        0.47253363839470
C            2.21223611994301       -0.09165565820970       -0.29440941381171
C            3.32519679196148       -0.55246180292189        0.62624699624335
H           -2.59373766697822       -1.89797158208752        0.58505680694279
H           -3.62613710621649       -1.46036628243535       -0.77848571261083
H           -1.87607013397076       -1.51551583607065       -0.98331842282985
H           -3.40727466809304        0.46307857936823        0.76940057622593
H           -2.65392098518212        0.83235471877286       -0.78917948318107
H           -1.07975540835742       -0.16417801119967        1.63867864414060
H           -1.28391154485453        1.53875983568353        1.20284734047877
H            2.05264529713083       -0.79167003075539       -1.12114023802878
H            2.41687429171882        0.89627932471184       -0.72008180423319
H            4.24999409231010       -0.62553646683718        0.06354169451710
H            3.45414897883039        0.15668539308764        1.43848053038852
H            3.08190787014514       -1.52424199184608        1.04526665560256
20
 energy: -27.122448785982 gnorm: 0.000453225194 xtb: 6.7.1 (edcfbbe)
C           -2.67053200540853       -1.26110020813121       -0.28915700603167
C           -2.58062623634932        0.20871985612095        0.10252594544289
C           -1.26253610042299        0.52330281507054        0.81084156733773
C           -0.08819820894405        0.45568825541718       -0.13138317590033
O           -0.09876811834838        0.80754159674376       -1.29308334819286
O            0.99449871531469       -0.02071088575010        0.47022410480696
C            2.20894689490170       -0.09599478295430       -0.29585406463116
C            3.32285934963218       -0.55467787751549        0.62476499832191
H           -2.59354738767912       -1.89725395868420        0.58944970411036
H           -3.61726608033869       -1.46473479941919       -0.78216543926137
H           -1.86583389058847       -1.51879140355033       -0.97518289069224
H           -3.40866062612909        0.46243246364447        0.76473211953261
H           -2.65157294954964        0.82949220704887       -0.79250219215622
H           -1.08067978221796       -0.15945143157789        1.64044776357126
H           -1.28934828276624        1.54290955176141        1.20244966447087
H            2.05174715440013       -0.79607399580330       -1.12299909596700
H            2.41127509812841        0.89264757090676       -0.72107664508636
H            4.24785244222059       -0.62528202019896        0.06203776421177
H            3.45020369435804        0.15430990343811        1.43740302822186
H            3.08183153569250       -1.52727372443180        1.04321101718496
20
 energy: -27.122451285133 gnorm: 0.000395338555 xtb: 6.7.1 (edcfbbe)
C           -2.66497246195100       -1.26239663667903       -0.28827191477588
C           -2.57986360137304        0.20807677951625        0.10223657584098
C           -1.26338808199532        0.52711888325021        0.81185401824093
C           -0.08860810335792        0.46116600627009       -0.12995928888551
O           -0.09685181578944        0.82250120756235       -1.28876739281508
O            0.99131680768322       -0.02509259506399        0.46829560454581
C            2.20589249462926       -0.09999647626824       -0.29740551847173
C            3.32017800577572       -0.55643810277556        0.62397461501498
H           -2.59029450021055       -1.89732639846644        0.59136194511841
H           -3.60910948374245       -1.46872056504636       -0.78513992432968
H           -1.85670248123499       -1.51896773963673       -0.97047223767899
H           -3.40943422501676        0.45995508090827        0.76317054118257
H           -2.65138844373776        0.82797437634794       -0.79333664740358
H           -1.08055170290251       -0.15451217025416        1.64212301341663
H           -1.29344697150016        1.54719549535951        1.20191546377202
H            2.04964792563777       -0.80138500553766       -1.12363643271102
H            2.40730752110539        0.88826096376356       -0.72398190680721
H            4.24559699614948       -0.62521387606558        0.06175317739153
H            3.44555485537052        0.15294571952406        1.43659135725664
H            3.08076248236629       -1.52944581457321        1.04237877139215
20
 energy: -27.122454608294 gnorm: 0.000377313391 xtb: 6.7.1 (edcfbbe)
C           -2.65850642896181       -1.26311103129888       -0.28830135497804
C           -2.57961443262628        0.20758669947549        0.10324967783829
C           -1.26400842896844        0.53128647318756        0.81267652790776
C           -0.08924826722942        0.46605864725899       -0.12932852776154
O           -0.09604290054065        0.83263707080001       -1.28640741621696
O            0.98839732021771       -0.02723954613647        0.46656989775915
C            2.20287588759489       -0.10419957582230       -0.29909980633392
C            3.31709852548520       -0.55792342634124        0.62379486006046
H           -2.58328411539174       -1.89833990008324        0.59101102472348
H           -3.60089888122511       -1.47237759820892       -0.78709458224347
H           -1.84804059567875       -1.51623171285321       -0.96908435473581
H           -3.40991278155321        0.45560359739957        0.76470094239632
H           -2.65379871002393        0.82790212955069       -0.79181274564617
H           -1.07941671315312       -0.14874467456725        1.64381524541557
H           -1.29703595172660        1.55196543496853        1.20060853887196
H            2.04654429141532       -0.80815436103646       -1.12314782727669
H            2.40429621834086        0.88276215369837       -0.72867795695884
H            4.24322045226224       -0.62499506094872        0.06260864150433
H            3.43987787367806        0.15234343646382        1.43606550287829
H            3.07914285399051       -1.53112962337110        1.04253753208977
20
 energy: -27.122458621052 gnorm: 0.000299113338 xtb: 6.7.1 (edcfbbe)
C           -2.64928623849285       -1.26419849102933       -0.28845937354082
C           -2.57907826668250        0.20662591185268        0.10469639606846
C           -1.26486973474018        0.53766260850107        0.81376870337912
C           -0.09013674851348        0.47398283405589       -0.12853275798524
O           -0.09474040091356        0.84929704205072       -1.28312185911353
O            0.98396471135520       -0.03100061372137        0.46388456056427
C            2.19854029194186       -0.11083207388335       -0.30162439539335
C            3.31263700373912       -0.56008596968503        0.62366096941886
H           -2.57147274897909       -1.89972030568329        0.59042796860820
H           -3.58978991678810       -1.47836817443153       -0.78876023506326
H           -1.83631735562073       -1.51188076415490       -0.96828874759779
H           -3.41041498456766        0.44881339584186        0.76701971956174
H           -2.65759965927472        0.82745675313651       -0.78965829449791
H           -1.07760804858950       -0.14017671553626        1.64602613805794
H           -1.30239137838020        1.55913066420905        1.19890568935181
H            2.04221177514991       -0.81869057872189       -1.12232275721938
H            2.39958073609799        0.87425186367050       -0.73563158587091
H            4.23993137084073       -0.62491134837901        0.06422458925258
H            3.43160274215721        0.15174938562515        1.43515038057402
H            3.07688206616630       -1.53340629158221        1.04331871073916
20
 energy: -27.122462224745 gnorm: 0.000241350327 xtb: 6.7.1 (edcfbbe)
C           -2.63864244715796       -1.26492267022479       -0.28926351827651
C           -2.57882048070248        0.20570244714303        0.10658929707125
C           -1.26614734921351        0.54496010568427        0.81492735379311
C           -0.09147749171623        0.48100761419832       -0.12739485749916
O           -0.09383951629022        0.86414590363057       -1.27936659650513
O            0.97914930518034       -0.03499460719049        0.46153863514394
C            2.19361610343795       -0.11800459871317       -0.30383658715395
C            3.30804232247804       -0.56234531351446        0.62346750448099
H           -2.55577593536220       -1.90165399917941        0.58830855017051
H           -3.57782060673650       -1.48484122877634       -0.78956601811441
H           -1.82423902200593       -1.50555117054205       -0.96998582746184
H           -3.41098604996749        0.44060879689514        0.77055766499239
H           -2.66302435842775        0.82770295692719       -0.78646557429629
H           -1.07639005941246       -0.12917685210945        1.64958589412761
H           -1.30834266722442        1.56788884580391        1.19557793830549
H            2.03742748812679       -0.83021867439537       -1.12078156659663
H            2.39401053590816        0.86499203474242       -0.74287166883850
H            4.23618902873849       -0.62524484333219        0.06524684729935
H            3.42383240359627        0.15130883021675        1.43379849717667
H            3.07488401265687       -1.53566444512864        1.04461785147507
20
 energy: -27.122466106414 gnorm: 0.000859082083 xtb: 6.7.1 (edcfbbe)
C           -2.62477416648602       -1.26629082404400       -0.28960678765519
C           -2.57810256824530        0.20434732433127        0.10808153375983
C           -1.26796114450685        0.55402507488708        0.81649327782361
C           -0.09285677855999        0.49173322422569       -0.12548754433357
O           -0.09125831384390        0.88912679065131       -1.27301711685385
O            0.97236213768968       -0.04191537772949        0.45795852104950
C            2.18691300657520       -0.12773330133853       -0.30688054201590