
                                 *****************
                                 * O   R   C   A *
                                 *****************

                                            #,                                       
                                            ###                                      
                                            ####                                     
                                            #####                                    
                                            ######                                   
                                           ########,                                 
                                     ,,################,,,,,                         
                               ,,#################################,,                 
                          ,,##########################################,,             
                       ,#########################################, ''#####,          
                    ,#############################################,,   '####,        
                  ,##################################################,,,,####,       
                ,###########''''           ''''###############################       
              ,#####''   ,,,,##########,,,,          '''####'''          '####       
            ,##' ,,,,###########################,,,                        '##       
           ' ,,###''''                  '''############,,,                           
         ,,##''                                '''############,,,,        ,,,,,,###''
      ,#''                                            '''#######################'''  
     '                                                          ''''####''''         
             ,#######,   #######,   ,#######,      ##                                
            ,#'     '#,  ##    ##  ,#'     '#,    #''#        ,####,   ,####,        
            ##       ##  ##   ,#'  ##            #'  '#       #'       #'  '#        
            ##       ##  #######   ##           ,######,      #####,   #    #        
            '#,     ,#'  ##    ##  '#,     ,#' ,#      #,     #,   #   #,  ,#        
             '#######'   ##     ##  '#######'  #'      '#     '####' # '####'        



                #########################################################
                #                        -***-                          #
                #          Department of theory and spectroscopy        #
                #                                                       #
                #                      Frank Neese                      #
                #                                                       #
                #     Directorship, Architecture, Infrastructure        #
                #                    SHARK, DRIVERS                     #
                #        Core code/Algorithms in most modules           #
                #                                                       #
                #        Max Planck Institute fuer Kohlenforschung      #
                #                Kaiser Wilhelm Platz 1                 #
                #                 D-45470 Muelheim/Ruhr                 #
                #                      Germany                          #
                #                                                       #
                #                  All rights reserved                  #
                #                        -***-                          #
                #########################################################


                         Program Version 6.0.0  -   RELEASE  -


 With contributions from (in alphabetic order):
   Daniel Aravena         : Magnetic Suceptibility
   Michael Atanasov       : Ab Initio Ligand Field Theory (pilot matlab implementation)
   Alexander A. Auer      : GIAO ZORA, VPT2 properties, NMR spectrum
   Ute Becker             : All parallelization in ORCA, NUMFREQ, NUMCALC
   Giovanni Bistoni       : ED, misc. LED, open-shell LED, HFLD
   Martin Brehm           : Molecular dynamics
   Dmytro Bykov           : pre 5.0 version of the SCF Hessian
   Marcos Casanova-Páez   : Triplet and SCS-CIS(D). UHF-(DLPNO)-IP/EA/STEOM-CCSD. UHF-CVS-IP/STEOM-CCSD
   Vijay G. Chilkuri      : MRCI spin determinant printing, contributions to CSF-ICE
   Pauline Colinet        : FMM embedding
   Dipayan Datta          : RHF DLPNO-CCSD density
   Achintya Kumar Dutta   : EOM-CC, STEOM-CC
   Nicolas Foglia         : Exact transition moments, OPA infrastructure, MCD improvements
   Dmitry Ganyushin       : Spin-Orbit,Spin-Spin,Magnetic field MRCI
   Miquel Garcia          : C-PCM and meta-GGA Hessian, CCSD/C-PCM, Gaussian charge scheme
   Tiago L. C. Gouveia    : GS-ROHF, GS-ROCIS
   Yang Guo               : DLPNO-NEVPT2, F12-NEVPT2, CIM, IAO-localization
   Andreas Hansen         : Spin unrestricted coupled pair/coupled cluster methods
   Ingolf Harden          : AUTO-CI MPn and infrastructure 
   Benjamin Helmich-Paris : MC-RPA, TRAH-(SCF,CASSCF), AVAS, COSX integrals, SCF dyn. polar.
   Lee Huntington         : MR-EOM, pCC
   Robert Izsak           : Overlap fitted RIJCOSX, COSX-SCS-MP3, EOM
   Riya Kayal             : Wick's Theorem for AUTO-CI, AUTO-CI UHF-CCSDT
   Emily Kempfer          : AUTO-CI, RHF CISDT and CCSDT
   Christian Kollmar      : KDIIS, OOCD, Brueckner-CCSD(T), CCSD density, CASPT2, CASPT2-K, improved NEVPT2
   Axel Koslowski         : Symmetry handling
   Simone Kossmann        : Meta GGA functionals, TD-DFT gradient, OOMP2, (MP2 Hessian; deprecated post 5.0)
   Lucas Lang             : DCDCAS
   Marvin Lechner         : AUTO-CI (C++ implementation), FIC-MRCC
   Spencer Leger          : CASSCF response
   Dagmar Lenk            : GEPOL surface, SMD, ORCA-2-JSON
   Dimitrios Liakos       : Extrapolation schemes; Compound Job, initial MDCI parallelization
   Dimitrios Manganas     : Further ROCIS development; embedding schemes. LFT, Crystal Embedding
   Dimitrios Pantazis     : SARC Basis sets
   Anastasios Papadopoulos: AUTO-CI, single reference methods and gradients
   Taras Petrenko         : pre 6.0 DFT Hessian and TD-DFT gradient, (ASA, deprecated), ECA, 1-Electron XAS/XES, NRVS
   Peter Pinski           : DLPNO-MP2, DLPNO-MP2 Gradient
   Christoph Reimann      : Effective Core Potentials
   Marius Retegan         : Local ZFS, SOC
   Christoph Riplinger    : Optimizer, TS searches, QM/MM, DLPNO-CCSD(T), (RO)-DLPNO pert. Triples
   Michael Roemelt        : Original ROCIS implementation
   Masaaki Saitow         : Open-shell DLPNO-CCSD energy and density
   Barbara Sandhoefer     : DKH picture change effects
   Kantharuban Sivalingam : CASSCF convergence/infrastructure, NEVPT2 and variants, FIC-MRCI
   Bernardo de Souza      : ESD, SOC TD-DFT
   Georgi Stoychev        : AutoAux, RI-MP2 NMR, DLPNO-MP2 response, X2C
   Van Anh Tran           : RI-MP2 g-tensors
   Willem Van den Heuvel  : Paramagnetic NMR
   Zikuan Wang            : NOTCH, Electric field optimization 
   Frank Wennmohs         : Technical directorship and infrastructure
   Hang Xu                : AUTO-CI-Response properties 


 We gratefully acknowledge several colleagues who have allowed us to
 interface, adapt or use parts of their codes:
   Stefan Grimme, W. Hujo, H. Kruse, P. Pracht,  : VdW corrections, initial TS optimization,
                  C. Bannwarth, S. Ehlert,         DFT functionals, gCP, sTDA/sTD-DF
                  L. Wittmann, M. Mueller
   Ed Valeev, F. Pavosevic, A. Kumar             : LibInt (2-el integral package), F12 methods
   Garnet Chan, S. Sharma, J. Yang, R. Olivares  : DMRG
   Ulf Ekstrom                                   : XCFun DFT Library
   Mihaly Kallay                                 : mrcc  (arbitrary order and MRCC methods)
   Frank Weinhold                                : gennbo (NPA and NBO analysis)
   Simon Mueller                                 : openCOSMO-RS
   Christopher J. Cramer and Donald G. Truhlar   : smd solvation model
   Lars Goerigk                                  : TD-DFT with DH, B97 family of functionals
   V. Asgeirsson, H. Jonsson                     : NEB implementation
   FAccTs GmbH                                   : IRC, NEB, NEB-TS, DLPNO-Multilevel, CI-OPT
                                                   MM, QMMM, 2- and 3-layer-ONIOM, Crystal-QMMM,
                                                   LR-CPCM, SF, NACMEs, symmetry and pop. for TD-DFT,
                                                   nearIR, NL-DFT gradient (VV10), updates on ESD,
                                                   ML-optimized integration grids, MBIS, APM,
                                                   GOAT, DOCKER, SOLVATOR, interface openCOSMO-RS
   S Lehtola, MJT Oliveira, MAL Marques          : LibXC Library
   Liviu Ungur et al                             : ANISO software


 Your calculation uses the libint2 library for the computation of 2-el integrals
 For citations please refer to: http://libint.valeyev.net

 Your ORCA version has been built with support for libXC version: 6.2.2
 For citations please refer to: https://libxc.gitlab.io

 This ORCA versions uses:
   CBLAS   interface :  Fast vector & matrix operations
   LAPACKE interface :  Fast linear algebra routines
   SCALAPACK package :  Parallel linear algebra routines
   Shared memory     :  Shared parallel matrices
   BLAS/LAPACK       :  OpenBLAS 0.3.27  USE64BITINT DYNAMIC_ARCH NO_AFFINITY SkylakeX SINGLE_THREADED
        Core in use  :  SkylakeX
   Copyright (c) 2011-2014, The OpenBLAS Project


Your calculation utilizes the geometrical counterpoise correction gCP
Please cite in your paper:
H.Kruse, S. Grimme J.Chem.Phys., 136, (2012), 154101 
   

Your calculation utilizes the atom-pairwise dispersion correction
based on EEQ partial charges (D4)


================================================================================

----- Orbital basis set information -----
Your calculation utilizes the basis: def2-SV(P)
   F. Weigend and R. Ahlrichs, Phys. Chem. Chem. Phys. 7, 3297 (2005).

----- AuxJ basis set information -----
Your calculation utilizes the auxiliary basis: def2/J
   F. Weigend, Phys. Chem. Chem. Phys. 8, 1057 (2006).

================================================================================
                                        WARNINGS
                       Please study these warnings very carefully!
================================================================================


================================================================================
                                       INPUT FILE
================================================================================
NAME = sp.inp
|  1> ! pbe def2-sv(p) def2/J RI DEFGRID1 loosescf d4 GCP(DFT/SV(P)) printgap
|  2> %output
|  3>     printlevel normal
|  4> end
|  5> * xyz 0 1
|  6> C -2.6112022247 -0.209824218 1.2461285329
|  7> C -2.524909026 0.0724891084 -0.2489501572
|  8> C -1.2514271103 -0.5189388133 -0.8616122124
|  9> C -0.0257743682 0.1808621375 -0.332142281
| 10> O 0.1477167292 1.3817893927 -0.3481781221
| 11> O 0.8487419855 -0.6823087584 0.1702036287
| 12> C 2.0904200981 -0.1804800565 0.6921231196
| 13> C 3.1432750802 -0.0850518687 -0.4013750399
| 14> H -3.531038806 0.1981467239 1.6564648963
| 15> H -2.5918141813 -1.2805322654 1.4347692426
| 16> H -1.771924809 0.2465880976 1.7679530254
| 17> H -2.525608595 1.1506955905 -0.4197157916
| 18> H -3.3906636637 -0.3566479131 -0.7538641056
| 19> H -1.267646863 -0.3726600222 -1.9430397198
| 20> H -1.1672237553 -1.5825428739 -0.6422083124
| 21> H 1.9093215991 0.8014566788 1.1400621703
| 22> H 2.3784916874 -0.9001214264 1.4590577386
| 23> H 4.0861493973 0.2301301688 0.0333702674
| 24> H 3.2731956239 -1.0516968863 -0.8803961738
| 25> H 2.8383147457 0.643351851 -1.1495207293
| 26> *
| 27> 
| 28>                          ****END OF INPUT****
================================================================================

                       ****************************
                       * Single Point Calculation *
                       ****************************

---------------------------------
CARTESIAN COORDINATES (ANGSTROEM)
---------------------------------
  C     -2.611202   -0.209824    1.246129
  C     -2.524909    0.072489   -0.248950
  C     -1.251427   -0.518939   -0.861612
  C     -0.025774    0.180862   -0.332142
  O      0.147717    1.381789   -0.348178
  O      0.848742   -0.682309    0.170204
  C      2.090420   -0.180480    0.692123
  C      3.143275   -0.085052   -0.401375
  H     -3.531039    0.198147    1.656465
  H     -2.591814   -1.280532    1.434769
  H     -1.771925    0.246588    1.767953
  H     -2.525609    1.150696   -0.419716
  H     -3.390664   -0.356648   -0.753864
  H     -1.267647   -0.372660   -1.943040
  H     -1.167224   -1.582543   -0.642208
  H      1.909322    0.801457    1.140062
  H      2.378492   -0.900121    1.459058
  H      4.086149    0.230130    0.033370
  H      3.273196   -1.051697   -0.880396
  H      2.838315    0.643352   -1.149521

----------------------------
CARTESIAN COORDINATES (A.U.)
----------------------------
  NO LB      ZA    FRAG     MASS         X           Y           Z
   0 C     6.0000    0    12.011   -4.934457   -0.396510    2.354842
   1 C     6.0000    0    12.011   -4.771387    0.136985   -0.470448
   2 C     6.0000    0    12.011   -2.364855   -0.980652   -1.628211
   3 C     6.0000    0    12.011   -0.048706    0.341780   -0.627658
   4 O     8.0000    0    15.999    0.279144    2.611204   -0.657961
   5 O     8.0000    0    15.999    1.603890   -1.289377    0.321638
   6 C     6.0000    0    12.011    3.950321   -0.341058    1.307923
   7 C     6.0000    0    12.011    5.939929   -0.160725   -0.758489
   8 H     1.0000    0     1.008   -6.672696    0.374443    3.130265
   9 H     1.0000    0     1.008   -4.897819   -2.419855    2.711321
  10 H     1.0000    0     1.008   -3.348453    0.465984    3.340947
  11 H     1.0000    0     1.008   -4.772709    2.174500   -0.793148
  12 H     1.0000    0     1.008   -6.407426   -0.673967   -1.424597
  13 H     1.0000    0     1.008   -2.395505   -0.704225   -3.671813
  14 H     1.0000    0     1.008   -2.205733   -2.990573   -1.213598
  15 H     1.0000    0     1.008    3.608095    1.514534    2.154405
  16 H     1.0000    0     1.008    4.494698   -1.700983    2.757220
  17 H     1.0000    0     1.008    7.721703    0.434883    0.063061
  18 H     1.0000    0     1.008    6.185443   -1.987419   -1.663708
  19 H     1.0000    0     1.008    5.363638    1.215759   -2.172279

--------------------------------
INTERNAL COORDINATES (ANGSTROEM)
--------------------------------
 C      0   0   0     0.000000000000     0.00000000     0.00000000
 C      1   0   0     1.523944756215     0.00000000     0.00000000
 C      2   1   0     1.531958866962   111.58605422     0.00000000
 C      3   2   1     1.507409839166   110.86726224   293.29403790
 O      4   3   2     1.213500136530   124.82236033   306.97137459
 O      4   3   2     1.327476651926   111.51215099   126.46810808
 C      6   4   3     1.437357483837   118.65186013   178.63858139
 C      7   6   4     1.520969551697   111.02868839   272.02149908
 H      1   2   3     1.086699386611   110.41570738   181.26447783
 H      1   2   3     1.087371572348   110.58522713   301.50826837
 H      1   2   3     1.088576861461   110.42345579    61.50691673
 H      2   1   3     1.091645825958   109.65776845   239.60591076
 H      2   1   3     1.090242070005   109.66165531   120.67475783
 H      3   2   1     1.091396361944   109.40057363   175.11354464
 H      3   2   1     1.089257487490   111.14160483    54.24140922
 H      7   6   4     1.094370052411   108.59857066    33.88253132
 H      7   6   4     1.090439201264   104.66621066   151.76116701
 H      8   7   6     1.085059987664   109.37107619   183.88175708
 H      8   7   6     1.086620073645   110.11399720   304.05143984
 H      8   7   6     1.087793526851   110.02412425    64.24969323

---------------------------
INTERNAL COORDINATES (A.U.)
---------------------------
 C      0   0   0     0.000000000000     0.00000000     0.00000000
 C      1   0   0     2.879838232472     0.00000000     0.00000000
 C      2   1   0     2.894982706990   111.58605422     0.00000000
 C      3   2   1     2.848591767602   110.86726224   293.29403790
 O      4   3   2     2.293182921518   124.82236033   306.97137459
 O      4   3   2     2.508567321316   111.51215099   126.46810808
 C      6   4   3     2.716212000994   118.65186013   178.63858139
 C      7   6   4     2.874215910740   111.02868839   272.02149908
 H      1   2   3     2.053564230595   110.41570738   181.26447783
 H      1   2   3     2.054834477549   110.58522713   301.50826837
 H      1   2   3     2.057112143885   110.42345579    61.50691673
 H      2   1   3     2.062911646299   109.65776845   239.60591076
 H      2   1   3     2.060258931990   109.66165531   120.67475783
 H      3   2   1     2.062440227632   109.40057363   175.11354464
 H      3   2   1     2.058398340679   111.14160483    54.24140922
 H      7   6   4     2.068059688222   108.59857066    33.88253132
 H      7   6   4     2.060631456081   104.66621066   151.76116701
 H      8   7   6     2.050466215560   109.37107619   183.88175708
 H      8   7   6     2.053414350811   110.11399720   304.05143984
 H      8   7   6     2.055631856001   110.02412425    64.24969323

---------------------
BASIS SET INFORMATION
---------------------
There are 3 groups of distinct atoms

 Group   1 Type C   : 7s4p1d contracted to 3s2p1d pattern {511/31/1}
 Group   2 Type O   : 7s4p1d contracted to 3s2p1d pattern {511/31/1}
 Group   3 Type H   : 4s contracted to 2s pattern {31}

Atom   0C    basis set group =>   1
Atom   1C    basis set group =>   1
Atom   2C    basis set group =>   1
Atom   3C    basis set group =>   1
Atom   4O    basis set group =>   2
Atom   5O    basis set group =>   2
Atom   6C    basis set group =>   1
Atom   7C    basis set group =>   1
Atom   8H    basis set group =>   3
Atom   9H    basis set group =>   3
Atom  10H    basis set group =>   3
Atom  11H    basis set group =>   3
Atom  12H    basis set group =>   3
Atom  13H    basis set group =>   3
Atom  14H    basis set group =>   3
Atom  15H    basis set group =>   3
Atom  16H    basis set group =>   3
Atom  17H    basis set group =>   3
Atom  18H    basis set group =>   3
Atom  19H    basis set group =>   3
---------------------------------
AUXILIARY/J BASIS SET INFORMATION
---------------------------------
There are 3 groups of distinct atoms

 Group   1 Type C   : 12s5p4d2f1g contracted to 6s4p3d1f1g pattern {711111/2111/211/2/1}
 Group   2 Type O   : 12s5p4d2f1g contracted to 6s4p3d1f1g pattern {711111/2111/211/2/1}
 Group   3 Type H   : 5s2p1d contracted to 3s1p1d pattern {311/2/1}

Atom   0C    basis set group =>   1
Atom   1C    basis set group =>   1
Atom   2C    basis set group =>   1
Atom   3C    basis set group =>   1
Atom   4O    basis set group =>   2
Atom   5O    basis set group =>   2
Atom   6C    basis set group =>   1
Atom   7C    basis set group =>   1
Atom   8H    basis set group =>   3
Atom   9H    basis set group =>   3
Atom  10H    basis set group =>   3
Atom  11H    basis set group =>   3
Atom  12H    basis set group =>   3
Atom  13H    basis set group =>   3
Atom  14H    basis set group =>   3
Atom  15H    basis set group =>   3
Atom  16H    basis set group =>   3
Atom  17H    basis set group =>   3
Atom  18H    basis set group =>   3
Atom  19H    basis set group =>   3
------------------------------------------------------------------------------
                             ORCA STARTUP CALCULATIONS
                           -- RI-GTO INTEGRALS CHOSEN --
------------------------------------------------------------------------------
------------------------------------------------------------------------------
                   ___                                                        
                  /   \      - P O W E R E D   B Y -                         
                 /     \                                                     
                 |  |  |   _    _      __       _____    __    __             
                 |  |  |  | |  | |    /  \     |  _  \  |  |  /  |          
                  \  \/   | |  | |   /    \    | | | |  |  | /  /          
                 / \  \   | |__| |  /  /\  \   | |_| |  |  |/  /          
                |  |  |   |  __  | /  /__\  \  |    /   |      \           
                |  |  |   | |  | | |   __   |  |    \   |  |\   \          
                \     /   | |  | | |  |  |  |  | |\  \  |  | \   \       
                 \___/    |_|  |_| |__|  |__|  |_| \__\ |__|  \__/        
                                                                              
                      - O R C A' S   B I G   F R I E N D -                    
                                      &                                       
                       - I N T E G R A L  F E E D E R -                       
                                                                              
 v1 FN, 2020, v2 2021, v3 2022-2024                                           
------------------------------------------------------------------------------


----------------------
SHARK INTEGRAL PACKAGE
----------------------

Number of atoms                             ...     20
Number of basis functions                   ...    136
Number of shells                            ...     72
Maximum angular momentum                    ...      2
Integral batch strategy                     ... SHARK/LIBINT Hybrid
RI-J (if used) integral strategy            ... SPLIT-RIJ (Revised 2003 algorithm where possible)
Printlevel                                  ...      1
Contraction scheme used                     ... SEGMENTED contraction
Prescreening option                         ... SCHWARTZ
   Thresh                                   ... 1.000e-09
   Tcut                                     ... 1.000e-10
   Tpresel                                  ... 1.000e-10 
Coulomb Range Separation                    ... NOT USED
Exchange Range Separation                   ... NOT USED
Multipole approximations                    ... NOT USED
Finite Nucleus Model                        ... NOT USED
CABS basis                                  ... NOT available
Auxiliary Coulomb fitting basis             ... AVAILABLE
   # of basis functions in Aux-J            ...    524
   # of shells in Aux-J                     ...    180
   Maximum angular momentum in Aux-J        ...      4
Auxiliary J/K fitting basis                 ... NOT available
Auxiliary Correlation fitting basis         ... NOT available
Auxiliary 'external' fitting basis          ... NOT available

Checking pre-screening integrals            ... done (  0.0 sec) Dimension = 72
Check shell pair data                       ... done (  0.0 sec)
Shell pair information
Shell pair cut-off parameter TPreSel        ...   1.0e-10
Total number of shell pairs                 ...      2628
Shell pairs after pre-screening             ...      2431
Total number of primitive shell pairs       ...     10580
Primitive shell pairs kept                  ...      6778
          la=0 lb=0:   1067 shell pairs
          la=1 lb=0:    732 shell pairs
          la=1 lb=1:    134 shell pairs
          la=2 lb=0:    342 shell pairs
          la=2 lb=1:    124 shell pairs
          la=2 lb=2:     32 shell pairs

Calculating one electron integrals          ... done (  0.0 sec)
Calculating RI/J V-Matrix + Cholesky decomp.... done (  0.1 sec)
Calculating Nuclear repulsion               ... done (  0.0 sec) ENN=    395.574383117910 Eh

Diagonalization of the overlap matrix:
Smallest eigenvalue                        ... 1.955e-03
Time for diagonalization                   ...    0.003 sec
Threshold for overlap eigenvalues          ... 1.000e-07
Number of eigenvalues below threshold      ... 0
Time for construction of square roots      ...    0.016 sec
Total time needed                          ...    0.029 sec

-------------------
DFT GRID GENERATION
-------------------

General Integration Accuracy     IntAcc      ... 4.159
Radial Grid Type                 RadialGrid  ... OptM3 with GC (2021)
Angular Grid (max. ang.)         AngularGrid ... 3 (Lebedev-194)
Angular grid pruning method      GridPruning ... 4 (adaptive)
Weight generation scheme         WeightScheme... mBecke (2022)
Basis function cutoff            BFCut       ... 1.0000e-10
Integration weight cutoff        WCut        ... 1.0000e-14
Partially contracted basis set               ... off
Rotationally invariant grid construction     ... off
Angular grids for H and He will be reduced by one unit

Total number of grid points                  ...    43023
Total number of batches                      ...      685
Average number of points per batch           ...       62
Average number of grid points per atom       ...     2151
Initializing property integral containers    ... done (  0.0 sec)

SHARK setup successfully completed in   0.8 seconds

Maximum memory used throughout the entire STARTUP-calculation: 21.2 MB
-------------------------------------------------------------------------------
                                 ORCA GUESS
                   Start orbitals & Density for SCF / CASSCF
-------------------------------------------------------------------------------

------------
SCF SETTINGS
------------
Hamiltonian:
 Density Functional     Method          .... DFT(GTOs)
 Exchange Functional    Exchange        .... PBE
   PBE kappa parameter   XKappa         ....  0.804000
   PBE mue parameter    XMuePBE         ....  0.219520
 Correlation Functional Correlation     .... PBE
   PBE beta parameter  CBetaPBE         ....  0.066725
 LDA part of GGA corr.  LDAOpt          .... PW91-LDA
 Gradients option       PostSCFGGA      .... off
   NL short-range parameter             ....  6.400000
 RI-approximation to the Coulomb term is turned on
   Number of AuxJ basis functions       .... 524


General Settings:
 Integral files         IntName         .... sp
 Hartree-Fock type      HFTyp           .... RHF
 Total Charge           Charge          ....    0
 Multiplicity           Mult            ....    1
 Number of Electrons    NEL             ....   64
 Basis Dimension        Dim             ....  136
 Nuclear Repulsion      ENuc            ....    395.5743831179 Eh

Convergence Acceleration:
 AO-DIIS                CNVDIIS         .... on
   Start iteration      DIISMaxIt       ....    12
   Startup error        DIISStart       ....  0.200000
   # of expansion vecs  DIISMaxEq       ....     5
   Bias factor          DIISBfac        ....   1.050
   Max. coefficient     DIISMaxC        ....  10.000
 MO-DIIS                CNVKDIIS        .... off
 Trust-Rad. Augm. Hess. CNVTRAH         .... auto
   Auto Start mean grad. ratio tolernc. ....  1.125000
   Auto Start start iteration           ....    50
   Auto Start num. interpolation iter.  ....    10
   Max. Number of Micro iterations      ....    24
   Max. Number of Macro iterations      .... Maxiter - #DIIS iter
   Number of Davidson start vectors     ....     2
   Converg. threshold    (grad. norm)   ....   1.000e-04
   Grad. Scal. Fac. for Micro threshold ....   0.100
   Minimum threshold for Micro iter.    ....   1.000e-02
   NR start threshold (gradient norm)   ....   1.000e-04
   Initial trust radius                 ....   0.400
   Minimum AH scaling param. (alpha)    ....   1.000
   Maximum AH scaling param. (alpha)    .... 1000.000
   Quad. conv. algorithm                .... NR
   White noise on init. David. guess    .... on
   Maximum white noise                  ....   0.010
   Pseudo random numbers                .... off
   Inactive MOs                         .... canonical
   Orbital update algorithm             .... Taylor
   Preconditioner                       .... Diag
   Full preconditioner red. dimension   ....   250
 SOSCF                  CNVSOSCF        .... on
   Start iteration      SOSCFMaxIt      ....   150
   Startup grad/error   SOSCFStart      ....  0.003300
   Hessian update       SOSCFHessUp     .... L-BFGS
 Level Shifting         CNVShift        .... on
   Level shift para.    LevelShift      ....    0.2500
   Turn off err/grad.   ShiftErr        ....    0.0010
 Zerner damping         CNVZerner       .... off
 Static damping         CNVDamp         .... on
   Fraction old density DampFac         ....    0.7000
   Max. Damping (<1)    DampMax         ....    0.9800
   Min. Damping (>=0)   DampMin         ....    0.0000
   Turn off err/grad.   DampErr         ....    0.1000

SCF Procedure:
 Maximum # iterations   MaxIter         ....   125
 SCF integral mode      SCFMode         .... Direct
   Integral package                     .... SHARK and LIBINT hybrid scheme
 Reset frequency        DirectResetFreq ....    20
 Integral Threshold     Thresh          ....  1.000e-09 Eh
 Primitive CutOff       TCut            ....  1.000e-10 Eh

Convergence Tolerance:
 Convergence Check Mode ConvCheckMode   .... Total+1el-Energy
 Convergence forced     ConvForced      .... 0
 Energy Change          TolE            ....  1.000e-05 Eh
 1-El. energy change                    ....  1.000e-02 Eh
 Orbital Gradient       TolG            ....  1.000e-04
 Orbital Rotation angle TolX            ....  1.000e-04
 DIIS Error             TolErr          ....  5.000e-04

------------------------------
INITIAL GUESS: MODEL POTENTIAL
------------------------------
Loading Hartree-Fock densities                     ... done
Calculating cut-offs                               ... done
Initializing the effective Hamiltonian             ... done
Setting up the integral package (SHARK)            ... done
Starting the Coulomb interaction                   ... done (   0.1 sec)
Making the grid                                    ... done (   0.2 sec)
Mapping shells                                     ... done
Starting the XC term evaluation                    ... done (   0.2 sec)
  promolecular density results
     # of electrons  =     63.996438487
     EX              =    -50.543377753
     EC              =     -2.106762250
     EX+EC           =    -52.650140003
Transforming the Hamiltonian                       ... done (   0.0 sec)
Diagonalizing the Hamiltonian                      ... done (   0.0 sec)
Back transforming the eigenvectors                 ... done (   0.0 sec)
Now organizing SCF variables                       ... done
                      ------------------
                      INITIAL GUESS DONE (   0.6 sec)
                      ------------------
             **** ENERGY FILE WAS UPDATED (sp.en.tmp) ****
Finished Guess after   0.7 sec
Maximum memory used throughout the entire GUESS-calculation: 16.2 MB

-------------------------------------------------------------------------------------------
                                      ORCA LEAN-SCF
                              memory conserving SCF solver
-------------------------------------------------------------------------------------------

----------------------------------------D-I-I-S--------------------------------------------
Iteration    Energy (Eh)           Delta-E    RMSDP     MaxDP     DIISErr   Damp  Time(sec)
-------------------------------------------------------------------------------------------
               ***  Starting incremental Fock matrix formation  ***
    1    -385.2867146325758085     0.00e+00  4.85e-03  1.03e-01  2.47e-01  0.700   0.8
    2    -385.4113955516096439    -1.25e-01  3.06e-03  5.16e-02  7.65e-02  0.700   0.9
                               ***Turning on AO-DIIS***
    3    -385.4497859379974898    -3.84e-02  1.25e-03  1.40e-02  2.40e-02  0.700   0.8
    4    -385.4747520843901611    -2.50e-02  1.76e-03  2.34e-02  1.66e-02  0.000   0.8
    5    -385.5326919779092805    -5.79e-02  5.54e-04  7.87e-03  8.95e-03  0.000   0.8
                              *** Initializing SOSCF ***
---------------------------------------S-O-S-C-F--------------------------------------
Iteration    Energy (Eh)           Delta-E    RMSDP     MaxDP     MaxGrad    Time(sec)
--------------------------------------------------------------------------------------
    6    -385.5334225995385395    -7.31e-04  2.07e-04  2.49e-03  3.00e-03     0.8
               *** Restarting incremental Fock matrix formation ***
    7    -385.5334752723662177    -5.27e-05  1.62e-04  2.91e-03  6.24e-04     0.8
    8    -385.5334540247779387     2.12e-05  8.95e-05  2.34e-03  1.92e-03     0.7
    9    -385.5334822291367800    -2.82e-05  6.89e-05  1.13e-03  3.49e-04     0.7
   10    -385.5334778077519786     4.42e-06  4.13e-05  7.76e-04  4.43e-04     0.8
                 **** Energy Check signals convergence ****

               *****************************************************
               *                     SUCCESS                       *
               *           SCF CONVERGED AFTER  10 CYCLES          *
               *****************************************************

             **** ENERGY FILE WAS UPDATED (sp.en.tmp) ****

----------------
TOTAL SCF ENERGY
----------------

Total Energy       :       -385.53347780775198 Eh          -10490.89928 eV

Components:
Nuclear Repulsion  :        395.57438311791020 Eh           10764.12620 eV
Electronic Energy  :       -781.10786092566218 Eh          -21255.02548 eV
One Electron Energy:      -1307.58044736401871 Eh          -35581.07288 eV
Two Electron Energy:        526.47258643835653 Eh           14326.04740 eV

Virial components:
Potential Energy   :       -767.92626514673782 Eh          -20896.33602 eV
Kinetic Energy     :        382.39278733898584 Eh           10405.43675 eV
Virial Ratio       :          2.00821325760515

DFT components:
N(Alpha)           :       31.999795789396 electrons
N(Beta)            :       31.999795789396 electrons
N(Total)           :       63.999591578792 electrons
E(X)               :      -51.598691177062 Eh       
E(C)               :       -2.123163386551 Eh       
E(XC)              :      -53.721854563613 Eh       

---------------
SCF CONVERGENCE
---------------

  Last Energy change         ...   -4.4214e-06  Tolerance :   1.0000e-05
  Last MAX-Density change    ...    7.7571e-04  Tolerance :   1.0000e-03
  Last RMS-Density change    ...    4.1293e-05  Tolerance :   1.0000e-04
  Last DIIS Error            ...    2.9983e-03  Tolerance :   5.0000e-04
  Last Orbital Gradient      ...    4.4268e-04  Tolerance :   1.0000e-04
  Last Orbital Rotation      ...    4.0777e-04  Tolerance :   1.0000e-04


----------------
ORBITAL ENERGIES
----------------

  NO   OCC          E(Eh)            E(eV) 
   0   2.0000     -18.797757      -511.5130 
   1   2.0000     -18.731091      -509.6989 
   2   2.0000     -10.004626      -272.2397 
   3   2.0000      -9.945997      -270.6443 
   4   2.0000      -9.895728      -269.2765 
   5   2.0000      -9.890464      -269.1332 
   6   2.0000      -9.887137      -269.0427 
   7   2.0000      -9.876457      -268.7521 
   8   2.0000      -1.003823       -27.3154 
   9   2.0000      -0.908437       -24.7198 
  10   2.0000      -0.726994       -19.7825 
  11   2.0000      -0.696435       -18.9510 
  12   2.0000      -0.636501       -17.3201 
  13   2.0000      -0.590569       -16.0702 
  14   2.0000      -0.531615       -14.4660 
  15   2.0000      -0.493100       -13.4179 
  16   2.0000      -0.452674       -12.3179 
  17   2.0000      -0.432605       -11.7718 
  18   2.0000      -0.422592       -11.4993 
  19   2.0000      -0.396666       -10.7938 
  20   2.0000      -0.391704       -10.6588 
  21   2.0000      -0.374598       -10.1933 
  22   2.0000      -0.361055        -9.8248 
  23   2.0000      -0.350177        -9.5288 
  24   2.0000      -0.338197        -9.2028 
  25   2.0000      -0.329783        -8.9739 
  26   2.0000      -0.304711        -8.2916 
  27   2.0000      -0.297925        -8.1069 
  28   2.0000      -0.296510        -8.0685 
  29   2.0000      -0.287170        -7.8143 
  30   2.0000      -0.255392        -6.9496 
  31   2.0000      -0.217987        -5.9317 
  32   0.0000      -0.020308        -0.5526 
  33   0.0000       0.041525         1.1299 
  34   0.0000       0.055178         1.5015 
  35   0.0000       0.075716         2.0603 
  36   0.0000       0.081007         2.2043 
  37   0.0000       0.085961         2.3391 
  38   0.0000       0.093394         2.5414 
  39   0.0000       0.104257         2.8370 
  40   0.0000       0.107256         2.9186 
  41   0.0000       0.119837         3.2609 
  42   0.0000       0.127194         3.4611 
*Only the first 10 virtual orbitals were printed.

                    ********************************
                    * MULLIKEN POPULATION ANALYSIS *
                    ********************************

-----------------------
MULLIKEN ATOMIC CHARGES
-----------------------
   0 C :   -0.288936
   1 C :   -0.200543
   2 C :   -0.122620
   3 C :    0.091754
   4 O :   -0.213154
   5 O :   -0.234791
   6 C :   -0.015635
   7 C :   -0.302730
   8 H :    0.107620
   9 H :    0.098930
  10 H :    0.116336
  11 H :    0.108386
  12 H :    0.091195
  13 H :    0.112533
  14 H :    0.092434
  15 H :    0.107705
  16 H :    0.101170
  17 H :    0.111996
  18 H :    0.113026
  19 H :    0.125322
Sum of atomic charges:    0.0000000

--------------------------------
MULLIKEN REDUCED ORBITAL CHARGES
--------------------------------
  0 C s       :     3.094233  s :     3.094233
      pz      :     1.026632  p :     3.165427
      px      :     1.075307
      py      :     1.063488
      dz2     :     0.006025  d :     0.029276
      dxz     :     0.007855
      dyz     :     0.005095
      dx2y2   :     0.006869
      dxy     :     0.003432

  1 C s       :     3.079144  s :     3.079144
      pz      :     1.022723  p :     3.084444
      px      :     1.006197
      py      :     1.055524
      dz2     :     0.008348  d :     0.036955
      dxz     :     0.009566
      dyz     :     0.005400
      dx2y2   :     0.008957
      dxy     :     0.004683

  2 C s       :     3.007615  s :     3.007615
      pz      :     1.056194  p :     3.081820
      px      :     1.000535
      py      :     1.025092
      dz2     :     0.010235  d :     0.033184
      dxz     :     0.004676
      dyz     :     0.002600
      dx2y2   :     0.009455
      dxy     :     0.006219

  3 C s       :     3.063347  s :     3.063347
      pz      :     0.869156  p :     2.714079
      px      :     0.925582
      py      :     0.919341
      dz2     :     0.011213  d :     0.130820
      dxz     :     0.009363
      dyz     :     0.032230
      dx2y2   :     0.028354
      dxy     :     0.049660

  4 O s       :     3.748773  s :     3.748773
      pz      :     1.460363  p :     4.446865
      px      :     1.667877
      py      :     1.318625
      dz2     :     0.001956  d :     0.017516
      dxz     :     0.000157
      dyz     :     0.005138
      dx2y2   :     0.005874
      dxy     :     0.004391

  5 O s       :     3.729142  s :     3.729142
      pz      :     1.597457  p :     4.489521
      px      :     1.295219
      py      :     1.596845
      dz2     :     0.002104  d :     0.016129
      dxz     :     0.002448
      dyz     :     0.003117
      dx2y2   :     0.003050
      dxy     :     0.005410

  6 C s       :     3.074248  s :     3.074248
      pz      :     1.048222  p :     2.882563
      px      :     0.796921
      py      :     1.037419
      dz2     :     0.007577  d :     0.058824
      dxz     :     0.013532
      dyz     :     0.012073
      dx2y2   :     0.014733
      dxy     :     0.010909

  7 C s       :     3.101134  s :     3.101134
      pz      :     1.054432  p :     3.173674
      px      :     1.032194
      py      :     1.087048
      dz2     :     0.002705  d :     0.027921
      dxz     :     0.006516
      dyz     :     0.009111
      dx2y2   :     0.006427
      dxy     :     0.003163

  8 H s       :     0.892380  s :     0.892380

  9 H s       :     0.901070  s :     0.901070

 10 H s       :     0.883664  s :     0.883664

 11 H s       :     0.891614  s :     0.891614

 12 H s       :     0.908805  s :     0.908805

 13 H s       :     0.887467  s :     0.887467

 14 H s       :     0.907566  s :     0.907566

 15 H s       :     0.892295  s :     0.892295

 16 H s       :     0.898830  s :     0.898830

 17 H s       :     0.888004  s :     0.888004

 18 H s       :     0.886974  s :     0.886974

 19 H s       :     0.874678  s :     0.874678


------------------------
MULLIKEN OVERLAP CHARGES
------------------------
B(  0-C ,  1-C ) :   0.8845 B(  0-C ,  2-C ) :  -0.1311 B(  0-C ,  8-H ) :   0.7322 
B(  0-C ,  9-H ) :   0.7541 B(  0-C , 10-H ) :   0.7604 B(  0-C , 12-H ) :  -0.0551 
B(  1-C ,  2-C ) :   0.7789 B(  1-C ,  3-C ) :  -0.0543 B(  1-C ,  9-H ) :  -0.0573 
B(  1-C , 11-H ) :   0.7000 B(  1-C , 12-H ) :   0.7236 B(  2-C ,  3-C ) :   0.5846 
B(  2-C ,  4-O ) :  -0.2002 B(  2-C ,  5-O ) :  -0.2449 B(  2-C , 11-H ) :  -0.0567 
B(  2-C , 13-H ) :   0.6189 B(  2-C , 14-H ) :   0.6112 B(  3-C ,  4-O ) :   1.3356 
B(  3-C ,  5-O ) :   0.7347 B(  3-C ,  6-C ) :  -0.0591 B(  4-O ,  5-O ) :  -0.1716 
B(  4-O , 15-H ) :   0.0565 B(  5-O ,  6-C ) :   0.5224 B(  5-O ,  7-C ) :  -0.0784 
B(  5-O , 15-H ) :  -0.0661 B(  5-O , 16-H ) :  -0.0552 B(  6-C ,  7-C ) :   0.9408 
B(  6-C , 15-H ) :   0.7081 B(  6-C , 16-H ) :   0.7360 B(  7-C , 15-H ) :  -0.0612 
B(  7-C , 16-H ) :  -0.0575 B(  7-C , 17-H ) :   0.7122 B(  7-C , 18-H ) :   0.7398 
B(  7-C , 19-H ) :   0.7444 B(  9-H , 10-H ) :  -0.0506 B( 11-H , 12-H ) :  -0.0587 
B( 15-H , 16-H ) :  -0.0623 B( 18-H , 19-H ) :  -0.0528 


                     *******************************
                     * LOEWDIN POPULATION ANALYSIS *
                     *******************************

----------------------
LOEWDIN ATOMIC CHARGES
----------------------
   0 C :   -0.342352
   1 C :   -0.227405
   2 C :   -0.247008
   3 C :    0.037009
   4 O :   -0.174961
   5 O :   -0.065800
   6 C :   -0.114206
   7 C :   -0.355434
   8 H :    0.121537
   9 H :    0.117317
  10 H :    0.120584
  11 H :    0.124775
  12 H :    0.117864
  13 H :    0.141807
  14 H :    0.126399
  15 H :    0.118920
  16 H :    0.116683
  17 H :    0.130012
  18 H :    0.124204
  19 H :    0.130055

-------------------------------
LOEWDIN REDUCED ORBITAL CHARGES
-------------------------------
  0 C s       :     2.944807  s :     2.944807
      pz      :     1.078746  p :     3.326733
      px      :     1.125384
      py      :     1.122604
      dz2     :     0.017139  d :     0.070811
      dxz     :     0.017689
      dyz     :     0.010836
      dx2y2   :     0.016651
      dxy     :     0.008497

  1 C s       :     2.906663  s :     2.906663
      pz      :     1.068320  p :     3.231811
      px      :     1.054949
      py      :     1.108541
      dz2     :     0.022500  d :     0.088932
      dxz     :     0.021607
      dyz     :     0.011771
      dx2y2   :     0.021729
      dxy     :     0.011325

  2 C s       :     2.917526  s :     2.917526
      pz      :     1.094356  p :     3.245475
      px      :     1.058215
      py      :     1.092905
      dz2     :     0.024916  d :     0.084007
      dxz     :     0.012681
      dyz     :     0.005918
      dx2y2   :     0.023503
      dxy     :     0.016988

  3 C s       :     2.849253  s :     2.849253
      pz      :     0.856501  p :     2.815842
      px      :     0.944420
      py      :     1.014921
      dz2     :     0.024381  d :     0.297896
      dxz     :     0.018625
      dyz     :     0.069144
      dx2y2   :     0.068616
      dxy     :     0.117130

  4 O s       :     3.550608  s :     3.550608
      pz      :     1.461455  p :     4.593430
      px      :     1.671081
      py      :     1.460894
      dz2     :     0.004370  d :     0.030923
      dxz     :     0.000187
      dyz     :     0.006752
      dx2y2   :     0.012641
      dxy     :     0.006972

  5 O s       :     3.451751  s :     3.451751
      pz      :     1.599949  p :     4.581197
      px      :     1.339842
      py      :     1.641406
      dz2     :     0.003816  d :     0.032852
      dxz     :     0.005953
      dyz     :     0.005119
      dx2y2   :     0.006448
      dxy     :     0.011516

  6 C s       :     2.924594  s :     2.924594
      pz      :     1.073872  p :     3.058404
      px      :     0.877865
      py      :     1.106667
      dz2     :     0.015028  d :     0.131208
      dxz     :     0.033788
      dyz     :     0.027604
      dx2y2   :     0.032616
      dxy     :     0.022173

  7 C s       :     2.951903  s :     2.951903
      pz      :     1.107072  p :     3.334781
      px      :     1.094005
      py      :     1.133704
      dz2     :     0.006366  d :     0.068751
      dxz     :     0.018095
      dyz     :     0.021213
      dx2y2   :     0.016228
      dxy     :     0.006849

  8 H s       :     0.878463  s :     0.878463

  9 H s       :     0.882683  s :     0.882683

 10 H s       :     0.879416  s :     0.879416

 11 H s       :     0.875225  s :     0.875225

 12 H s       :     0.882136  s :     0.882136

 13 H s       :     0.858193  s :     0.858193

 14 H s       :     0.873601  s :     0.873601

 15 H s       :     0.881080  s :     0.881080

 16 H s       :     0.883317  s :     0.883317

 17 H s       :     0.869988  s :     0.869988

 18 H s       :     0.875796  s :     0.875796

 19 H s       :     0.869945  s :     0.869945


---------------------------------
LOEWDIN BOND ORDERS (THRESH 0.050000)
---------------------------------
B(  0-C ,  1-C ) :   1.1328 B(  0-C ,  2-C ) :   0.0534 B(  0-C ,  8-H ) :   0.9392 
B(  0-C ,  9-H ) :   0.9404 B(  0-C , 10-H ) :   0.9373 B(  1-C ,  2-C ) :   1.0796 
B(  1-C ,  3-C ) :   0.0622 B(  1-C , 11-H ) :   0.9027 B(  1-C , 12-H ) :   0.9059 
B(  2-C ,  3-C ) :   1.0562 B(  2-C ,  4-O ) :   0.0952 B(  2-C ,  5-O ) :   0.0735 
B(  2-C , 13-H ) :   0.8826 B(  2-C , 14-H ) :   0.8964 B(  3-C ,  4-O ) :   2.1945 
B(  3-C ,  5-O ) :   1.4043 B(  3-C ,  6-C ) :   0.0757 B(  4-O ,  5-O ) :   0.2088 
B(  5-O ,  6-C ) :   1.0744 B(  5-O ,  7-C ) :   0.0535 B(  6-C ,  7-C ) :   1.1499 
B(  6-C , 15-H ) :   0.9065 B(  6-C , 16-H ) :   0.9203 B(  7-C , 17-H ) :   0.9304 
B(  7-C , 18-H ) :   0.9386 B(  7-C , 19-H ) :   0.9357 

------------------------------------------
LOEWDIN REDUCED ORBITAL POPULATIONS PER MO
-------------------------------------------
THRESHOLD FOR PRINTING IS 0.1%%
                      0         1         2         3         4         5   
                 -18.79776 -18.73109 -10.00463  -9.94600  -9.89573  -9.89046
                   2.00000   2.00000   2.00000   2.00000   2.00000   2.00000
                  --------  --------  --------  --------  --------  --------
 0 C  pz              0.0       0.0       0.0       0.0       0.0       0.1
 1 C  s               0.0       0.0       0.0       0.0       0.0      99.6
 2 C  s               0.0       0.0       0.0       0.0      99.6       0.0
 3 C  s               0.0       0.0      99.3       0.0       0.0       0.0
 4 O  s               0.0      99.9       0.0       0.0       0.0       0.0
 4 O  py              0.0       0.0       0.3       0.0       0.0       0.0
 5 O  s              99.9       0.0       0.0       0.0       0.0       0.0
 6 C  s               0.0       0.0       0.0      99.7       0.0       0.0

                      6         7         8         9        10        11   
                  -9.88714  -9.87646  -1.00382  -0.90844  -0.72699  -0.69644
                   2.00000   2.00000   2.00000   2.00000   2.00000   2.00000
                  --------  --------  --------  --------  --------  --------
 0 C  s               0.0      99.7       0.0       0.0       7.3       5.9
 0 C  pz              0.0       0.0       0.0       0.0       1.9       0.9
 1 C  s               0.0       0.0       0.1       0.1      16.7       8.6
 1 C  pz              0.0       0.1       0.0       0.0       0.0       0.3
 1 C  px              0.0       0.0       0.1       0.1       1.4       0.0
 1 C  py              0.0       0.0       0.0       0.0       0.4       0.1
 2 C  s               0.0       0.0       1.0       0.3      19.4       1.7
 2 C  pz              0.0       0.0       0.3       0.0       0.8       0.0
 2 C  px              0.0       0.0       1.3       0.1       0.2       2.3
 2 C  py              0.0       0.0       0.2       0.5       0.3       0.1
 3 C  s               0.0       0.0      18.5       5.3       3.2       1.0
 3 C  pz              0.0       0.0       1.0       0.6       0.3       0.3
 3 C  px              0.0       0.0       4.1       0.7       4.1       1.0
 3 C  py              0.0       0.0       0.1      22.7       5.1       1.3
 3 C  dz2             0.0       0.0       0.3       0.2       0.0       0.0
 3 C  dxz             0.0       0.0       0.2       0.1       0.0       0.0
 3 C  dyz             0.0       0.0       0.1       0.0       0.0       0.0
 3 C  dx2y2           0.0       0.0       0.2       1.1       0.1       0.0
 3 C  dxy             0.0       0.0       0.2       0.6       0.0       0.1
 4 O  s               0.0       0.0      10.9      41.9       1.6       0.1
 4 O  px              0.0       0.0       0.0       0.2       0.1       0.0
 4 O  py              0.0       0.0       2.7       4.3       0.1       0.1
 4 O  dx2y2           0.0       0.0       0.1       0.1       0.0       0.0
 5 O  s               0.0       0.0      41.6      15.1       0.0       1.1
 5 O  pz              0.0       0.0       0.1       0.1       0.9       1.3
 5 O  px              0.0       0.0       0.1       0.4       5.1       7.6
 5 O  py              0.0       0.0       3.0       0.2       0.0       0.1
 6 C  s               0.0       0.0       4.7       2.3       5.6      17.8
 6 C  pz              0.1       0.0       0.9       0.2       0.2       0.6
 6 C  px              0.1       0.0       4.4       1.0       0.1       2.2
 6 C  py              0.0       0.0       0.3       0.4       0.0       0.0
 6 C  dxz             0.0       0.0       0.2       0.1       0.0       0.1
 6 C  dx2y2           0.0       0.0       0.2       0.1       0.0       0.0
 7 C  s              99.7       0.0       0.3       0.2       3.0      18.1
 7 C  pz              0.0       0.0       0.1       0.1       0.3       1.1
 7 C  px              0.0       0.0       0.4       0.2       0.3       0.8
 8 H  s               0.0       0.1       0.0       0.0       1.2       1.1
 9 H  s               0.0       0.1       0.0       0.0       1.4       1.2
10 H  s               0.0       0.1       0.0       0.0       1.5       1.1
11 H  s               0.0       0.0       0.0       0.0       2.8       1.6
12 H  s               0.0       0.0       0.0       0.0       2.9       1.7
13 H  s               0.0       0.0       0.1       0.1       3.4       0.3
14 H  s               0.0       0.0       0.2       0.0       3.9       0.2
15 H  s               0.0       0.0       0.8       0.1       1.0       3.3
16 H  s               0.0       0.0       0.5       0.3       1.1       3.9
17 H  s               0.1       0.0       0.0       0.0       0.5       3.6
18 H  s               0.1       0.0       0.1       0.0       0.6       3.5
19 H  s               0.1       0.0       0.1       0.0       0.5       3.4

                     12        13        14        15        16        17   
                  -0.63650  -0.59057  -0.53161  -0.49310  -0.45267  -0.43260
                   2.00000   2.00000   2.00000   2.00000   2.00000   2.00000
                  --------  --------  --------  --------  --------  --------
 0 C  s              18.1       7.0       7.4       0.5       0.2       0.2
 0 C  pz              0.0       0.7       7.0       1.0       0.3       0.8
 0 C  px              0.1       0.0       0.2       0.0       0.5       0.8
 0 C  py              0.0       0.0       0.5       0.2       2.5       2.5
 0 C  dz2             0.0       0.0       0.2       0.0       0.0       0.0
 1 C  s               2.7       1.0      14.0       1.3       0.3       0.0
 1 C  pz              5.6       4.1       3.8       0.0       1.0       0.0
 1 C  px              2.5       0.7       2.2       0.5       0.5       0.2
 1 C  py              0.1       0.0       0.9       0.4       7.6       6.8
 1 C  dz2             0.1       0.1       0.1       0.0       0.0       0.0
 2 C  s              11.5       4.3       2.1       1.1       2.0       0.1
 2 C  pz              0.3       0.6       0.0       1.4       5.3       5.3
 2 C  px              2.6       1.5       8.0       0.0       3.6       2.5
 2 C  py              0.0       0.0       0.7       0.3      10.6       9.5
 2 C  dyz             0.0       0.0       0.0       0.0       0.1       0.0
 2 C  dxy             0.0       0.0       0.1       0.0       0.1       0.0
 3 C  s               2.9       1.3       1.0       1.6       1.7       1.4
 3 C  pz              1.4       0.5       0.8       2.6       0.2      10.1
 3 C  px              3.2       2.0       3.2       0.9       9.8       0.1
 3 C  py              2.8       1.6       0.5       1.1       0.1       0.1
 3 C  dx2y2           0.0       0.0       0.0       0.0       0.0       0.3
 3 C  dxy             0.0       0.1       0.1       0.0       0.0       0.0
 4 O  s               0.7       0.2       0.2       1.1       0.4       4.5
 4 O  pz              0.1       0.0       0.1       0.9       0.0       3.0
 4 O  px              0.1       0.2       0.3       0.4       5.9       0.0
 4 O  py              0.2       0.2       0.1       0.8       0.4       5.9
 5 O  s               1.0       0.1       0.8       3.7       0.7       0.7
 5 O  pz              1.1       5.2       0.3       0.3       1.2       6.5
 5 O  px              2.0      11.9       0.0      11.6       0.6       5.5
 5 O  py              0.0       0.7       0.1       8.5       6.6       3.1
 5 O  dxy             0.0       0.1       0.0       0.1       0.0       0.0
 6 C  s               0.3       4.4       3.8       5.7       0.0       0.2
 6 C  pz              0.5       2.9       2.8       8.4       1.8       5.0
 6 C  px              3.6       4.5       0.1       2.8       1.1       0.2
 6 C  py              0.2       1.0       0.0      10.8       9.2       1.5
 6 C  dxz             0.1       0.2       0.0       0.1       0.0       0.0
 6 C  dx2y2           0.0       0.0       0.1       0.2       0.0       0.0
 6 C  dxy             0.0       0.0       0.0       0.4       0.0       0.0
 7 C  s               8.8      13.5       1.5       1.0       0.0       0.2
 7 C  pz              0.0       1.0       1.7       5.3       0.3       0.1
 7 C  px              0.0       1.3       0.4       0.2       1.2       5.8
 7 C  py              0.0       0.1       0.0       1.4       2.4       0.3
 8 H  s               4.7       2.3       2.9       0.3       0.1       1.4
 9 H  s               4.1       2.0       4.0       0.5       1.4       0.4
10 H  s               4.0       2.2       4.2       0.3       0.2       0.1
11 H  s               0.6       0.3       6.3       0.8       2.9       2.1
12 H  s               0.7       0.4       7.7       0.6       0.7       0.1
13 H  s               3.3       1.9       0.7       1.5       3.9       2.0
14 H  s               2.7       0.7       1.5       0.8       5.1       5.4
15 H  s               0.0       1.0       1.8      11.9       1.7       0.1
16 H  s               0.0       2.4       2.8       2.7       3.6       1.8
17 H  s               2.5       4.8       0.5       0.0       0.2       2.1
18 H  s               2.1       4.0       0.9       2.8       0.7       0.5
19 H  s               2.1       4.5       1.0       0.8       0.8       0.1

                     18        19        20        21        22        23   
                  -0.42259  -0.39667  -0.39170  -0.37460  -0.36106  -0.35018
                   2.00000   2.00000   2.00000   2.00000   2.00000   2.00000
                  --------  --------  --------  --------  --------  --------
 0 C  s               0.0       0.1       0.0       0.0       0.0       0.0
 0 C  pz              0.0       5.2       0.2       2.7       0.2       2.2
 0 C  px              6.9       2.1       1.9      10.3       7.1       0.0
 0 C  py              0.1       4.6       3.5       4.1       9.4      12.9
 0 C  dx2y2           0.0       0.0       0.0       0.0       0.1       0.1
 1 C  s               0.1       0.2       0.1       0.0       0.0       0.0
 1 C  pz              0.4       2.1       1.5       0.6       1.5       5.6
 1 C  px             10.9       0.6       1.4       6.6       3.0       0.1
 1 C  py              0.1       6.4       3.3       2.2       1.1       0.3
 2 C  s               0.3       0.2       0.0       0.2       0.2       0.1
 2 C  pz              3.9      13.6       1.9       2.2       0.4       0.6
 2 C  px              0.9       0.0       0.7       5.6       2.8       0.2
 2 C  py              1.6       0.7       0.4       0.1       6.8      10.5
 2 C  dz2             0.0       0.1       0.0       0.1       0.0       0.0
 2 C  dx2y2           0.0       0.0       0.0       0.0       0.1       0.2
 2 C  dxy             0.0       0.0       0.0       0.2       0.0       0.0
 3 C  s               0.0       0.8       2.0       0.5       0.1       0.1
 3 C  pz              6.1       0.3       0.6       1.9       2.0       0.3
 3 C  px              2.9       0.0       0.3       6.0       0.4       0.8
 3 C  py              1.0       0.3       4.0       0.2       0.1       2.5
 3 C  dxz             0.0       0.1       0.0       0.0       0.0       0.0
 3 C  dx2y2           0.2       0.0       0.0       0.0       0.0       0.0
 3 C  dxy             0.0       0.0       0.0       0.0       0.1       0.1
 4 O  s               1.7       1.2       9.6       0.0       0.0       1.4
 4 O  pz              2.9       0.1       0.4       1.4       2.5       0.2
 4 O  px              0.8       0.0       0.3       2.5       0.0       0.2
 4 O  py              1.3       3.9      27.9       0.1       0.0       8.2
 4 O  dx2y2           0.0       0.0       0.2       0.0       0.0       0.0
 5 O  s               0.2       0.8       0.5       0.4       1.4       0.0
 5 O  pz              8.6       6.9       4.1       1.8       1.9       0.2
 5 O  px              1.2       2.0       0.0       0.3       0.2       3.0
 5 O  py              4.8       0.3       4.8       4.4       1.4       0.0
 6 C  s               0.4       0.4       0.1       0.0       0.1       0.1
 6 C  pz              1.0       5.7       2.3       0.1       0.1       0.5
 6 C  px              8.4       1.7       0.6       1.9       1.1       0.1
 6 C  py              5.7       1.0       2.8       2.0       0.1       0.1
 6 C  dz2             0.1       0.1       0.0       0.0       0.0       0.1
 6 C  dxy             0.0       0.0       0.0       0.2       0.1       0.1
 7 C  s               0.3       0.1       0.1       0.0       0.0       0.0
 7 C  pz              4.6       0.4       0.3       1.4      10.5       7.4
 7 C  px              0.0      10.4       5.7       0.0       4.9       6.1
 7 C  py              3.6       3.3       3.4      13.7       6.9       3.6
 7 C  dxz             0.0       0.2       0.0       0.1       0.0       0.0
 7 C  dx2y2           0.0       0.0       0.0       0.0       0.2       0.2
 8 H  s               1.6       4.3       0.3       0.7       5.0       0.4
 9 H  s               0.1       0.8       1.7       1.0       5.2       7.5
10 H  s               1.8       0.8       0.8       7.9       0.5       0.1
11 H  s               0.0       2.2       1.6       0.9       0.2       0.0
12 H  s               4.1       0.0       1.7       2.6       0.0       0.6
13 H  s               0.7       8.0       1.0       2.0       0.3       0.6
14 H  s               0.2       0.5       0.6       0.0       4.8       7.1
15 H  s               0.8       1.1       0.9       1.0       0.2       0.8
16 H  s               5.7       0.0       1.1       0.7       0.1       0.3
17 H  s               0.0       5.3       1.1       0.3       8.7       8.5
18 H  s               0.0       0.1       2.4       3.3       6.9       4.1
19 H  s               3.3       0.5       0.8       5.2       0.7       1.1

                     24        25        26        27        28        29   
                  -0.33820  -0.32978  -0.30471  -0.29792  -0.29651  -0.28717
                   2.00000   2.00000   2.00000   2.00000   2.00000   2.00000
                  --------  --------  --------  --------  --------  --------
 0 C  s               0.1       0.0       0.1       0.4       0.0       0.1
 0 C  pz              3.8       4.7       3.5      16.5       1.0       1.2
 0 C  px              7.1       2.5      11.4       3.7       0.1       1.6
 0 C  py              0.0       0.9       0.0       0.7      14.2       0.0
 0 C  dz2             0.1       0.0       0.0       0.2       0.0       0.0
 0 C  dxz             0.0       0.1       0.5       0.1       0.0       0.1
 0 C  dyz             0.0       0.0       0.0       0.0       0.4       0.0
 0 C  dx2y2           0.0       0.0       0.0       0.0       0.5       0.0
 0 C  dxy             0.0       0.0       0.1       0.0       0.0       0.0
 1 C  s               0.3       0.0       0.1       0.0       0.0       0.1
 1 C  pz              3.7       4.2       3.2      13.6       1.2       1.0
 1 C  px              0.1       0.4      12.3       3.8       0.2       5.0
 1 C  py              0.0       0.0       0.1       2.8      22.6       0.0
 1 C  dz2             0.1       0.0       0.0       0.6       0.0       0.0
 1 C  dxz             0.0       0.1       0.6       0.0       0.0       0.2
 1 C  dyz             0.0       0.1       0.0       0.0       0.3       0.0
 1 C  dx2y2           0.0       0.0       0.0       0.0       0.7       0.0
 2 C  s               0.1       0.2       0.6       0.2       0.2       0.0
 2 C  pz              0.1       0.3       0.0      14.2       1.9       0.7
 2 C  px              0.3       1.7       4.5       2.0       3.0       5.4
 2 C  py              0.2       1.2       2.5       0.5       4.8       0.1
 2 C  dz2             0.0       0.0       0.1       0.7       0.0       0.0
 2 C  dx2y2           0.0       0.0       0.0       0.0       0.4       0.0
 3 C  s               0.0       0.0       0.1       0.0       0.1       0.9
 3 C  pz              9.1       1.2       0.8       1.3       0.6       0.0
 3 C  px              3.7       0.4       1.3       0.4       0.2       0.5
 3 C  py              0.1       2.1       0.3       0.0       0.3       3.7
 3 C  dz2             0.0       0.0       0.0       0.1       0.0       0.1
 3 C  dyz             0.1       0.0       0.0       0.1       0.1       0.0
 3 C  dx2y2           0.0       0.4       0.2       0.0       0.1       0.5
 4 O  s               0.0       1.1       0.1       0.0       0.1       0.8
 4 O  pz             11.1       0.6       0.3       3.7       2.0       0.0
 4 O  px              5.2       0.2       1.6       1.1       0.0       0.1
 4 O  py              0.3       7.3       0.5       0.2       0.7       6.5
 5 O  s               0.1       0.3       0.1       0.0       0.1       3.6
 5 O  pz              0.3       0.0       0.1       2.2       0.3       0.7
 5 O  px              0.0       2.6       0.2       1.1       0.0       2.4
 5 O  py              0.0       7.4       2.8       0.0       0.0      26.6
 6 C  s               0.1       0.0       0.0       0.0       0.0       0.2
 6 C  pz             14.6       0.2       0.2       1.0       0.2       0.5
 6 C  px              2.8       3.8       0.9       0.7       0.1       0.7
 6 C  py              0.2       3.0       6.3       0.0       0.2      10.0
 6 C  dz2             0.0       0.1       0.0       0.0       0.0       0.0
 6 C  dxz             0.1       0.0       0.0       0.1       0.0       0.1
 6 C  dyz             0.0       0.3       0.4       0.0       0.0       0.4
 6 C  dx2y2           0.2       0.1       0.0       0.0       0.0       0.3
 7 C  s               0.2       0.0       0.0       0.1       0.0       0.0
 7 C  pz             15.1       1.6       0.2       0.6       0.1       0.1
 7 C  px              2.2       9.4       0.5       1.5       0.1       0.2
 7 C  py              0.1      11.0       3.7       0.0       0.1       2.6
 7 C  dz2             0.0       0.1       0.0       0.0       0.0       0.0
 7 C  dxz             0.1       0.0       0.0       0.0       0.0       0.0
 7 C  dyz             0.0       0.5       0.2       0.0       0.0       0.2
 7 C  dx2y2           0.1       0.0       0.0       0.0       0.0       0.1
 8 H  s               4.8       0.0       4.2       4.9       3.3       0.6
 9 H  s               0.1       0.2       0.1       1.2      11.4       0.0
10 H  s               0.6       4.3       8.7       0.2       2.9       1.8
11 H  s               0.0       0.0       0.3       4.0      16.4       0.0
12 H  s               0.4       1.4       9.9       0.3       3.6       4.3
13 H  s               0.0       0.0       0.6      11.2       0.7       0.6
14 H  s               0.0       0.5       1.4       2.8       4.0       0.2
15 H  s               1.0       1.7       4.3       0.3       0.3       8.2
16 H  s               4.8       3.6       4.5       0.2       0.0       2.4
17 H  s               0.1       3.1       0.0       0.3       0.0       0.7
18 H  s               1.5       4.6       2.4       0.2       0.2       2.8
19 H  s               4.2      10.3       2.8       0.0       0.0       0.8

                     30        31        32        33        34        35   
                  -0.25539  -0.21799  -0.02031   0.04152   0.05518   0.07572
                   2.00000   2.00000   0.00000   0.00000   0.00000   0.00000
                  --------  --------  --------  --------  --------  --------
 0 C  s               0.0       0.0       0.2       7.2       3.3       4.9
 0 C  pz              0.0       0.1       0.2       1.5       0.6       1.2
 0 C  px              0.0       0.0       0.1       0.0       0.5       1.8
 0 C  py              0.0       0.0       0.0       0.2       0.3       0.4
 0 C  dz2             0.0       0.0       0.1       0.1       0.1       0.0
 0 C  dxz             0.0       0.0       0.0       0.0       0.1       0.2
 1 C  s               0.0       0.1       1.8       3.0       2.8       0.8
 1 C  pz              0.0       0.1       0.3       0.4       0.4       0.1
 1 C  px              0.1       0.2       0.9       1.6       1.4       1.6
 1 C  py              0.1       0.0       0.8       0.4       0.0       0.3
 1 C  dxz             0.0       0.0       0.0       0.0       0.1       0.4
 2 C  s               0.0       0.6       0.1       3.9       1.4       2.7
 2 C  pz              0.1       0.7       0.3       0.5       0.5       2.8
 2 C  px              0.1       3.5       0.4       0.2       0.0       0.4
 2 C  py              0.0       2.7       0.0       1.0       0.5       0.2
 2 C  dz2             0.0       0.0       1.1       0.0       0.1       0.0
 2 C  dxz             0.0       0.0       0.7       0.0       0.0       0.0
 2 C  dx2y2           0.0       0.1       0.3       0.0       0.0       0.0
 3 C  s               0.0       0.4       0.0       1.7       0.0       0.2
 3 C  pz              0.5       0.2      37.0       1.7       0.3       1.0
 3 C  px              0.2       0.7       8.3       1.1       0.2       0.1
 3 C  py              0.0       0.6       0.3       0.9       0.0       0.0
 3 C  dz2             0.2       0.0       0.1       0.3       0.0       0.0
 3 C  dxz             0.0       0.0       0.2       0.1       0.0       0.0
 3 C  dyz             1.9       0.8       0.7       0.0       0.0       0.0
 3 C  dx2y2           0.0       0.2       0.1       0.2       0.0       0.0
 3 C  dxy             0.3       3.7       0.1       0.1       0.0       0.0
 4 O  s               0.0       0.0       0.0       1.0       0.0       0.1
 4 O  pz             31.4      12.3      19.8       0.5       0.1       1.4
 4 O  px              5.0      59.4       4.3       0.2       0.5       0.0
 4 O  py              0.2       0.9       0.1       0.1       0.0       0.0
 4 O  dyz             0.0       0.0       0.4       0.0       0.0       0.0
 5 O  s               0.0       0.3       0.0       0.5       0.0       0.6
 5 O  pz             34.9       0.9       8.4       0.6       0.4       0.8
 5 O  px              8.5       0.5       1.8       0.2       0.0       0.1
 5 O  py              0.3       6.7       0.1       0.1       0.1       0.2
 5 O  dz2             0.0       0.0       0.2       0.0       0.0       0.0
 5 O  dxz             0.0       0.0       0.1       0.0       0.1       0.0
 6 C  s               0.0       0.1       0.0       3.9       5.0       2.1
 6 C  pz              3.2       0.6       0.1       1.6       2.3       1.4
 6 C  px              0.7       0.3       0.1       0.6       0.2       3.5
 6 C  py              0.0       0.2       0.0       0.1       0.1       1.0
 6 C  dz2             0.1       0.0       0.0       0.0       0.0       0.2
 6 C  dxz             0.5       0.0       0.3       0.0       0.2       0.5
 6 C  dx2y2           0.3       0.0       0.2       0.0       0.0       0.1
 6 C  dxy             0.0       0.0       0.0       0.0       0.0       0.1
 7 C  s               0.5       0.0       0.8       3.1      11.3       5.7
 7 C  pz              3.0       0.2       0.2       0.8       0.5       0.7
 7 C  px              3.1       0.0       0.1       1.3       2.6       0.2
 7 C  py              0.4       0.0       0.0       0.0       0.0       0.2
 7 C  dz2             0.0       0.0       0.0       0.1       0.1       0.2
 7 C  dxz             0.0       0.0       0.0       0.2       0.1       0.1
 8 H  s               0.0       0.0       0.1       5.4       4.8       1.1
 9 H  s               0.0       0.0       0.1       6.7       4.1       1.2
10 H  s               0.0       0.0       0.1       5.5       0.4      16.6
11 H  s               0.1       0.3       0.1       3.4       1.9       0.1
12 H  s               0.1       0.3       1.2       5.4       6.8       6.8
13 H  s               0.0       0.1       5.3       4.5       2.5      10.1
14 H  s               0.1       1.2       0.0       7.2       2.0       1.4
15 H  s               1.3       0.4       0.3       4.1       3.3       6.9
16 H  s               1.4       0.1       0.2       6.5      10.4       3.1
17 H  s               0.7       0.1       0.4       4.6      13.5       0.9
18 H  s               0.1       0.0       0.1       2.7       9.9       7.9
19 H  s               0.2       0.1       0.2       2.4       4.0       5.0

                     36        37        38        39        40        41   
                   0.08101   0.08596   0.09339   0.10426   0.10726   0.11984
                   0.00000   0.00000   0.00000   0.00000   0.00000   0.00000
                  --------  --------  --------  --------  --------  --------
 0 C  s               0.1       4.8       0.5       4.3       0.0       2.4
 0 C  pz              0.0       0.4       0.1       0.6       0.0       1.1
 0 C  px              0.1       0.2       3.5       0.3       2.9       5.1
 0 C  py              5.9       0.1       1.7       0.0       0.7       0.6
 0 C  dz2             0.0       0.0       0.0       0.1       0.1       0.3
 0 C  dxz             0.0       0.1       0.0       0.0       0.1       0.2
 0 C  dyz             0.2       0.0       0.0       0.0       0.1       0.3
 0 C  dx2y2           0.2       0.0       0.1       0.0       0.0       0.1
 0 C  dxy             0.0       0.0       0.1       0.0       0.0       0.3
 1 C  s               0.4       0.1       2.4       3.2       0.9       9.9
 1 C  pz              0.0       0.7       0.6       0.3       0.4       0.1
 1 C  px              0.0       0.3       0.5       0.7       1.4       0.1
 1 C  py              3.7       0.0       0.7       0.2       1.3       2.8
 1 C  dz2             0.1       0.2       0.2       0.0       0.0       0.1
 1 C  dxz             0.1       0.1       0.1       0.0       0.1       0.6
 1 C  dyz             0.2       0.1       0.0       0.0       0.2       0.0
 1 C  dx2y2           0.4       0.0       0.0       0.0       0.0       0.2
 1 C  dxy             0.1       0.0       0.1       0.0       0.0       0.1
 2 C  s               0.1       4.3       3.8       0.1       1.5       0.5
 2 C  pz              2.2       1.6       0.2       0.2       1.0       2.8
 2 C  px              0.2       0.1       0.2       0.3       0.2       1.5
 2 C  py              7.1       0.0       1.5       0.2       0.2       0.3
 2 C  dz2             0.2       0.0       0.2       0.0       0.0       0.3
 2 C  dxz             0.0       0.0       0.0       0.0       0.0       0.2
 2 C  dx2y2           0.5       0.1       0.0       0.3       0.0       0.0
 2 C  dxy             0.0       0.1       0.0       0.0       0.0       0.4
 3 C  s               1.3       0.0       0.9       0.1       0.3       0.6
 3 C  pz              0.0       0.0       0.1       0.3       0.1       0.1
 3 C  px              0.6       0.5       0.2       0.2       0.1       0.2
 3 C  py              0.4       0.4       0.3       1.2       0.3       0.6
 3 C  dz2             0.1       0.0       0.2       0.0       0.1       0.0
 3 C  dxz             0.6       0.2       0.1       0.2       0.0       0.0
 3 C  dx2y2           0.2       0.2       0.0       0.4       0.1       0.0
 3 C  dxy             0.1       0.0       0.1       0.0       0.0       0.0
 4 O  s               0.3       0.0       0.3       0.2       0.2       0.2
 4 O  px              0.3       0.1       0.1       0.1       0.0       0.9
 5 O  s               0.6       4.0       0.9       3.0       0.0       0.5
 5 O  pz              0.1       0.4       0.0       0.3       0.1       0.2
 5 O  px              0.0       2.4       0.1       1.7       1.1       0.8
 5 O  py              0.6       0.9       0.1       0.9       0.1       0.3
 5 O  dxz             0.1       0.1       0.0       0.2       0.0       0.0
 5 O  dx2y2           0.1       0.1       0.1       0.1       0.0       0.0
 5 O  dxy             0.1       0.1       0.0       0.0       0.0       0.0
 6 C  s               0.2       0.1       0.6      11.7       0.3       2.3
 6 C  pz              0.1       3.9       0.2       0.7       0.0       0.4
 6 C  px              0.2      14.9       0.4       4.7       0.1       1.4
 6 C  py              3.9       1.1       7.2       0.5       0.7       0.3
 6 C  dz2             0.0       0.5       0.0       0.1       0.3       0.0
 6 C  dxz             0.1       0.8       0.2       0.1       0.0       0.1
 6 C  dyz             0.3       0.5       0.4       0.2       0.1       0.1
 6 C  dx2y2           0.0       0.6       0.0       0.4       0.1       0.2
 6 C  dxy             0.0       0.4       0.2       0.1       0.1       0.0
 7 C  s               0.2       3.0       0.1       3.3       0.3       0.5
 7 C  pz              0.1       1.4       0.1       0.4       5.4       0.1
 7 C  px              0.1       0.8       0.1       0.8       5.8       0.2
 7 C  py              1.6       0.2       4.2       1.4       4.9       1.2
 7 C  dz2             0.0       0.6       0.0       0.1       0.0       0.0
 7 C  dxz             0.0       0.0       0.0       0.1       0.1       0.1
 7 C  dyz             0.2       0.1       0.5       0.1       0.0       0.0
 7 C  dx2y2           0.0       0.5       0.0       0.2       0.6       0.0
 7 C  dxy             0.1       0.0       0.2       0.1       0.3       0.0
 8 H  s               1.7       3.5      11.2       6.0       1.6      16.1
 9 H  s              12.6       3.9       1.8       3.1       1.0       0.2
10 H  s               1.1       2.3       0.5       1.4       5.9       1.4
11 H  s              10.7       0.1       6.4       0.8       0.5      20.9
12 H  s               0.6       0.0       2.8       8.4       9.4       3.3
13 H  s               7.8      11.0       1.6       0.2       4.6       8.9
14 H  s              15.1       1.3      10.7       0.5       1.5       0.6
15 H  s               3.5       0.8       5.3      14.6       0.4       0.8
16 H  s               7.2      10.5      13.0       5.2       1.1       1.9
17 H  s               0.7       1.9       0.8       5.6      29.4       0.5
18 H  s               1.2       2.1       4.6       8.5      11.2       3.2
19 H  s               3.3      10.1       6.4       0.6       0.5       0.6

                     42        43        44        45        46        47   
                   0.12719   0.13374   0.13544   0.14113   0.18244   0.19057
                   0.00000   0.00000   0.00000   0.00000   0.00000   0.00000
                  --------  --------  --------  --------  --------  --------
 0 C  s               0.0       0.2       1.2       0.1       0.7       0.7
 0 C  pz              0.0       0.3       2.0       0.3       3.5      11.2
 0 C  px              0.3       2.1       4.1       5.6       1.2       0.7
 0 C  py              0.0       0.0       7.4       8.2       0.7       0.1
 0 C  dz2             0.0       0.1       0.1       0.0       1.0       2.6
 0 C  dxz             0.2       0.0       0.0       0.0       0.0       0.8
 0 C  dyz             0.3       0.0       0.2       0.0       0.0       0.0
 0 C  dx2y2           0.0       0.0       0.7       0.5       0.0       0.1
 0 C  dxy             0.0       0.1       0.2       0.6       0.1       0.1
 1 C  s               0.1       0.4       0.0       0.3       1.1       6.6
 1 C  pz              0.3       0.2       1.8       0.4       2.4       4.0
 1 C  px              5.3       0.2       0.0       2.9       0.6      10.6
 1 C  py              5.0       0.4       0.0       2.6       0.4       8.6
 1 C  dz2             0.0       0.1       0.3       0.1       0.6       0.7
 1 C  dxz             0.2       0.0       0.0       0.0       0.0       0.9
 1 C  dyz             0.2       0.0       0.8       0.1       0.0       0.2
 1 C  dx2y2           0.0       0.0       0.0       0.1       0.0       1.4
 1 C  dxy             0.1       0.0       0.1       0.5       0.1       2.1
 2 C  s               0.2       0.3       1.1       0.0       0.0       3.5
 2 C  pz              1.6       2.1       3.6       0.4       0.4       7.8
 2 C  px              0.1       0.1       0.6       1.3       1.4       4.1
 2 C  py              2.9       0.2       5.4       0.0       0.2       3.1
 2 C  dz2             0.0       0.0       0.2       0.0       0.0       0.1
 2 C  dxz             0.0       0.0       0.0       0.1       0.4       1.2
 2 C  dyz             0.6       0.0       0.1       0.2       0.0       1.8
 2 C  dx2y2           0.1       0.0       0.2       0.2       0.0       0.6
 2 C  dxy             0.1       0.0       0.2       0.3       0.2       0.0
 3 C  s               0.7       0.1       0.2       2.0       4.8       1.2
 3 C  pz              0.3       0.1       0.3       0.3       0.2       3.1
 3 C  px              0.5       0.5       0.3       0.1       1.2       1.0
 3 C  py              0.6       0.2       0.1       0.5       0.2       0.5
 3 C  dz2             0.0       0.0       0.0       0.0       0.5       0.4
 3 C  dxz             0.3       0.0       0.3       0.0       0.6       0.0
 3 C  dyz             0.0       0.0       0.0       0.1       0.1       0.2
 3 C  dx2y2           0.3       0.0       0.0       0.1       0.1       0.0
[...]
 2 C  py              0.1       0.2       0.0       0.1       0.0       0.0
 2 C  dz2             0.8       0.3       0.2       0.4       0.0       0.0
 2 C  dxz             8.9       2.6       0.1       0.0       0.2       0.4
 2 C  dyz             0.6       0.1       0.1       0.0       0.6       0.0
 2 C  dx2y2           1.4       0.0       0.0       0.9       1.5       1.1
 2 C  dxy             4.5       1.3       0.0       2.1       0.5       0.0
 3 C  s               0.7       0.2       0.0       0.1       0.1       1.0
 3 C  pz              0.0       0.1       0.0       0.1       0.8       0.5
 3 C  px              0.4       0.4       0.0       0.6       0.0       0.9
 3 C  py              0.1       0.3       0.0       0.2       0.1       1.9
 3 C  dz2             0.1       1.8       1.0       1.6       4.1       1.2
 3 C  dxz             0.0       1.4       0.9       7.1       0.6       1.0
 3 C  dyz             0.0       0.0       0.3       0.1       0.1       1.1
 3 C  dx2y2           0.1       0.0       0.2       2.7       7.3       0.1
 3 C  dxy             0.3       0.1       0.1       1.1       1.0       2.4
 4 O  s               0.0       0.0       0.0       1.2       0.3       0.3
 4 O  pz              0.0       0.0       0.0       0.0       0.3       0.2
 4 O  px              0.0       0.0       0.0       0.3       0.0       0.4
 4 O  py              0.0       0.0       0.0       0.4       0.2       0.3
 4 O  dz2             0.5      22.8       2.0       0.1       7.9       0.2
 4 O  dxz            26.1      37.3       2.0       5.5       0.1       0.0
 4 O  dyz             0.0       1.1       3.2       2.1      12.1       9.0
 4 O  dx2y2           0.7       9.8       1.0       0.1       0.5       0.1
 4 O  dxy             0.3       0.8       0.2      14.0       0.0      17.1
 5 O  s               0.0       0.1       0.0       0.3       0.1       7.8
 5 O  pz              0.1       0.0       1.0       0.5       0.1       0.0
 5 O  px              0.0       0.0       0.2       0.7       1.0       0.1
 5 O  py              0.0       0.5       0.0       0.7       0.3       1.0
 5 O  dz2             0.1       4.7       4.9      36.4       1.0      12.4
 5 O  dxz             0.0       0.4      14.5       0.3      14.2      28.0
 5 O  dyz             1.9       0.2      34.5       5.9      11.4       1.8
 5 O  dx2y2           0.1       3.2       8.6       4.8      12.2       2.0
 5 O  dxy             0.9       0.4       3.5       2.4      16.2       2.0
 6 C  s               0.0       0.3       0.2       0.3       0.2       0.5
 6 C  pz              0.0       0.2       0.4       0.1       0.0       0.1
 6 C  px              0.0       0.1       0.0       0.6       0.2       0.6
 6 C  py              0.0       0.1       0.0       0.0       0.0       0.1
 6 C  dz2             0.1       0.0       4.6       0.0       0.4       0.8
 6 C  dxz             0.2       1.2       6.8       3.2       0.2       0.6
 6 C  dyz             0.0       0.4       1.0       0.2       0.9       0.3
 6 C  dx2y2           0.0       0.0       3.2       0.9       1.7       0.2
 6 C  dxy             0.0       0.5       0.0       0.5       0.0       1.6
 7 C  s               0.0       0.1       0.1       0.0       0.0       0.0
 7 C  pz              0.0       0.0       0.2       0.0       0.0       0.0
 7 C  px              0.0       0.1       0.1       0.0       0.0       0.0
 7 C  dz2             0.1       0.0       2.4       0.0       0.2       0.0
 7 C  dxz             0.1       0.4       1.6       0.3       0.0       0.0
 7 C  dx2y2           0.0       0.1       0.2       0.0       0.1       0.1
 7 C  dxy             0.0       0.0       0.1       0.0       0.1       0.0
 8 H  s               0.2       0.0       0.0       0.0       0.0       0.0
13 H  s               0.2       0.0       0.0       0.0       0.0       0.0
16 H  s               0.0       0.1       0.0       0.0       0.0       0.0
17 H  s               0.0       0.0       0.2       0.0       0.0       0.0

                    132       133       134       135   
                   3.12211   3.32401   3.48653   3.55926
                   0.00000   0.00000   0.00000   0.00000
                  --------  --------  --------  --------
 2 C  s               0.0       0.2       0.1       0.0
 2 C  px              0.0       0.1       0.3       0.0
 2 C  dz2             0.4       0.0       0.0       0.0
 2 C  dxz             0.4       0.0       0.6       0.0
 2 C  dx2y2           0.1       0.0       1.2       0.0
 2 C  dxy             0.1       0.6       0.0       0.3
 3 C  s               0.0       3.6       0.1       6.4
 3 C  pz              0.2       0.3       0.2       0.0
 3 C  px              0.1       1.3       0.5       0.2
 3 C  py              0.0       0.1       3.0       4.1
 3 C  dz2             0.4       0.0       0.0       1.7
 3 C  dxz             0.0       1.9       0.2       0.1
 3 C  dyz            15.4       0.3       4.1       0.7
 3 C  dx2y2           0.1       4.2       0.0       9.3
 3 C  dxy             4.3       0.5      16.4       0.8
 4 O  s               0.0       1.7       0.8       4.3
 4 O  pz              0.7       0.1       0.1       0.0
 4 O  px              0.3       0.1       0.4       0.3
 4 O  py              0.0       0.7       0.7       3.1
 4 O  dz2             0.0       3.4       1.5      12.1
 4 O  dxz             2.0       0.1       0.1       0.0
 4 O  dyz            41.4       2.3       3.9       0.4
 4 O  dx2y2           1.5      10.3      12.2      29.0
 4 O  dxy            12.4       3.0      10.4      12.0
 5 O  s               0.2       0.1       0.8       0.4
 5 O  pz              0.0       0.4       0.6       0.0
 5 O  px              0.0       2.0       2.6       0.1
 5 O  py              0.0       0.3       0.4       0.1
 5 O  dz2            10.7       0.0       0.3       0.1
 5 O  dxz             3.4       4.6       3.3       4.6
 5 O  dyz             0.3       5.5       6.7       0.0
 5 O  dx2y2           2.4      25.0       0.2       7.6
 5 O  dxy             0.9      18.1      26.0       0.5
 6 C  s               0.0       0.8       0.3       0.0
 6 C  pz              0.0       0.1       0.1       0.0
 6 C  px              0.0       1.3       0.3       0.1
 6 C  py              0.0       0.3       0.0       0.0
 6 C  dz2             0.2       0.6       0.0       0.1
 6 C  dxz             0.6       1.7       0.3       0.0
 6 C  dyz             0.5       0.3       0.0       0.1
 6 C  dx2y2           0.2       1.3       0.8       0.0
 6 C  dxy             0.0       2.0       0.0       0.6
 7 C  dz2             0.1       0.0       0.0       0.0


                      *****************************
                      * MAYER POPULATION ANALYSIS *
                      *****************************

  NA   - Mulliken gross atomic population
  ZA   - Total nuclear charge
  QA   - Mulliken gross atomic charge
  VA   - Mayer's total valence
  BVA  - Mayer's bonded valence
  FA   - Mayer's free valence

  ATOM       NA         ZA         QA         VA         BVA        FA
  0 C      6.2889     6.0000    -0.2889     4.0136     4.0136    -0.0000
  1 C      6.2005     6.0000    -0.2005     4.1689     4.1689    -0.0000
  2 C      6.1226     6.0000    -0.1226     3.9323     3.9323    -0.0000
  3 C      5.9082     6.0000     0.0918     4.4036     4.4036     0.0000
  4 O      8.2132     8.0000    -0.2132     2.2787     2.2787     0.0000
  5 O      8.2348     8.0000    -0.2348     2.2727     2.2727    -0.0000
  6 C      6.0156     6.0000    -0.0156     4.0517     4.0517     0.0000
  7 C      6.3027     6.0000    -0.3027     4.0149     4.0149     0.0000
  8 H      0.8924     1.0000     0.1076     0.9504     0.9504    -0.0000
  9 H      0.9011     1.0000     0.0989     0.9556     0.9556     0.0000
 10 H      0.8837     1.0000     0.1163     0.9573     0.9573    -0.0000
 11 H      0.8916     1.0000     0.1084     0.9610     0.9610     0.0000
 12 H      0.9088     1.0000     0.0912     0.9422     0.9422     0.0000
 13 H      0.8875     1.0000     0.1125     0.9524     0.9524     0.0000
 14 H      0.9076     1.0000     0.0924     0.9751     0.9751    -0.0000
 15 H      0.8923     1.0000     0.1077     0.9794     0.9794     0.0000
 16 H      0.8988     1.0000     0.1012     0.9500     0.9500     0.0000
 17 H      0.8880     1.0000     0.1120     0.9548     0.9548    -0.0000
 18 H      0.8870     1.0000     0.1130     0.9570     0.9570     0.0000
 19 H      0.8747     1.0000     0.1253     0.9656     0.9656     0.0000

  Mayer bond orders larger than 0.100000
B(  0-C ,  1-C ) :   1.1543 B(  0-C ,  8-H ) :   0.9521 B(  0-C ,  9-H ) :   0.9538 
B(  0-C , 10-H ) :   0.9494 B(  1-C ,  2-C ) :   1.1118 B(  1-C , 11-H ) :   0.9196 
B(  1-C , 12-H ) :   0.9281 B(  2-C ,  3-C ) :   1.0179 B(  2-C , 13-H ) :   0.8930 
B(  2-C , 14-H ) :   0.9103 B(  3-C ,  4-O ) :   2.0327 B(  3-C ,  5-O ) :   1.2184 
B(  5-O ,  6-C ) :   0.9232 B(  6-C ,  7-C ) :   1.1728 B(  6-C , 15-H ) :   0.9125 
B(  6-C , 16-H ) :   0.9371 B(  7-C , 17-H ) :   0.9447 B(  7-C , 18-H ) :   0.9493 
B(  7-C , 19-H ) :   0.9470 

-------
TIMINGS
-------

Total SCF time: 0 days 0 hours 0 min 8 sec 

Total time                  ....       8.293 sec
Sum of individual times     ....       7.812 sec  ( 94.2%)

SCF preparation             ....       0.170 sec  (  2.1%)
Fock matrix formation       ....       6.817 sec  ( 82.2%)
  Startup                   ....       0.053 sec  (  0.8% of F)
  Split-RI-J                ....       2.338 sec  ( 34.3% of F)
  XC integration            ....       3.943 sec  ( 57.8% of F)
    XC Preparation          ....       0.000 sec  (  0.0% of XC)
    Basis function eval.    ....       1.367 sec  ( 34.7% of XC)
    Density eval.           ....       0.470 sec  ( 11.9% of XC)
    XC-Functional eval.     ....       0.358 sec  (  9.1% of XC)
    XC-Potential eval.      ....       0.728 sec  ( 18.5% of XC)
Diagonalization             ....       0.000 sec  (  0.0%)
Density matrix formation    ....       0.176 sec  (  2.1%)
Total Energy calculation    ....       0.036 sec  (  0.4%)
Population analysis         ....       0.077 sec  (  0.9%)
Orbital Transformation      ....       0.052 sec  (  0.6%)
Orbital Orthonormalization  ....       0.000 sec  (  0.0%)
DIIS solution               ....       0.322 sec  (  3.9%)
  MO trafo                  ....       0.000 sec  (  0.0 % of DIIS)
  Orb grad                  ....       0.000 sec  (  0.0 % of DIIS)
  Energy W gradient         ....       0.000 sec  (  0.0 % of DIIS)
  DIIS error                ....       0.005 sec  (  1.6 % of DIIS)
  DIIS work                 ....       0.276 sec  ( 85.9 % of DIIS)
  Form Q                    ....       0.000 sec  (  0.0 % of DIIS)
  Form QpQm                 ....       0.000 sec  (  0.0 % of DIIS)
  Exp/Cayley                ....       0.000 sec  (  0.0 % of DIIS)
  Orb update                ....       0.000 sec  (  0.0 % of DIIS)
  Wake-sleep                ....       0.015 sec  (  4.7 % of DIIS)
SOSCF solution              ....       0.161 sec  (  1.9%)
  MO trafo                  ....       0.053 sec  ( 33.2 % of SOSCF)
  Orb grad                  ....       0.003 sec  (  1.9 % of SOSCF)
  Rot update                ....       0.065 sec  ( 40.5 % of SOSCF)
  Step                      ....       0.039 sec  ( 24.4 % of SOSCF)
Finished LeanSCF after   8.4 sec

Maximum memory used throughout the entire LEANSCF-calculation: 12.8 MB


-------------------------------------------------------------------------------
                          DFT DISPERSION CORRECTION                            
                                                                               
                                DFTD4 V3.4.0                                   
-------------------------------------------------------------------------------
The PBE functional is recognized
Active option DFTDOPT                   ...         5   

-------------------------   ----------------
Dispersion correction           -0.015239303
-------------------------   ----------------

------------------   -----------------
gCP correction             0.090192638
------------------   -----------------

-------------------------   --------------------
FINAL SINGLE POINT ENERGY      -385.458524473006
-------------------------   --------------------


------------------------------------------------------------------------------
                              ORCA PROPERTY CALCULATIONS
------------------------------------------------------------------------------

GBWName                                 ... sp.gbw
Number of atoms                         ...     20
Number of basis functions               ...    136
Max core memory                         ...   1024 MB

Electric properties:
Dipole moment                           ... YES
Quadrupole moment                       ...  NO
Static polarizability (Dipole/Dipole)   ...  NO
Static polarizability (Dipole/Quad.)    ...  NO
Static polarizability (Quad./Quad.)     ...  NO
Static polarizability (Velocity)        ...  NO

Atomic electric properties:
Dipole moment                           ...  NO
Quadrupole moment                       ...  NO
Static polarizability                   ...  NO

Choice of electric origin               ... Center of mass
Position of electric origin             ...    -0.000009    -0.000008     0.000004

General magnetic properties:
Magnetizability                         ...  NO

EPR properties:
g-Tensor (aka g-matrix)                 ...  NO
Zero-Field splitting spin-orbit         ...  NO
Zero-field splitting spin-spin          ...  NO
Hyperfine couplings                     ...  NO (   0 nuclei)
Quadrupole couplings                    ...  NO (   0 nuclei)
Contact density                         ...  NO (   0 nuclei)

NMR properties:
Chemical shifts                         ...  NO (   0 nuclei)
Spin-rotation constants                 ...  NO (   0 nuclei)
Spin-spin couplings                     ...  NO (   0 nuclei,    0 pairs)

Choice of magnetic origin               ... GIAO
Position of magnetic origin             ...     0.000000     0.000000     0.000000

Properties with geometric perturbations:
SCF Hessian                             ...  NO
IR spectrum                             ...  NO
VCD spectrum                            ...  NO
X-ray spectroscopy properties:
SCF XES/XAS/RIXS spectra                ...  NO


-------------
DIPOLE MOMENT
-------------

Method             : SCF
Type of density    : Electron Density
Multiplicity       :   1
Irrep              :   0
Energy             :  -385.5334778077519786 Eh
Relativity type    : 
Basis              : AO
                                X                 Y                 Z
Electronic contribution:      1.843608191       1.506772695      -1.489665620
Nuclear contribution   :     -1.636817676      -2.122861705       1.594995534
                        -----------------------------------------
Total Dipole Moment    :      0.206790515      -0.616089010       0.105329914
                        -----------------------------------------
Magnitude (a.u.)       :      0.658348218
Magnitude (Debye)      :      1.673388184



--------------------
Rotational spectrum 
--------------------
 
Rotational constants in cm-1:             0.155005             0.034058             0.032799 
Rotational constants in MHz :          4646.930162          1021.040485           983.281542 

Dipole components along the rotational axes: 
x,y,z [a.u.] :     0.200216     0.460627     0.425628 
x,y,z [Debye]:     0.508908     1.170820     1.081860 

 

Dipole moment calculation done in   0.0 sec 

Maximum memory used throughout the entire PROP-calculation: 8.0 MB

--------------------------------
SUGGESTED CITATIONS FOR THIS RUN
--------------------------------

Below you find a list of papers that are relevant to this ORCA run
We neither can nor want to force you to cite these papers, but we appreciate if you do
You receive ORCA, which is the product of decades of hard work by many enthusiastic individuals, for free
The only thing we kindly ask in return is that you cite our papers,
We deeply appreciate it, if you show your appreciation for ORCA by not just citing the generic ORCA reference.

Please note that relegating all ORCA citations to the supporting information does *not* help us.
SI sections are not indexed - citations you put there will not count into any citation statistics
But we need these citations in order to attract the funding resources that allow us to do what we are doing

Therefore, if you are a happy ORCA user, please consider citing a few of the papers listed below in the main body of your paper

In addition to the list printed below, the program has created the file sp.bibtex that contains the list in bibtex format
You can import this file easily into all common literature databanks and citation aid programs


List of essential papers. We consider these as the minimum necessary citations

  1. Neese,F.
     Software update: the ORCA program system, version 5.0
     WIRES Comput. Molec. Sci., 2022 12(1)e1606
     doi.org/10.1002/wcms.1606

List of papers to cite with high priority. The work reported in these papers was absolutely
necessary for this run to complete.
Our perspective: the developers of density functionals and basis sets usually get cited in chemistry papers
Good! But without the algorithms to do something with them, the functionals or basis sets would not do anything.
Hence, in our opinion, the algorithm design and method developments papers are equally worthy of getting cited

  1. Neese,F.
     An improvement of the resolution of the identity approximation for the formation of the Coulomb matrix
     J. Comp. Chem., 2003 24(14)1740-1747
     doi.org/10.1002/jcc.10318
  2. Neese,F.
     The SHARK Integral Generation and Digestion System
     J. Comp. Chem., 2022  1-16
     doi.org/10.1002/jcc.26942
  3. Caldeweyher,E.; Bannwarth,C.; Grimme,S.
     Extension of the D3 dispersion coefficient model
     J. Chem. Phys., 2017 147 034112-XXXX
     doi.org/10.1063/1.4993215
  4. Caldeweyher,E.; Ehlert,S.; Hansen,A.; Neugebauer,H.; Spicher,S.; Bannwarth,C.; Grimme,S.
     A generally applicable atomic-charge dependent London dispersion correction
     J. Chem. Phys., 2019 150 154122-XXXX
     doi.org/10.1063/1.5090222
  5. Caldeweyher,E.; Mewes,J.; Ehlert,S.; Grimme,S.
     Extension and evaluation of the D4 London-dispersion model for periodic systems
     Phys. Chem. Chem. Phys., 2020 22(16)8499-8512
     doi.org/10.1039/D0CP00502A

List of suggested additional citations. These are papers that are important in the 'surrounding' of 
of this run, or papers that preceded the highly important papers. If you like your results we are grateful for a citation.

  1. Neese,F.
     The ORCA program system
     WIRES Comput. Molec. Sci., 2012 2(1)73-78
     doi.org/10.1002/wcms.81
  2. Neese,F.
     Software update: the ORCA program system, version 4.0
     WIRES Comput. Molec. Sci., 2018 8(1)1-6
     doi.org/10.1002/wcms.1327
  3. Neese,F.; Wennmohs,F.; Becker,U.; Riplinger,C.
     The ORCA quantum chemistry program package
     J. Chem. Phys., 2020 152 Art. No. L224108
     doi.org/10.1063/5.0004608

List of optional additional citations

  1. Neese,F.
     Approximate second-order SCF convergence for spin unrestricted wavefunctions
     Chem. Phys. Lett., 2000 325(1-3)93-98
     doi.org/10.1016/s0009-2614(00)00662-x

Timings for individual modules:

Sum of individual times          ...       10.133 sec (=   0.169 min)
Startup calculation              ...        0.825 sec (=   0.014 min)   8.1 %
SCF iterations                   ...        9.204 sec (=   0.153 min)  90.8 %
Property calculations            ...        0.104 sec (=   0.002 min)   1.0 %
                             ****ORCA TERMINATED NORMALLY****
TOTAL RUN TIME: 0 days 0 hours 0 minutes 10 seconds 837 msec
