31
 energy: -767.462875249662 gnorm: 0.000797583276 xtb: 6.7.1 (edcfbbe)
C           -3.49893280634150        1.71535871012353       -0.91969586710177
C           -3.15334898750523        0.25311432413470       -0.64358374619589
H           -3.58844802914610       -0.37563984348091       -1.42573412020147
C           -1.66179707539350       -0.05392869238587       -0.58619403169392
C           -1.22696110118902       -1.36116440002933       -0.92812246701663
C            0.09863296218938       -1.71033690961795       -0.86880811956004
C            1.07784964454680       -0.76981673485040       -0.45640639948629
C            2.44756736553852       -1.09265724476083       -0.38398603949914
C            3.36867773241585       -0.14781301286691        0.02603270879684
C            2.95134368823258        1.15867463608318        0.37464242393661
C            1.61723811794110        1.48824196225802        0.30527133818830
C            0.64458530801211        0.54870106350419       -0.10602427893630
C           -0.73142331086307        0.87473335984095       -0.17712153968924
O            4.67688132236454       -0.55566585477082        0.06907943861992
C            5.66207479483289        0.39652142900853        0.49986778667266
C           -3.75285381994293       -0.25572346245384        0.65192337733612
O           -4.26455931368438       -1.35349094383340        0.79200030798860
O           -3.62532996300491        0.62076003374165        1.66910404982735
H           -3.12203805257273        2.38571042672250       -0.14511782802121
H           -3.06823528737323        2.01609504236891       -1.87860028429526
H           -4.58419082866702        1.83895577269644       -0.97403784641792
H           -1.96460586450112       -2.09152550625793       -1.24943547192745
H            0.41491617911388       -2.71284127037848       -1.14260294368434
H            2.78398460336666       -2.09057071256078       -0.64946261218430
H            3.66933862291608        1.90338694515345        0.69477334469750
H            1.29783994043249        2.49161965403786        0.57250493457657
H           -1.03080371626008        1.88121996127982        0.09867397634917
H            5.69843851204761        1.26023626671260       -0.17343534981415
H            6.61512648178661       -0.13252254884776        0.46332870692314
H            5.46838193310295        0.72850202545997        1.52601282544345
H           -3.98957329300356        0.21231231451337        2.47352502451699
31
 energy: -767.462876335004 gnorm: 0.000333808536 xtb: 6.7.1 (edcfbbe)
C           -3.49945957463545        1.71574866862155       -0.91962451059629
C           -3.15341613774784        0.25365425402391       -0.64401011911208
H           -3.58880127320507       -0.37485856471232       -1.42619109160160
C           -1.66179272565137       -0.05340073396363       -0.58670401538114
C           -1.22716630054104       -1.36074714945135       -0.92810828005632
C            0.09826473364103       -1.71018527064633       -0.86819005436167
C            1.07769422945960       -0.76991251139989       -0.45585114581650
C            2.44735708965552       -1.09294834687326       -0.38301053451263
C            3.36862696007729       -0.14797034592381        0.02637090315128
C            2.95134323622637        1.15841790999599        0.37478351037588
C            1.61738926240376        1.48814070501858        0.30514087038927
C            0.64463591215478        0.54889007318518       -0.10620536776433
C           -0.73126049023838        0.87510588230827       -0.17785091124880
O            4.67716647989341       -0.55569538719491        0.06864134927397
C            5.66249474140101        0.39679087856137        0.49974458908911
C           -3.75218310710688       -0.25605669762143        0.65177289883761
O           -4.26364119504954       -1.35384922998966        0.79092840575664
O           -3.62523667980196        0.61994334221025        1.66946653712216
H           -3.12264649144882        2.38626273547502       -0.14518734164458
H           -3.06897623865683        2.01662285933597       -1.87871620859459
H           -4.58494006634342        1.83880122202349       -0.97393014332929
H           -1.96476589323247       -2.09108606527557       -1.24931084767680
H            0.41441373900411       -2.71281883449626       -1.14146720316270
H            2.78360913195502       -2.09097966697547       -0.64795803000657
H            3.66937366451041        1.90290958569443        0.69499999095466
H            1.29820282479472        2.49153171754536        0.57224655149683
H           -1.03074589520895        1.88163834289256        0.09731511885313
H            5.69866896119166        1.26025098792964       -0.17372455390176
H            6.61533874673494       -0.13248181447774        0.46324877256172
H            5.46833476891185        0.72851098638443        1.52575089328232
H           -3.98810692377125        0.21021689190974        2.47400108682299
31
 energy: -767.462876335004 gnorm: 0.000333808536 xtb: 6.7.1 (edcfbbe)
C           -3.49945957463545        1.71574866862155       -0.91962451059629
C           -3.15341613774784        0.25365425402391       -0.64401011911208
H           -3.58880127320507       -0.37485856471232       -1.42619109160160
C           -1.66179272565137       -0.05340073396363       -0.58670401538114
C           -1.22716630054104       -1.36074714945135       -0.92810828005632
C            0.09826473364103       -1.71018527064633       -0.86819005436167
C            1.07769422945960       -0.76991251139989       -0.45585114581650
C            2.44735708965552       -1.09294834687326       -0.38301053451263
C            3.36862696007729       -0.14797034592381        0.02637090315128
C            2.95134323622637        1.15841790999599        0.37478351037588
C            1.61738926240376        1.48814070501858        0.30514087038927
C            0.64463591215478        0.54889007318518       -0.10620536776433
C           -0.73126049023838        0.87510588230827       -0.17785091124880
O            4.67716647989341       -0.55569538719491        0.06864134927397
C            5.66249474140101        0.39679087856137        0.49974458908911
C           -3.75218310710688       -0.25605669762143        0.65177289883761
O           -4.26364119504954       -1.35384922998966        0.79092840575664
O           -3.62523667980196        0.61994334221025        1.66946653712216
H           -3.12264649144882        2.38626273547502       -0.14518734164458
H           -3.06897623865683        2.01662285933597       -1.87871620859459
H           -4.58494006634342        1.83880122202349       -0.97393014332929
H           -1.96476589323247       -2.09108606527557       -1.24931084767680
H            0.41441373900411       -2.71281883449626       -1.14146720316270
H            2.78360913195502       -2.09097966697547       -0.64795803000657
H            3.66937366451041        1.90290958569443        0.69499999095466
H            1.29820282479472        2.49153171754536        0.57224655149683
H           -1.03074589520895        1.88163834289256        0.09731511885313
H            5.69866896119166        1.26025098792964       -0.17372455390176
H            6.61533874673494       -0.13248181447774        0.46324877256172
H            5.46833476891185        0.72851098638443        1.52575089328232
H           -3.98810692377125        0.21021689190974        2.47400108682299
