 Entering Gaussian System
 *********************************************
 Gaussian 98:
 frequency output generated by the xtb code
 *********************************************
                         Standard orientation:
 --------------------------------------------------------------------
  Center     Atomic     Atomic              Coordinates (Angstroms)
  Number     Number      Type              X           Y           Z
 --------------------------------------------------------------------
    1          6             0       -0.000010   -0.124454   -0.000031
    2          6             0       -1.243219    0.746716   -0.112267
    3         17             0       -2.707145   -0.287267   -0.249076
    4          6             0        1.243186    0.746713    0.112378
    5         17             0        2.707127   -0.287275    0.248990
    6          1             0       -0.079444   -0.765195    0.879105
    7          1             0        0.079433   -0.765019   -0.879293
    8          1             0       -1.384085    1.363366    0.773077
    9          1             0       -1.220638    1.367383   -1.005694
   10          1             0        1.220592    1.367205    1.005927
   11          1             0        1.384045    1.363537   -0.772845
 --------------------------------------------------------------------
     1 basis functions        1 primitive gaussians
     1 alpha electrons        1 beta electrons
 
 Harmonic frequencies (cm**-1), IR intensities (km*mol⁻¹),
 Raman scattering activities (A**4/amu), Raman depolarization ratios,
 reduced masses (AMU), force constants (mDyne/A) and normal coordinates:
                      1                      2                      3
                        a                      a                      a 
 Frequencies --    83.3063                99.5522               129.5127
 Red. masses --    12.8158                 9.5074                24.5651
 Frc consts  --     0.0000                 0.0000                 0.0000
 IR Inten    --     1.9458                 0.0007                 3.0035
 Raman Activ --     0.0000                 0.0000                 0.0000
 Depolar     --     0.0000                 0.0000                 0.0000
 Atom AN      X      Y      Z        X      Y      Z        X      Y      Z
   1   6    -0.07  -0.00   0.70     0.00  -0.00  -0.00     0.00  -0.43  -0.00
   2   6    -0.01  -0.00   0.09    -0.05  -0.00   0.52     0.09  -0.28   0.00
   3  17     0.03   0.00  -0.30     0.02   0.00  -0.19    -0.41   0.33  -0.04
   4   6    -0.01  -0.00   0.09     0.05  -0.00  -0.52    -0.09  -0.28  -0.00
   5  17     0.03  -0.00  -0.30    -0.02   0.00   0.19     0.41   0.33   0.04
   6   1    -0.03   0.16   0.32     0.10  -0.00   0.01    -0.00  -0.12   0.00
   7   1    -0.03  -0.16   0.32    -0.10  -0.00  -0.01     0.00  -0.12  -0.00
   8   1    -0.09   0.07  -0.04    -0.02  -0.15   0.26     0.07  -0.07   0.00
   9   1     0.09  -0.07  -0.02    -0.02   0.15   0.26     0.07  -0.08   0.01
  10   1     0.09   0.07  -0.02     0.02   0.15  -0.26    -0.07  -0.08  -0.01
  11   1    -0.09  -0.07  -0.04     0.02  -0.15  -0.26    -0.07  -0.07  -0.00
                      4                      5                      6
                        a                      a                      a 
 Frequencies --   287.8355               344.5449               681.8780
 Red. masses --    26.4119                15.2671                17.4411
 Frc consts  --     0.0000                 0.0000                 0.0000
 IR Inten    --     0.2556                 5.2006                 3.0750
 Raman Activ --     0.0000                 0.0000                 0.0000
 Depolar     --     0.0000                 0.0000                 0.0000
 Atom AN      X      Y      Z        X      Y      Z        X      Y      Z
   1   6     0.00  -0.35  -0.00     0.46  -0.00   0.04    -0.10   0.00  -0.01
   2   6     0.25  -0.11   0.02     0.22  -0.39   0.02    -0.39  -0.42  -0.04
   3  17     0.54   0.19   0.05    -0.32   0.06  -0.03     0.28   0.23   0.03
   4   6    -0.25  -0.11  -0.02     0.22   0.39   0.02    -0.39   0.42  -0.04
   5  17    -0.54   0.19  -0.05    -0.32  -0.06  -0.03     0.28  -0.23   0.03
   6   1    -0.00  -0.10   0.00     0.22   0.00   0.02     0.05   0.00   0.01
   7   1     0.00  -0.10  -0.00     0.22  -0.00   0.02     0.05  -0.00   0.01
   8   1     0.12  -0.02   0.01     0.07  -0.11   0.00    -0.08  -0.09  -0.02
   9   1     0.12  -0.02   0.01     0.07  -0.11   0.01    -0.08  -0.09   0.00
  10   1    -0.12  -0.02  -0.01     0.07   0.11   0.01    -0.08   0.09   0.00
  11   1    -0.12  -0.02  -0.01     0.07   0.11   0.00    -0.08   0.09  -0.02
                      7                      8                      9
                        a                      a                      a 
 Frequencies --   765.2461               774.9613               835.8618
 Red. masses --    14.2515                 1.8483                 3.2174
 Frc consts  --     0.0000                 0.0000                 0.0000
 IR Inten    --     1.0249                 9.6637                 0.0018
 Raman Activ --     0.0000                 0.0000                 0.0000
 Depolar     --     0.0000                 0.0000                 0.0000
 Atom AN      X      Y      Z        X      Y      Z        X      Y      Z
   1   6    -0.00   0.12   0.00     0.02   0.00  -0.17     0.00   0.00   0.00
   2   6    -0.49  -0.35  -0.05     0.01   0.00  -0.14    -0.03  -0.00   0.30
   3  17     0.19   0.19   0.02    -0.00  -0.00   0.03     0.01   0.00  -0.06
   4   6     0.49  -0.35   0.05     0.01  -0.00  -0.14     0.03  -0.00  -0.30
   5  17    -0.19   0.19  -0.02    -0.00   0.00   0.03    -0.01   0.00   0.06
   6   1    -0.00   0.02  -0.01    -0.02   0.41   0.26     0.28   0.00   0.03
   7   1     0.00   0.02   0.01    -0.02  -0.41   0.26    -0.28   0.00  -0.03
   8   1    -0.14  -0.08  -0.02     0.09  -0.28   0.17    -0.06   0.36  -0.18
   9   1    -0.15  -0.07  -0.00    -0.12   0.28   0.15     0.09  -0.36  -0.17
  10   1     0.15  -0.07   0.00    -0.12  -0.28   0.15    -0.09  -0.36   0.17
  11   1     0.14  -0.08   0.02     0.09   0.28   0.17     0.06   0.36   0.18
                     10                     11                     12
                        a                      a                      a 
 Frequencies --  1026.4451              1057.4059              1071.5604
 Red. masses --     4.2433                10.8660                 8.9591
 Frc consts  --     0.0000                 0.0000                 0.0000
 IR Inten    --     0.0318                 0.4471                 2.6935
 Raman Activ --     0.0000                 0.0000                 0.0000
 Depolar     --     0.0000                 0.0000                 0.0000
 Atom AN      X      Y      Z        X      Y      Z        X      Y      Z
   1   6    -0.03  -0.00   0.30     0.00  -0.65  -0.00     0.64  -0.00   0.06
   2   6     0.03  -0.00  -0.29    -0.34   0.35  -0.03    -0.29   0.27  -0.03
   3  17    -0.01   0.00   0.07     0.02  -0.02   0.00    -0.00   0.01  -0.00
   4   6     0.03   0.00  -0.29     0.34   0.35   0.03    -0.29  -0.27  -0.03
   5  17    -0.01  -0.00   0.07    -0.02  -0.02  -0.00    -0.00  -0.01  -0.00
   6   1     0.01  -0.23  -0.10     0.00  -0.18  -0.00     0.26  -0.00   0.02
   7   1     0.01   0.23  -0.10    -0.00  -0.18   0.00     0.26   0.00   0.02
   8   1    -0.29  -0.25   0.05    -0.04   0.10  -0.00    -0.18   0.07  -0.02
   9   1     0.28   0.25   0.10    -0.04   0.10  -0.01    -0.18   0.07  -0.01
  10   1     0.28  -0.25   0.10     0.04   0.10   0.01    -0.18  -0.07  -0.01
  11   1    -0.29   0.25   0.05     0.04   0.10   0.00    -0.18  -0.07  -0.02
                     13                     14                     15
                        a                      a                      a 
 Frequencies --  1078.3482              1195.4952              1212.2296
 Red. masses --     1.6314                 2.7631                 3.7452
 Frc consts  --     0.0000                 0.0000                 0.0000
 IR Inten    --     0.0002                 3.3960                 0.1362
 Raman Activ --     0.0000                 0.0000                 0.0000
 Depolar     --     0.0000                 0.0000                 0.0000
 Atom AN      X      Y      Z        X      Y      Z        X      Y      Z
   1   6    -0.00   0.00   0.00     0.09  -0.00   0.01    -0.04  -0.00   0.43
   2   6    -0.01  -0.00   0.12     0.25  -0.06   0.02     0.01   0.00  -0.17
   3  17     0.01  -0.00  -0.06     0.01   0.05   0.00     0.00  -0.00  -0.02
   4   6     0.01   0.00  -0.12     0.25   0.06   0.02     0.01  -0.00  -0.17
   5  17    -0.01  -0.00   0.06     0.01  -0.05   0.00     0.00   0.00  -0.02
   6   1    -0.25  -0.00  -0.02    -0.28  -0.00  -0.03     0.01  -0.25  -0.07
   7   1     0.25  -0.00   0.02    -0.28   0.00  -0.03     0.01   0.25  -0.07
   8   1     0.44   0.13   0.02    -0.40  -0.08  -0.03     0.38  -0.07   0.07
   9   1    -0.43  -0.13  -0.06    -0.41  -0.08  -0.05    -0.38   0.07   0.00
  10   1     0.43  -0.13   0.06    -0.41   0.08  -0.05    -0.38  -0.07   0.00
  11   1    -0.44   0.13  -0.02    -0.40   0.08  -0.03     0.38   0.07   0.07
                     16                     17                     18
                        a                      a                      a 
 Frequencies --  1238.9261              1244.4993              1313.5944
 Red. masses --     2.9229                 1.8638                 4.3334
 Frc consts  --     0.0000                 0.0000                 0.0000
 IR Inten    --     4.3921                 0.0001                38.0263
 Raman Activ --     0.0000                 0.0000                 0.0000
 Depolar     --     0.0000                 0.0000                 0.0000
 Atom AN      X      Y      Z        X      Y      Z        X      Y      Z
   1   6    -0.00   0.14   0.00    -0.00   0.00   0.00     0.48  -0.00   0.04
   2   6    -0.26  -0.05  -0.03    -0.02  -0.00   0.20    -0.16  -0.09  -0.01
   3  17    -0.02  -0.04  -0.00    -0.00  -0.00   0.01    -0.01  -0.01  -0.00
   4   6     0.26  -0.05   0.03     0.02  -0.00  -0.20    -0.16   0.09  -0.01
   5  17     0.02  -0.04   0.00     0.00  -0.00  -0.01    -0.01   0.01  -0.00
   6   1     0.01   0.01  -0.02    -0.59  -0.00  -0.05    -0.53   0.00  -0.05
   7   1    -0.01   0.01   0.02     0.59  -0.00   0.05    -0.53  -0.00  -0.05
   8   1     0.45   0.09   0.01    -0.22   0.09  -0.05     0.15   0.08  -0.04
   9   1     0.44   0.09   0.07     0.23  -0.09  -0.01     0.15   0.08   0.07
  10   1    -0.44   0.09  -0.07    -0.23  -0.09   0.01     0.15  -0.08   0.07
  11   1    -0.45   0.09  -0.01     0.22   0.09   0.05     0.15  -0.08  -0.04
                     19                     20                     21
                        a                      a                      a 
 Frequencies --  1422.6179              1425.9725              1478.8640
 Red. masses --     2.0549                 1.9421                 1.9280
 Frc consts  --     0.0000                 0.0000                 0.0000
 IR Inten    --     0.0198                 2.0703                 0.1724
 Raman Activ --     0.0000                 0.0000                 0.0000
 Depolar     --     0.0000                 0.0000                 0.0000
 Atom AN      X      Y      Z        X      Y      Z        X      Y      Z
   1   6     0.10  -0.00   0.01    -0.00  -0.06  -0.00    -0.00   0.29   0.00
   2   6    -0.08   0.19  -0.01     0.07  -0.19   0.01     0.03  -0.01   0.00
   3  17     0.01   0.01   0.00    -0.01  -0.01  -0.00    -0.00  -0.00  -0.00
   4   6    -0.08  -0.19  -0.01    -0.07  -0.19  -0.01    -0.03  -0.01  -0.00
   5  17     0.01  -0.01   0.00     0.01  -0.01   0.00     0.00  -0.00   0.00
   6   1    -0.09   0.00  -0.01    -0.00   0.05   0.04     0.04  -0.54  -0.40
   7   1    -0.09  -0.00  -0.01     0.00   0.05  -0.04    -0.04  -0.54   0.40
   8   1     0.05  -0.38   0.28    -0.05   0.38  -0.28    -0.02   0.04  -0.03
   9   1     0.10  -0.38  -0.27    -0.10   0.38   0.27    -0.03   0.04   0.02
  10   1     0.10   0.38  -0.27     0.10   0.38  -0.27     0.03   0.04  -0.02
  11   1     0.05   0.38   0.28     0.05   0.38   0.28     0.02   0.04   0.03
                     22                     23                     24
                        a                      a                      a 
 Frequencies --  2989.5865              2994.8896              2996.4346
 Red. masses --     1.9605                 1.4692                 1.4460
 Frc consts  --     0.0000                 0.0000                 0.0000
 IR Inten    --     2.1359                 0.9494                 0.0810
 Raman Activ --     0.0000                 0.0000                 0.0000
 Depolar     --     0.0000                 0.0000                 0.0000
 Atom AN      X      Y      Z        X      Y      Z        X      Y      Z
   1   6     0.02   0.00  -0.23    -0.00  -0.00  -0.00    -0.00   0.10   0.00
   2   6    -0.01  -0.00   0.13    -0.02   0.14  -0.00     0.02  -0.12  -0.01
   3  17    -0.00  -0.00   0.00     0.00   0.00   0.00    -0.00  -0.00  -0.00
   4   6    -0.01   0.00   0.13    -0.02  -0.14  -0.00    -0.02  -0.12   0.01
   5  17    -0.00   0.00   0.00     0.00  -0.00   0.00     0.00  -0.00   0.00
   6   1    -0.04  -0.32   0.42    -0.00  -0.00   0.00    -0.03  -0.18   0.28
   7   1    -0.04   0.32   0.42    -0.00   0.00   0.00     0.03  -0.18  -0.28
   8   1     0.04  -0.17  -0.23     0.06  -0.26  -0.41    -0.06   0.25   0.39
   9   1     0.00   0.17  -0.24    -0.01  -0.26   0.41     0.01   0.21  -0.33
  10   1     0.00  -0.17  -0.24    -0.01   0.26   0.41    -0.01   0.21   0.33
  11   1     0.04   0.17  -0.23     0.06   0.26  -0.41     0.06   0.25  -0.39
                     25                     26                     27
                        a                      a                      a 
 Frequencies --  3000.2993              3007.9744              3008.4256
 Red. masses --     2.0530                 2.0869                 1.5132
 Frc consts  --     0.0000                 0.0000                 0.0000
 IR Inten    --     0.0010                12.3097                12.4744
 Raman Activ --     0.0000                 0.0000                 0.0000
 Depolar     --     0.0000                 0.0000                 0.0000
 Atom AN      X      Y      Z        X      Y      Z        X      Y      Z
   1   6    -0.00  -0.01   0.00     0.02   0.00  -0.19    -0.00   0.19   0.00
   2   6     0.02   0.01  -0.22     0.02   0.00  -0.17    -0.01   0.07  -0.00
   3  17     0.00   0.00  -0.00     0.00  -0.00  -0.00     0.00   0.00   0.00
   4   6    -0.02   0.01   0.22     0.02  -0.00  -0.17     0.01   0.07   0.00
   5  17    -0.00   0.00   0.00     0.00   0.00  -0.00    -0.00   0.00  -0.00
   6   1     0.00   0.01  -0.02    -0.03  -0.25   0.33    -0.05  -0.33   0.50
   7   1    -0.00   0.01   0.02    -0.03   0.25   0.33     0.05  -0.33  -0.50
   8   1    -0.06   0.26   0.36    -0.05   0.22   0.30     0.03  -0.12  -0.20
   9   1    -0.01  -0.29   0.41    -0.00  -0.22   0.30    -0.00  -0.12   0.20
  10   1     0.01  -0.29  -0.41    -0.00   0.22   0.30     0.00  -0.12  -0.20
  11   1     0.06   0.26  -0.36    -0.05  -0.22   0.30    -0.03  -0.12   0.20
