
                                 *****************
                                 * O   R   C   A *
                                 *****************

                                            #,                                       
                                            ###                                      
                                            ####                                     
                                            #####                                    
                                            ######                                   
                                           ########,                                 
                                     ,,################,,,,,                         
                               ,,#################################,,                 
                          ,,##########################################,,             
                       ,#########################################, ''#####,          
                    ,#############################################,,   '####,        
                  ,##################################################,,,,####,       
                ,###########''''           ''''###############################       
              ,#####''   ,,,,##########,,,,          '''####'''          '####       
            ,##' ,,,,###########################,,,                        '##       
           ' ,,###''''                  '''############,,,                           
         ,,##''                                '''############,,,,        ,,,,,,###''
      ,#''                                            '''#######################'''  
     '                                                          ''''####''''         
             ,#######,   #######,   ,#######,      ##                                
            ,#'     '#,  ##    ##  ,#'     '#,    #''#        ,####,   ,####,        
            ##       ##  ##   ,#'  ##            #'  '#       #'       #'  '#        
            ##       ##  #######   ##           ,######,      #####,   #    #        
            '#,     ,#'  ##    ##  '#,     ,#' ,#      #,     #,   #   #,  ,#        
             '#######'   ##     ##  '#######'  #'      '#     '####' # '####'        



                #########################################################
                #                        -***-                          #
                #          Department of theory and spectroscopy        #
                #                                                       #
                #                      Frank Neese                      #
                #                                                       #
                #     Directorship, Architecture, Infrastructure        #
                #                    SHARK, DRIVERS                     #
                #        Core code/Algorithms in most modules           #
                #                                                       #
                #        Max Planck Institute fuer Kohlenforschung      #
                #                Kaiser Wilhelm Platz 1                 #
                #                 D-45470 Muelheim/Ruhr                 #
                #                      Germany                          #
                #                                                       #
                #                  All rights reserved                  #
                #                        -***-                          #
                #########################################################


                         Program Version 6.0.0  -   RELEASE  -


 With contributions from (in alphabetic order):
   Daniel Aravena         : Magnetic Suceptibility
   Michael Atanasov       : Ab Initio Ligand Field Theory (pilot matlab implementation)
   Alexander A. Auer      : GIAO ZORA, VPT2 properties, NMR spectrum
   Ute Becker             : All parallelization in ORCA, NUMFREQ, NUMCALC
   Giovanni Bistoni       : ED, misc. LED, open-shell LED, HFLD
   Martin Brehm           : Molecular dynamics
   Dmytro Bykov           : pre 5.0 version of the SCF Hessian
   Marcos Casanova-Páez   : Triplet and SCS-CIS(D). UHF-(DLPNO)-IP/EA/STEOM-CCSD. UHF-CVS-IP/STEOM-CCSD
   Vijay G. Chilkuri      : MRCI spin determinant printing, contributions to CSF-ICE
   Pauline Colinet        : FMM embedding
   Dipayan Datta          : RHF DLPNO-CCSD density
   Achintya Kumar Dutta   : EOM-CC, STEOM-CC
   Nicolas Foglia         : Exact transition moments, OPA infrastructure, MCD improvements
   Dmitry Ganyushin       : Spin-Orbit,Spin-Spin,Magnetic field MRCI
   Miquel Garcia          : C-PCM and meta-GGA Hessian, CCSD/C-PCM, Gaussian charge scheme
   Tiago L. C. Gouveia    : GS-ROHF, GS-ROCIS
   Yang Guo               : DLPNO-NEVPT2, F12-NEVPT2, CIM, IAO-localization
   Andreas Hansen         : Spin unrestricted coupled pair/coupled cluster methods
   Ingolf Harden          : AUTO-CI MPn and infrastructure 
   Benjamin Helmich-Paris : MC-RPA, TRAH-(SCF,CASSCF), AVAS, COSX integrals, SCF dyn. polar.
   Lee Huntington         : MR-EOM, pCC
   Robert Izsak           : Overlap fitted RIJCOSX, COSX-SCS-MP3, EOM
   Riya Kayal             : Wick's Theorem for AUTO-CI, AUTO-CI UHF-CCSDT
   Emily Kempfer          : AUTO-CI, RHF CISDT and CCSDT
   Christian Kollmar      : KDIIS, OOCD, Brueckner-CCSD(T), CCSD density, CASPT2, CASPT2-K, improved NEVPT2
   Axel Koslowski         : Symmetry handling
   Simone Kossmann        : Meta GGA functionals, TD-DFT gradient, OOMP2, (MP2 Hessian; deprecated post 5.0)
   Lucas Lang             : DCDCAS
   Marvin Lechner         : AUTO-CI (C++ implementation), FIC-MRCC
   Spencer Leger          : CASSCF response
   Dagmar Lenk            : GEPOL surface, SMD, ORCA-2-JSON
   Dimitrios Liakos       : Extrapolation schemes; Compound Job, initial MDCI parallelization
   Dimitrios Manganas     : Further ROCIS development; embedding schemes. LFT, Crystal Embedding
   Dimitrios Pantazis     : SARC Basis sets
   Anastasios Papadopoulos: AUTO-CI, single reference methods and gradients
   Taras Petrenko         : pre 6.0 DFT Hessian and TD-DFT gradient, (ASA, deprecated), ECA, 1-Electron XAS/XES, NRVS
   Peter Pinski           : DLPNO-MP2, DLPNO-MP2 Gradient
   Christoph Reimann      : Effective Core Potentials
   Marius Retegan         : Local ZFS, SOC
   Christoph Riplinger    : Optimizer, TS searches, QM/MM, DLPNO-CCSD(T), (RO)-DLPNO pert. Triples
   Michael Roemelt        : Original ROCIS implementation
   Masaaki Saitow         : Open-shell DLPNO-CCSD energy and density
   Barbara Sandhoefer     : DKH picture change effects
   Kantharuban Sivalingam : CASSCF convergence/infrastructure, NEVPT2 and variants, FIC-MRCI
   Bernardo de Souza      : ESD, SOC TD-DFT
   Georgi Stoychev        : AutoAux, RI-MP2 NMR, DLPNO-MP2 response, X2C
   Van Anh Tran           : RI-MP2 g-tensors
   Willem Van den Heuvel  : Paramagnetic NMR
   Zikuan Wang            : NOTCH, Electric field optimization 
   Frank Wennmohs         : Technical directorship and infrastructure
   Hang Xu                : AUTO-CI-Response properties 


 We gratefully acknowledge several colleagues who have allowed us to
 interface, adapt or use parts of their codes:
   Stefan Grimme, W. Hujo, H. Kruse, P. Pracht,  : VdW corrections, initial TS optimization,
                  C. Bannwarth, S. Ehlert,         DFT functionals, gCP, sTDA/sTD-DF
                  L. Wittmann, M. Mueller
   Ed Valeev, F. Pavosevic, A. Kumar             : LibInt (2-el integral package), F12 methods
   Garnet Chan, S. Sharma, J. Yang, R. Olivares  : DMRG
   Ulf Ekstrom                                   : XCFun DFT Library
   Mihaly Kallay                                 : mrcc  (arbitrary order and MRCC methods)
   Frank Weinhold                                : gennbo (NPA and NBO analysis)
   Simon Mueller                                 : openCOSMO-RS
   Christopher J. Cramer and Donald G. Truhlar   : smd solvation model
   Lars Goerigk                                  : TD-DFT with DH, B97 family of functionals
   V. Asgeirsson, H. Jonsson                     : NEB implementation
   FAccTs GmbH                                   : IRC, NEB, NEB-TS, DLPNO-Multilevel, CI-OPT
                                                   MM, QMMM, 2- and 3-layer-ONIOM, Crystal-QMMM,
                                                   LR-CPCM, SF, NACMEs, symmetry and pop. for TD-DFT,
                                                   nearIR, NL-DFT gradient (VV10), updates on ESD,
                                                   ML-optimized integration grids, MBIS, APM,
                                                   GOAT, DOCKER, SOLVATOR, interface openCOSMO-RS
   S Lehtola, MJT Oliveira, MAL Marques          : LibXC Library
   Liviu Ungur et al                             : ANISO software


 Your calculation uses the libint2 library for the computation of 2-el integrals
 For citations please refer to: http://libint.valeyev.net

 Your ORCA version has been built with support for libXC version: 6.2.2
 For citations please refer to: https://libxc.gitlab.io

 This ORCA versions uses:
   CBLAS   interface :  Fast vector & matrix operations
   LAPACKE interface :  Fast linear algebra routines
   SCALAPACK package :  Parallel linear algebra routines
   Shared memory     :  Shared parallel matrices
   BLAS/LAPACK       :  OpenBLAS 0.3.27  USE64BITINT DYNAMIC_ARCH NO_AFFINITY SkylakeX SINGLE_THREADED
        Core in use  :  SkylakeX
   Copyright (c) 2011-2014, The OpenBLAS Project


Your calculation utilizes the geometrical counterpoise correction gCP
Please cite in your paper:
H.Kruse, S. Grimme J.Chem.Phys., 136, (2012), 154101 
   

Your calculation utilizes the atom-pairwise dispersion correction
based on EEQ partial charges (D4)


Your calculation utilizes the SMD solvation module
Please cite in your paper:
A.V. Marenich, C.J. Cramer, D.G. Truhlar J. Phys. Chem. B, 113, (2009), 6378 

================================================================================

----- Orbital basis set information -----
Your calculation utilizes the basis: def2-mTZVPP
   Stefan Grimme, Andreas Hansen, Sebastian Ehlert, and Jan-Michael Mewes 
   J. Chem. Phys. 154, 064103 (2021). DOI: 10.1063/5.0040021

----- AuxJ basis set information -----
Your calculation utilizes the auxiliary basis: def2/J
   F. Weigend, Phys. Chem. Chem. Phys. 8, 1057 (2006).

================================================================================
                                        WARNINGS
                       Please study these warnings very carefully!
================================================================================

Using LibXC functional ID 497 : Re-regularized SCAN exchange by Furness et al
[ 1]  J. W. Furness, A. D. Kaplan, J. Ning, J. P. Perdew, and J. Sun.,  J. Phys. Chem. Lett. 11, 8208-8215 (2020)
[ 2]  J. W. Furness, A. D. Kaplan, J. Ning, J. P. Perdew, and J. Sun.,  J. Phys. Chem. Lett. 11, 9248-9248 (2020)
Using LibXC functional ID 498 : Re-regularized SCAN correlation by Furness et al
[ 1]  J. W. Furness, A. D. Kaplan, J. Ning, J. P. Perdew, and J. Sun.,  J. Phys. Chem. Lett. 11, 8208-8215 (2020)
[ 2]  J. W. Furness, A. D. Kaplan, J. Ning, J. P. Perdew, and J. Sun.,  J. Phys. Chem. Lett. 11, 9248-9248 (2020)
Using LibXC functional ID 497 : Re-regularized SCAN exchange by Furness et al
[ 1]  J. W. Furness, A. D. Kaplan, J. Ning, J. P. Perdew, and J. Sun.,  J. Phys. Chem. Lett. 11, 8208-8215 (2020)
[ 2]  J. W. Furness, A. D. Kaplan, J. Ning, J. P. Perdew, and J. Sun.,  J. Phys. Chem. Lett. 11, 9248-9248 (2020)
Using LibXC functional ID 498 : Re-regularized SCAN correlation by Furness et al
[ 1]  J. W. Furness, A. D. Kaplan, J. Ning, J. P. Perdew, and J. Sun.,  J. Phys. Chem. Lett. 11, 8208-8215 (2020)
[ 2]  J. W. Furness, A. D. Kaplan, J. Ning, J. P. Perdew, and J. Sun.,  J. Phys. Chem. Lett. 11, 9248-9248 (2020)

================================================================================
                                       INPUT FILE
================================================================================
NAME = sp_solv.inp
|  1> ! r2scan-3c def2/J RI DEFGRID2 scfconv6 printgap
|  2> %output
|  3>     printlevel normal
|  4> end
|  5> %cpcm
|  6>     smd true
|  7>     smdsolvent "water"
|  8> end
|  9> * xyz 0 1
| 10> C -3.7787405246 0.0972149106 0.625103489
| 11> C -2.6574025339 -0.5259747367 -0.1977429508
| 12> C -1.3043780779 0.0946250375 0.1414838679
| 13> C -0.1741087129 -0.5274018013 -0.6897770026
| 14> C 1.1233100563 0.1667790073 -0.3750343502
| 15> O 1.3988427675 1.3039449269 -0.6970537797
| 16> O 1.9328286147 -0.606547568 0.3383737798
| 17> C 3.195751998 -0.0721732158 0.7466662563
| 18> H -4.7338721311 -0.3536645674 0.3689474144
| 19> H -3.6009908923 -0.0522334728 1.6874528109
| 20> H -3.8406854542 1.1663273799 0.435734618
| 21> H -2.6190867196 -1.5997871664 -0.0062502495
| 22> H -2.8635170608 -0.3825588695 -1.2599232564
| 23> H -1.0924482653 -0.0509804224 1.2028802623
| 24> H -1.3315877341 1.1694177462 -0.050884286
| 25> H -0.3905968162 -0.3892410635 -1.7496404086
| 26> H -0.0734536086 -1.5880959091 -0.4648736577
| 27> H 3.0925497707 0.9867414294 0.9862120039
| 28> H 3.9180506681 -0.1905554967 -0.0612725094
| 29> H 3.4965685674 -0.6464475566 1.6177541608
| 30> *
| 31> 
| 32>                          ****END OF INPUT****
================================================================================

                       ****************************
                       * Single Point Calculation *
                       ****************************

---------------------------------
CARTESIAN COORDINATES (ANGSTROEM)
---------------------------------
  C     -3.778741    0.097215    0.625103
  C     -2.657403   -0.525975   -0.197743
  C     -1.304378    0.094625    0.141484
  C     -0.174109   -0.527402   -0.689777
  C      1.123310    0.166779   -0.375034
  O      1.398843    1.303945   -0.697054
  O      1.932829   -0.606548    0.338374
  C      3.195752   -0.072173    0.746666
  H     -4.733872   -0.353665    0.368947
  H     -3.600991   -0.052233    1.687453
  H     -3.840685    1.166327    0.435735
  H     -2.619087   -1.599787   -0.006250
  H     -2.863517   -0.382559   -1.259923
  H     -1.092448   -0.050980    1.202880
  H     -1.331588    1.169418   -0.050884
  H     -0.390597   -0.389241   -1.749640
  H     -0.073454   -1.588096   -0.464874
  H      3.092550    0.986741    0.986212
  H      3.918051   -0.190555   -0.061273
  H      3.496569   -0.646448    1.617754

----------------------------
CARTESIAN COORDINATES (A.U.)
----------------------------
  NO LB      ZA    FRAG     MASS         X           Y           Z
   0 C     6.0000    0    12.011   -7.140785    0.183710    1.181274
   1 C     6.0000    0    12.011   -5.021763   -0.993948   -0.373680
   2 C     6.0000    0    12.011   -2.464917    0.178815    0.267366
   3 C     6.0000    0    12.011   -0.329018   -0.996645   -1.303490
   4 C     6.0000    0    12.011    2.122748    0.315167   -0.708712
   5 O     8.0000    0    15.999    2.643430    2.464099   -1.317241
   6 O     8.0000    0    15.999    3.652517   -1.146209    0.639434
   7 C     6.0000    0    12.011    6.039096   -0.136388    1.410995
   8 H     1.0000    0     1.008   -8.945722   -0.668329    0.697210
   9 H     1.0000    0     1.008   -6.804887   -0.098707    3.188824
  10 H     1.0000    0     1.008   -7.257844    2.204039    0.823419
  11 H     1.0000    0     1.008   -4.949357   -3.023160   -0.011811
  12 H     1.0000    0     1.008   -5.411263   -0.722931   -2.380910
  13 H     1.0000    0     1.008   -2.064428   -0.096339    2.273114
  14 H     1.0000    0     1.008   -2.516336    2.209879   -0.096157
  15 H     1.0000    0     1.008   -0.738121   -0.735559   -3.306341
  16 H     1.0000    0     1.008   -0.138807   -3.001066   -0.878484
  17 H     1.0000    0     1.008    5.844072    1.864671    1.863671
  18 H     1.0000    0     1.008    7.404043   -0.360098   -0.115788
  19 H     1.0000    0     1.008    6.607557   -1.221609    3.057112

--------------------------------
INTERNAL COORDINATES (ANGSTROEM)
--------------------------------
 C      0   0   0     0.000000000000     0.00000000     0.00000000
 C      1   0   0     1.524086772261     0.00000000     0.00000000
 C      2   1   0     1.526726593990   111.46074035     0.00000000
 C      3   2   1     1.534738042947   111.56593061   180.22271887
 C      4   3   2     1.504740972706   109.55560680   176.92583571
 O      5   4   3     1.213573696409   124.92767119   289.70479538
 O      5   4   3     1.327518530345   111.68149368   107.99082654
 C      7   5   4     1.430815909452   118.29635615   181.58568861
 H      1   2   3     1.086823179718   110.46960386   179.82877911
 H      1   2   3     1.087435438463   110.54737761   299.90460242
 H      1   2   3     1.087519754128   110.47932449    59.80852188
 H      2   1   3     1.091425989454   109.47519223   120.99295700
 H      2   1   3     1.091456966980   109.43543128   239.00754445
 H      3   2   1     1.092097752707   109.49525631    59.17706057
 H      3   2   1     1.092211169463   109.80351347   300.89186640
 H      4   3   2     1.090534698081   109.19906537    58.31960990
 H      4   3   2     1.088937534889   110.54816768   297.13359870
 H      8   7   5     1.090565491262   109.98582981    36.25061445
 H      8   7   5     1.090181077794   109.43704207   276.13479459
 H      8   7   5     1.085852551820   106.01703648   156.70484300

---------------------------
INTERNAL COORDINATES (A.U.)
---------------------------
 C      0   0   0     0.000000000000     0.00000000     0.00000000
 C      1   0   0     2.880106603905     0.00000000     0.00000000
 C      2   1   0     2.885095144016   111.46074035     0.00000000
 C      3   2   1     2.900234588481   111.56593061   180.22271887
 C      4   3   2     2.843548340905   109.55560680   176.92583571
 O      5   4   3     2.293321929544   124.92767119   289.70479538
 O      5   4   3     2.508646460058   111.68149368   107.99082654
 C      7   5   4     2.703850216922   118.29635615   181.58568861
 H      1   2   3     2.053798165664   110.46960386   179.82877911
 H      1   2   3     2.054955167015   110.54737761   299.90460242
 H      1   2   3     2.055114500532   110.47932449    59.80852188
 H      2   1   3     2.062496215511   109.47519223   120.99295700
 H      2   1   3     2.062554754552   109.43543128   239.00754445
 H      3   2   1     2.063765664086   109.49525631    59.17706057
 H      3   2   1     2.063979990695   109.80351347   300.89186640
 H      4   3   2     2.060811918911   109.19906537    58.31960990
 H      4   3   2     2.057793717888   110.54816768   297.13359870
 H      8   7   5     2.060870109591   109.98582981    36.25061445
 H      8   7   5     2.060143673414   109.43704207   276.13479459
 H      8   7   5     2.051963944759   106.01703648   156.70484300

---------------------
BASIS SET INFORMATION
---------------------
There are 3 groups of distinct atoms

 Group   1 Type C   : 11s6p1d contracted to 5s3p1d pattern {62111/411/1}
 Group   2 Type O   : 11s6p2d contracted to 5s3p2d pattern {62111/411/11}
 Group   3 Type H   : 4s1p contracted to 2s1p pattern {31/1}

Atom   0C    basis set group =>   1
Atom   1C    basis set group =>   1
Atom   2C    basis set group =>   1
Atom   3C    basis set group =>   1
Atom   4C    basis set group =>   1
Atom   5O    basis set group =>   2
Atom   6O    basis set group =>   2
Atom   7C    basis set group =>   1
Atom   8H    basis set group =>   3
Atom   9H    basis set group =>   3
Atom  10H    basis set group =>   3
Atom  11H    basis set group =>   3
Atom  12H    basis set group =>   3
Atom  13H    basis set group =>   3
Atom  14H    basis set group =>   3
Atom  15H    basis set group =>   3
Atom  16H    basis set group =>   3
Atom  17H    basis set group =>   3
Atom  18H    basis set group =>   3
Atom  19H    basis set group =>   3
---------------------------------
AUXILIARY/J BASIS SET INFORMATION
---------------------------------
There are 3 groups of distinct atoms

 Group   1 Type C   : 12s5p4d2f1g contracted to 6s4p3d1f1g pattern {711111/2111/211/2/1}
 Group   2 Type O   : 12s5p4d2f1g contracted to 6s4p3d1f1g pattern {711111/2111/211/2/1}
 Group   3 Type H   : 5s2p1d contracted to 3s1p1d pattern {311/2/1}

Atom   0C    basis set group =>   1
Atom   1C    basis set group =>   1
Atom   2C    basis set group =>   1
Atom   3C    basis set group =>   1
Atom   4C    basis set group =>   1
Atom   5O    basis set group =>   2
Atom   6O    basis set group =>   2
Atom   7C    basis set group =>   1
Atom   8H    basis set group =>   3
Atom   9H    basis set group =>   3
Atom  10H    basis set group =>   3
Atom  11H    basis set group =>   3
Atom  12H    basis set group =>   3
Atom  13H    basis set group =>   3
Atom  14H    basis set group =>   3
Atom  15H    basis set group =>   3
Atom  16H    basis set group =>   3
Atom  17H    basis set group =>   3
Atom  18H    basis set group =>   3
Atom  19H    basis set group =>   3

Checking for AutoStart:
The File: sp_solv.gbw exists
Trying to determine its content:
     ... Fine, the file contains calculation information
     ... Fine, the calculation information was read
     ... Fine, the file contains a basis set
     ... Fine, the basis set was read
     ... Fine, the file contains a geometry
     ... Fine, the geometry was read
     ... Fine, the file contains a set of orbitals
     ... Fine, the orbitals can be read
     => possible old guess file was deleted
     => GBW file was renamed to GES file
     => GES file is set as startup file
     => Guess is set to MORead
     ... now leaving AutoStart

------------------------------------------------------------------------------
                             ORCA STARTUP CALCULATIONS
                           -- RI-GTO INTEGRALS CHOSEN --
------------------------------------------------------------------------------
------------------------------------------------------------------------------
                   ___                                                        
                  /   \      - P O W E R E D   B Y -                         
                 /     \                                                     
                 |  |  |   _    _      __       _____    __    __             
                 |  |  |  | |  | |    /  \     |  _  \  |  |  /  |          
                  \  \/   | |  | |   /    \    | | | |  |  | /  /          
                 / \  \   | |__| |  /  /\  \   | |_| |  |  |/  /          
                |  |  |   |  __  | /  /__\  \  |    /   |      \           
                |  |  |   | |  | | |   __   |  |    \   |  |\   \          
                \     /   | |  | | |  |  |  |  | |\  \  |  | \   \       
                 \___/    |_|  |_| |__|  |__|  |_| \__\ |__|  \__/        
                                                                              
                      - O R C A' S   B I G   F R I E N D -                    
                                      &                                       
                       - I N T E G R A L  F E E D E R -                       
                                                                              
 v1 FN, 2020, v2 2021, v3 2022-2024                                           
------------------------------------------------------------------------------


----------------------
SHARK INTEGRAL PACKAGE
----------------------

Number of atoms                             ...     20
Number of basis functions                   ...    222
Number of shells                            ...    110
Maximum angular momentum                    ...      2
Integral batch strategy                     ... SHARK/LIBINT Hybrid
RI-J (if used) integral strategy            ... SPLIT-RIJ (Revised 2003 algorithm where possible)
Printlevel                                  ...      1
Contraction scheme used                     ... SEGMENTED contraction
Prescreening option                         ... SCHWARTZ
   Thresh                                   ... 1.000e-10
   Tcut                                     ... 1.000e-11
   Tpresel                                  ... 1.000e-11 
Coulomb Range Separation                    ... NOT USED
Exchange Range Separation                   ... NOT USED
Multipole approximations                    ... NOT USED
Finite Nucleus Model                        ... NOT USED
CABS basis                                  ... NOT available
Auxiliary Coulomb fitting basis             ... AVAILABLE
   # of basis functions in Aux-J            ...    524
   # of shells in Aux-J                     ...    180
   Maximum angular momentum in Aux-J        ...      4
Auxiliary J/K fitting basis                 ... NOT available
Auxiliary Correlation fitting basis         ... NOT available
Auxiliary 'external' fitting basis          ... NOT available

Checking pre-screening integrals            ... done (  0.0 sec) Dimension = 110
Check shell pair data                       ... done (  0.0 sec)
Shell pair information
Shell pair cut-off parameter TPreSel        ...   1.0e-11
Total number of shell pairs                 ...      6105
Shell pairs after pre-screening             ...      5133
Total number of primitive shell pairs       ...     21533
Primitive shell pairs kept                  ...     12824
          la=0 lb=0:   1721 shell pairs
          la=1 lb=0:   1941 shell pairs
          la=1 lb=1:    567 shell pairs
          la=2 lb=0:    543 shell pairs
          la=2 lb=1:    313 shell pairs
          la=2 lb=2:     48 shell pairs

Calculating one electron integrals          ... done (  0.0 sec)
Calculating RI/J V-Matrix + Cholesky decomp.... done (  0.1 sec)
Calculating Nuclear repulsion               ... done (  0.0 sec) ENN=    381.779148794337 Eh

Diagonalization of the overlap matrix:
Smallest eigenvalue                        ... 1.090e-04
Time for diagonalization                   ...    0.005 sec
Threshold for overlap eigenvalues          ... 1.000e-07
Number of eigenvalues below threshold      ... 0
Time for construction of square roots      ...    0.017 sec
Total time needed                          ...    0.033 sec

-------------------
DFT GRID GENERATION
-------------------

General Integration Accuracy     IntAcc      ... 4.388
Radial Grid Type                 RadialGrid  ... OptM3 with GC (2021)
Angular Grid (max. ang.)         AngularGrid ... 4 (Lebedev-302)
Angular grid pruning method      GridPruning ... 4 (adaptive)
Weight generation scheme         WeightScheme... mBecke (2022)
Basis function cutoff            BFCut       ... 1.0000e-10
Integration weight cutoff        WCut        ... 1.0000e-14
Partially contracted basis set               ... off
Rotationally invariant grid construction     ... off
Angular grids for H and He will be reduced by one unit
Diffuse basis detected: some atoms will have their outermost
                        angular grid increased by 1.

Total number of grid points                  ...    87432
Total number of batches                      ...     1376
Average number of points per batch           ...       63
Average number of grid points per atom       ...     4372
Initializing property integral containers    ... done (  0.0 sec)

SHARK setup successfully completed in   1.2 seconds

Maximum memory used throughout the entire STARTUP-calculation: 39.1 MB
-------------------------------------------------------------------------------
                                 ORCA GUESS
                   Start orbitals & Density for SCF / CASSCF
-------------------------------------------------------------------------------

------------
SCF SETTINGS
------------
Hamiltonian:
 Density Functional     Method          .... DFT(GTOs)
  Functional kind                       .... Exchange
  Functional name                       .... Re-regularized SCAN exchange by Furness et al
  Functional family                     .... MGGA
  Functional refs                              
    [ 0] J. W. Furness, A. D. Kaplan, J. Ning, J. P. Perdew, and J. Sun.,  J. Phys. Chem. Lett. 11, 8208-8215 (2020), doi: 10.1021/acs.jpclett.0c02405
    [ 1] J. W. Furness, A. D. Kaplan, J. Ning, J. P. Perdew, and J. Sun.,  J. Phys. Chem. Lett. 11, 9248-9248 (2020), doi: 10.1021/acs.jpclett.0c03077
  Functional external parameters        .... 6
    Parameter  0 _c1        =  6.670000e-01 : c1 parameter        
    Parameter  1 _c2        =  8.000000e-01 : c2 parameter        
    Parameter  2 _d         =  1.240000e+00 : d parameter         
    Parameter  3 _k1        =  6.500000e-02 : k1 parameter        
    Parameter  4 _eta       =  1.000000e-03 : eta parameter       
    Parameter  5 _dp2       =  3.610000e-01 : dp2 parameter       
  Functional kind                       .... Correlation
  Functional name                       .... Re-regularized SCAN correlation by Furness et al
  Functional family                     .... MGGA
  Functional refs                              
    [ 0] J. W. Furness, A. D. Kaplan, J. Ning, J. P. Perdew, and J. Sun.,  J. Phys. Chem. Lett. 11, 8208-8215 (2020), doi: 10.1021/acs.jpclett.0c02405
    [ 1] J. W. Furness, A. D. Kaplan, J. Ning, J. P. Perdew, and J. Sun.,  J. Phys. Chem. Lett. 11, 9248-9248 (2020), doi: 10.1021/acs.jpclett.0c03077
  Functional external parameters        .... 1
    Parameter  0 _eta       =  1.000000e-03 : Regularization parameter
 Gradients option       PostSCFGGA      .... off
 RI-approximation to the Coulomb term is turned on
   Number of AuxJ basis functions       .... 524


General Settings:
 Integral files         IntName         .... sp_solv
 Hartree-Fock type      HFTyp           .... RHF
 Total Charge           Charge          ....    0
 Multiplicity           Mult            ....    1
 Number of Electrons    NEL             ....   64
 Basis Dimension        Dim             ....  222
 Nuclear Repulsion      ENuc            ....    381.7791487943 Eh

Convergence Acceleration:
 AO-DIIS                CNVDIIS         .... on
   Start iteration      DIISMaxIt       ....    12
   Startup error        DIISStart       ....  0.200000
   # of expansion vecs  DIISMaxEq       ....     5
   Bias factor          DIISBfac        ....   1.050
   Max. coefficient     DIISMaxC        ....  10.000
 MO-DIIS                CNVKDIIS        .... off
 Trust-Rad. Augm. Hess. CNVTRAH         .... auto
   Auto Start mean grad. ratio tolernc. ....  1.125000
   Auto Start start iteration           ....     1
   Auto Start num. interpolation iter.  ....    10
   Max. Number of Micro iterations      ....    24
   Max. Number of Macro iterations      .... Maxiter - #DIIS iter
   Number of Davidson start vectors     ....     2
   Converg. threshold    (grad. norm)   ....   3.330e-04
   Grad. Scal. Fac. for Micro threshold ....   0.100
   Minimum threshold for Micro iter.    ....   1.000e-02
   NR start threshold (gradient norm)   ....   1.000e-04
   Initial trust radius                 ....   0.400
   Minimum AH scaling param. (alpha)    ....   1.000
   Maximum AH scaling param. (alpha)    .... 1000.000
   Quad. conv. algorithm                .... NR
   White noise on init. David. guess    .... on
   Maximum white noise                  ....   0.010
   Pseudo random numbers                .... off
   Inactive MOs                         .... canonical
   Orbital update algorithm             .... Taylor
   Preconditioner                       .... Diag
   Full preconditioner red. dimension   ....   250
   COSX micro iterations for RIJONX calc.... off
 SOSCF                  CNVSOSCF        .... on
   Start iteration      SOSCFMaxIt      ....   150
   Startup grad/error   SOSCFStart      ....  0.003300
   Hessian update       SOSCFHessUp     .... L-BFGS
 Level Shifting         CNVShift        .... on
   Level shift para.    LevelShift      ....    0.2500
   Turn off err/grad.   ShiftErr        ....    0.0010
 Zerner damping         CNVZerner       .... off
 Static damping         CNVDamp         .... on
   Fraction old density DampFac         ....    0.7000
   Max. Damping (<1)    DampMax         ....    0.9800
   Min. Damping (>=0)   DampMin         ....    0.0000
   Turn off err/grad.   DampErr         ....    0.1000

SCF Procedure:
 Maximum # iterations   MaxIter         ....   125
 SCF integral mode      SCFMode         .... Direct
   Integral package                     .... SHARK and LIBINT hybrid scheme
 Reset frequency        DirectResetFreq ....    20
 Integral Threshold     Thresh          ....  1.000e-10 Eh
 Primitive CutOff       TCut            ....  1.000e-11 Eh

Convergence Tolerance:
 Convergence Check Mode ConvCheckMode   .... Total+1el-Energy
 Convergence forced     ConvForced      .... 0
 Energy Change          TolE            ....  1.000e-06 Eh
 1-El. energy change                    ....  1.000e-03 Eh
 Orbital Gradient       TolG            ....  3.330e-04
 Orbital Rotation angle TolX            ....  3.330e-04
 DIIS Error             TolErr          ....  1.000e-06

---------------------
INITIAL GUESS: MOREAD
---------------------
Guess MOs are being read from file: sp_solv.ges
Input Geometry matches current geometry (good)
Atom 0: N(Shells)= 9 and 6 - projection required
Input basis set needs projection
NBasis(read)= 136
NBasis(calc)= 222
Basis set overlap was calculated
Using GuessMode=FMatrix for the initial guess
C*T matrix was formed
Effective Fockian was calculated
Effective Fockian was diagonalized
Initial density was built
                      ------------------
                      INITIAL GUESS DONE (   0.0 sec)
                      ------------------
             **** ENERGY FILE WAS UPDATED (sp_solv.en.tmp) ****
Finished Guess after   0.3 sec
Maximum memory used throughout the entire GUESS-calculation: 14.8 MB

-------------------------------------------------------------------------------------------
                                      ORCA LEAN-SCF
                              memory conserving SCF solver
-------------------------------------------------------------------------------------------

--------------------
CPCM SOLVATION MODEL
--------------------
CPCM parameters:
  Epsilon                                         ...      78.3550
  Refrac                                          ...       1.3328
  Rsolv                                           ...       1.3000
  Surface type                                    ... GAUSSIAN VDW
  Discretization scheme                           ... Constant charge density
    Threshold for H atoms                         ...       5.0000 (charges/Ang^2)
    Threshold for non-H atoms                     ...       5.0000 (charges/Ang^2)
  Epsilon function type                           ...         CPCM
Solvent:                                          ... WATER
SMD-CDS solvent descriptors:
  Soln                                            ...       1.3328
  Soln25                                          ...       1.3323
  Sola                                            ...       0.0000
  Solb                                            ...       0.0000
  Solg                                            ...       0.0000
  Solc                                            ...       0.0000
  Solh                                            ...       0.0000
Radii:
  Scheme                                          ... Element-dependent radii
  Radius for C  used is    3.4960 Bohr (=   1.8500 Ang.)
  Radius for O  used is    2.8724 Bohr (=   1.5200 Ang.)
  Radius for H  used is    2.2677 Bohr (=   1.2000 Ang.)
Calculating surface                               ...        done! (  0.0s)
Cavity surface points                             ...         1499
Cavity Volume                                     ...     882.8000
Cavity Surface-area                               ...     591.0172
Calculating surface distance matrix               ...        done! (  0.0s)
Performing Cholesky decomposition & store         ...        done! (  0.1s)
Overall time for CPCM initialization              ...                 0.1s

----------------------------------------D-I-I-S--------------------------------------------
Iteration    Energy (Eh)           Delta-E    RMSDP     MaxDP     DIISErr   Damp  Time(sec)
-------------------------------------------------------------------------------------------
               ***  Starting incremental Fock matrix formation  ***
    1    -386.0522981566342082     0.00e+00  3.62e-03  1.30e-01  6.25e-01  0.700   3.3
    2    -386.1110732554103038    -5.88e-02  2.91e-03  9.47e-02  4.40e-01  0.700   3.0
    3    -386.1526714016724213    -4.16e-02  2.13e-03  6.69e-02  3.09e-01  0.700   2.9
    4    -386.1819137501756245    -2.92e-02  1.52e-03  4.72e-02  2.17e-01  0.700   2.9
                               ***Turning on AO-DIIS***
    5    -386.2024483087770363    -2.05e-02  1.10e-03  3.39e-02  1.52e-01  0.700   2.9
    6    -386.2168460530478455    -1.44e-02  7.80e-04  2.40e-02  1.06e-01  0.700   2.9
    7    -386.2269533597606710    -1.01e-02  5.51e-04  1.69e-02  7.41e-02  0.700   2.8
    8    -386.2340373383489691    -7.08e-03  1.29e-03  3.95e-02  5.20e-02  0.000   2.8
                              *** Initializing SOSCF ***
---------------------------------------S-O-S-C-F--------------------------------------
Iteration    Energy (Eh)           Delta-E    RMSDP     MaxDP     MaxGrad    Time(sec)
--------------------------------------------------------------------------------------
    9    -386.2506003747110412    -1.66e-02  1.13e-05  3.07e-04  1.78e-04     2.9
               *** Restarting incremental Fock matrix formation ***
   10    -386.2506005667437989    -1.92e-07  6.55e-06  1.78e-04  5.48e-05     3.2
                  *** Gradient check signals convergence ***

               *****************************************************
               *                     SUCCESS                       *
               *           SCF CONVERGED AFTER  10 CYCLES          *
               *****************************************************


SMD CDS free energy correction energy :                 5.42142     Kcal/mol
Total Energy after SMD CDS correction =              -386.241960985 Eh
             **** ENERGY FILE WAS UPDATED (sp_solv.en.tmp) ****

----------------
TOTAL SCF ENERGY
----------------

Total Energy       :       -386.24196098525169 Eh          -10510.17809 eV

Components:
Nuclear Repulsion  :        381.77914879433712 Eh           10388.73879 eV
Electronic Energy  :       -768.01363610395447 Eh          -20898.71351 eV
One Electron Energy:      -1280.85117847388028 Eh          -34853.73250 eV
Two Electron Energy:        512.83754236992581 Eh           13955.01899 eV
CPCM Dielectric    :         -0.01611325712650 Eh              -0.43846 eV
SMD CDS (Gcds)     :          0.00863958149213 Eh               0.23509 eV

Virial components:
Potential Energy   :       -770.88904901305727 Eh          -20976.95747 eV
Kinetic Energy     :        384.64708802780558 Eh           10466.77939 eV
Virial Ratio       :          2.00414632791223

DFT components:
N(Alpha)           :       31.999966353708 electrons
N(Beta)            :       31.999966353708 electrons
N(Total)           :       63.999932707416 electrons
E(X)               :      -52.084881890821 Eh       
E(C)               :       -2.036997044494 Eh       
E(XC)              :      -54.121878935315 Eh       

CPCM Solvation Model Properties:
Surface-charge          :         -0.04809075363329
Corrected charge        :         -0.00000000000000
Outlying charge corr.   :          0.00017169234748 Eh               0.00467 eV
Free-energy (cav+disp)  :          0.00863958149213 Eh               0.23509 eV

---------------
SCF CONVERGENCE
---------------

  Last Energy change         ...    1.9203e-07  Tolerance :   1.0000e-06
  Last MAX-Density change    ...    1.7811e-04  Tolerance :   1.0000e-05
  Last RMS-Density change    ...    6.5518e-06  Tolerance :   1.0000e-06
  Last DIIS Error            ...    1.7846e-04  Tolerance :   1.0000e-06
  Last Orbital Gradient      ...    5.4844e-05  Tolerance :   3.3300e-04
  Last Orbital Rotation      ...    1.2799e-04  Tolerance :   3.3300e-04


----------------
ORBITAL ENERGIES
----------------

  NO   OCC          E(Eh)            E(eV) 
   0   2.0000     -19.005045      -517.1536 
   1   2.0000     -18.943418      -515.4766 
   2   2.0000     -10.162039      -276.5231 
   3   2.0000     -10.075904      -274.1793 
   4   2.0000     -10.035212      -273.0720 
   5   2.0000     -10.027303      -272.8568 
   6   2.0000     -10.019430      -272.6425 
   7   2.0000     -10.008833      -272.3542 
   8   2.0000      -1.079822       -29.3834 
   9   2.0000      -0.989045       -26.9133 
  10   2.0000      -0.772073       -21.0092 
  11   2.0000      -0.723667       -19.6920 
  12   2.0000      -0.679859       -18.4999 
  13   2.0000      -0.609094       -16.5743 
  14   2.0000      -0.545594       -14.8464 
  15   2.0000      -0.531283       -14.4570 
  16   2.0000      -0.467413       -12.7189 
  17   2.0000      -0.458809       -12.4848 
  18   2.0000      -0.451487       -12.2856 
  19   2.0000      -0.433928       -11.8078 
  20   2.0000      -0.399213       -10.8631 
  21   2.0000      -0.389062       -10.5869 
  22   2.0000      -0.377756       -10.2793 
  23   2.0000      -0.364695        -9.9238 
  24   2.0000      -0.342935        -9.3317 
  25   2.0000      -0.325793        -8.8653 
  26   2.0000      -0.319290        -8.6883 
  27   2.0000      -0.301678        -8.2091 
  28   2.0000      -0.295895        -8.0517 
  29   2.0000      -0.291323        -7.9273 
  30   2.0000      -0.279939        -7.6175 
  31   2.0000      -0.251327        -6.8390 
  32   0.0000      -0.022904        -0.6232 
  33   0.0000       0.071012         1.9323 
  34   0.0000       0.105132         2.8608 
  35   0.0000       0.109930         2.9914 
  36   0.0000       0.130574         3.5531 
  37   0.0000       0.131862         3.5881 
  38   0.0000       0.145132         3.9492 
  39   0.0000       0.149850         4.0776 
  40   0.0000       0.158641         4.3168 
  41   0.0000       0.169632         4.6159 
  42   0.0000       0.179539         4.8855 
*Only the first 10 virtual orbitals were printed.

                    ********************************
                    * MULLIKEN POPULATION ANALYSIS *
                    ********************************

-----------------------
MULLIKEN ATOMIC CHARGES
-----------------------
   0 C :   -0.509232
   1 C :   -0.251365
   2 C :   -0.272033
   3 C :   -0.353725
   4 C :    0.452445
   5 O :   -0.518412
   6 O :   -0.207057
   7 C :   -0.324871
   8 H :    0.158553
   9 H :    0.155207
  10 H :    0.154487
  11 H :    0.149844
  12 H :    0.151305
  13 H :    0.157442
  14 H :    0.160906
  15 H :    0.185645
  16 H :    0.175758
  17 H :    0.178188
  18 H :    0.179753
  19 H :    0.177164
Sum of atomic charges:   -0.0000000

--------------------------------
MULLIKEN REDUCED ORBITAL CHARGES
--------------------------------
  0 C s       :     3.345371  s :     3.345371
      pz      :     1.045863  p :     3.136807
      px      :     1.024439
      py      :     1.066505
      dz2     :     0.008784  d :     0.027054
      dxz     :     0.004152
      dyz     :     0.002040
      dx2y2   :     0.007524
      dxy     :     0.004553

  1 C s       :     3.232262  s :     3.232262
      pz      :     1.038897  p :     2.982054
      px      :     0.904607
      py      :     1.038550
      dz2     :     0.010318  d :     0.037049
      dxz     :     0.007005
      dyz     :     0.002458
      dx2y2   :     0.010537
      dxy     :     0.006732

  2 C s       :     3.237651  s :     3.237651
      pz      :     1.037703  p :     2.997584
      px      :     0.915383
      py      :     1.044498
      dz2     :     0.009999  d :     0.036799
      dxz     :     0.007447
      dyz     :     0.002412
      dx2y2   :     0.010367
      dxy     :     0.006574

  3 C s       :     3.282886  s :     3.282886
      pz      :     1.064942  p :     3.036278
      px      :     0.930701
      py      :     1.040636
      dz2     :     0.009760  d :     0.034561
      dxz     :     0.005147
      dyz     :     0.003187
      dx2y2   :     0.008717
      dxy     :     0.007749

  4 C s       :     3.135605  s :     3.135605
      pz      :     0.744303  p :     2.286939
      px      :     0.791319
      py      :     0.751316
      dz2     :     0.016343  d :     0.125011
      dxz     :     0.012637
      dyz     :     0.027504
      dx2y2   :     0.026662
      dxy     :     0.041866

  5 O s       :     3.832123  s :     3.832123
      pz      :     1.561988  p :     4.663073
      px      :     1.754391
      py      :     1.346693
      dz2     :     0.003944  d :     0.023216
      dxz     :     0.002305
      dyz     :     0.006924
      dx2y2   :     0.008253
      dxy     :     0.001790

  6 O s       :     3.705722  s :     3.705722
      pz      :     1.577132  p :     4.464492
      px      :     1.249169
      py      :     1.638191
      dz2     :     0.006765  d :     0.036843
      dxz     :     0.007114
      dyz     :     0.006706
      dx2y2   :     0.008824
      dxy     :     0.007433

  7 C s       :     3.342575  s :     3.342575
      pz      :     1.095106  p :     2.939917
      px      :     0.771078
      py      :     1.073733
      dz2     :     0.005719  d :     0.042379
      dxz     :     0.011831
      dyz     :     0.005061
      dx2y2   :     0.012122
      dxy     :     0.007647

  8 H s       :     0.823070  s :     0.823070
      pz      :     0.004058  p :     0.018377
      px      :     0.009417
      py      :     0.004902

  9 H s       :     0.826499  s :     0.826499
      pz      :     0.010726  p :     0.018294
      px      :     0.003759
      py      :     0.003809

 10 H s       :     0.827226  s :     0.827226
      pz      :     0.003855  p :     0.018288
      px      :     0.003622
      py      :     0.010810

 11 H s       :     0.832253  s :     0.832253
      pz      :     0.003703  p :     0.017904
      px      :     0.003370
      py      :     0.010830

 12 H s       :     0.830801  s :     0.830801
      pz      :     0.010656  p :     0.017894
      px      :     0.003631
      py      :     0.003607

 13 H s       :     0.824715  s :     0.824715
      pz      :     0.010734  p :     0.017843
      px      :     0.003537
      py      :     0.003572

 14 H s       :     0.821249  s :     0.821249
      pz      :     0.003649  p :     0.017845
      px      :     0.003262
      py      :     0.010934

 15 H s       :     0.796274  s :     0.796274
      pz      :     0.011089  p :     0.018081
      px      :     0.003621
      py      :     0.003370

 16 H s       :     0.806290  s :     0.806290
      pz      :     0.003594  p :     0.017952
      px      :     0.003196
      py      :     0.011162

 17 H s       :     0.803599  s :     0.803599
      pz      :     0.003910  p :     0.018214
      px      :     0.002482
      py      :     0.011822

 18 H s       :     0.802475  s :     0.802475
      pz      :     0.007684  p :     0.017772
      px      :     0.006585
      py      :     0.003503

 19 H s       :     0.804942  s :     0.804942
      pz      :     0.009124  p :     0.017894
      px      :     0.003240
      py      :     0.005530


------------------------
MULLIKEN OVERLAP CHARGES
------------------------
B(  0-C ,  1-C ) :   0.4599 B(  0-C ,  2-C ) :  -0.1819 B(  0-C ,  8-H ) :   0.8120 
B(  0-C ,  9-H ) :   0.8534 B(  0-C , 10-H ) :   0.8549 B(  0-C , 11-H ) :  -0.0547 
B(  0-C , 12-H ) :  -0.0591 B(  1-C ,  2-C ) :   0.4587 B(  1-C ,  3-C ) :  -0.1282 
B(  1-C ,  8-H ) :  -0.0869 B(  1-C ,  9-H ) :  -0.0847 B(  1-C , 10-H ) :  -0.0934 
B(  1-C , 11-H ) :   0.8513 B(  1-C , 12-H ) :   0.8780 B(  1-C , 14-H ) :  -0.0670 
B(  2-C ,  3-C ) :   0.4050 B(  2-C , 11-H ) :  -0.0811 B(  2-C , 12-H ) :  -0.1075 
B(  2-C , 13-H ) :   0.8163 B(  2-C , 14-H ) :   0.8657 B(  2-C , 15-H ) :  -0.0915 
B(  3-C ,  4-C ) :   0.4789 B(  3-C ,  5-O ) :  -0.1158 B(  3-C , 14-H ) :  -0.0678 
B(  3-C , 15-H ) :   0.8774 B(  3-C , 16-H ) :   0.8587 B(  4-C ,  5-O ) :   0.9300 
B(  4-C ,  6-O ) :   0.3969 B(  4-C ,  7-C ) :  -0.1834 B(  4-C , 15-H ) :  -0.0712 
B(  4-C , 16-H ) :  -0.1218 B(  5-O ,  6-O ) :  -0.2183 B(  6-O ,  7-C ) :   0.3426 
B(  6-O , 17-H ) :  -0.0582 B(  6-O , 18-H ) :  -0.0671 B(  6-O , 19-H ) :  -0.0780 
B(  7-C , 17-H ) :   0.8271 B(  7-C , 18-H ) :   0.8065 B(  7-C , 19-H ) :   0.7949 
B(  9-H , 10-H ) :  -0.0529 B( 11-H , 12-H ) :  -0.0541 B( 13-H , 14-H ) :  -0.0513 
B( 17-H , 18-H ) :  -0.0542 


                     *******************************
                     * LOEWDIN POPULATION ANALYSIS *
                     *******************************

----------------------
LOEWDIN ATOMIC CHARGES
----------------------
   0 C :   -0.430918
   1 C :   -0.312635
   2 C :   -0.280731
   3 C :   -0.225179
   4 C :    0.363014
   5 O :   -0.493711
   6 O :   -0.604704
   7 C :   -0.041932
   8 H :    0.153609
   9 H :    0.152997
  10 H :    0.152971
  11 H :    0.155658
  12 H :    0.155550
  13 H :    0.163428
  14 H :    0.164449
  15 H :    0.186899
  16 H :    0.184723
  17 H :    0.186491
  18 H :    0.182331
  19 H :    0.187688

-------------------------------
LOEWDIN REDUCED ORBITAL CHARGES
-------------------------------
  0 C s       :     2.974438  s :     2.974438
      pz      :     1.136476  p :     3.393467
      px      :     1.110436
      py      :     1.146555
      dz2     :     0.020764  d :     0.063014
      dxz     :     0.009556
      dyz     :     0.004595
      dx2y2   :     0.017645
      dxy     :     0.010453

  1 C s       :     2.938885  s :     2.938885
      pz      :     1.124290  p :     3.293659
      px      :     1.045355
      py      :     1.124014
      dz2     :     0.023189  d :     0.080091
      dxz     :     0.014720
      dyz     :     0.005071
      dx2y2   :     0.023076
      dxy     :     0.014035

  2 C s       :     2.934570  s :     2.934570
      pz      :     1.117332  p :     3.266568
      px      :     1.026059
      py      :     1.123177
      dz2     :     0.022570  d :     0.079593
      dxz     :     0.015461
      dyz     :     0.005067
      dx2y2   :     0.022757
      dxy     :     0.013737

  3 C s       :     2.924213  s :     2.924213
      pz      :     1.120486  p :     3.227729
      px      :     1.004338
      py      :     1.102905
      dz2     :     0.021437  d :     0.073238
      dxz     :     0.010786
      dyz     :     0.006096
      dx2y2   :     0.019405
      dxy     :     0.015514

  4 C s       :     2.739730  s :     2.739730
      pz      :     0.756873  p :     2.625894
      px      :     0.917302
      py      :     0.951719
      dz2     :     0.033379  d :     0.271362
      dxz     :     0.026060
      dyz     :     0.061187
      dx2y2   :     0.059188
      dxy     :     0.091548

  5 O s       :     3.544413  s :     3.544413
      pz      :     1.537329  p :     4.731784
      px      :     1.704169
      py      :     1.490286
      dz2     :     0.027996  d :     0.217514
      dxz     :     0.018617
      dyz     :     0.050154
      dx2y2   :     0.054323
      dxy     :     0.066422

  6 O s       :     3.468581  s :     3.468581
      pz      :     1.612761  p :     4.664914
      px      :     1.405529
      py      :     1.646624
      dz2     :     0.059303  d :     0.471209
      dxz     :     0.125490
      dyz     :     0.057670
      dx2y2   :     0.124038
      dxy     :     0.104708

  7 C s       :     2.908606  s :     2.908606
      pz      :     1.091892  p :     3.031469
      px      :     0.859515
      py      :     1.080063
      dz2     :     0.013426  d :     0.101856
      dxz     :     0.028834
      dyz     :     0.011892
      dx2y2   :     0.029966
      dxy     :     0.017738

  8 H s       :     0.802487  s :     0.802487
      pz      :     0.009251  p :     0.043904
      px      :     0.023166
      py      :     0.011487

  9 H s       :     0.803254  s :     0.803254
      pz      :     0.026677  p :     0.043749
      px      :     0.008560
      py      :     0.008512

 10 H s       :     0.803302  s :     0.803302
      pz      :     0.008703  p :     0.043727
      px      :     0.008087
      py      :     0.026938

 11 H s       :     0.800976  s :     0.800976
      pz      :     0.008661  p :     0.043365
      px      :     0.007896
      py      :     0.026808

 12 H s       :     0.801109  s :     0.801109
      pz      :     0.026414  p :     0.043341
      px      :     0.008533
      py      :     0.008394

 13 H s       :     0.792875  s :     0.792875
      pz      :     0.026856  p :     0.043697
      px      :     0.008473
      py      :     0.008368

 14 H s       :     0.791773  s :     0.791773
      pz      :     0.008523  p :     0.043778
      px      :     0.007612
      py      :     0.027643

 15 H s       :     0.768739  s :     0.768739
      pz      :     0.027766  p :     0.044362
      px      :     0.008657
      py      :     0.007939

 16 H s       :     0.770971  s :     0.770971
      pz      :     0.008767  p :     0.044305
      px      :     0.007433
      py      :     0.028106

 17 H s       :     0.770434  s :     0.770434
      pz      :     0.008543  p :     0.043075
      px      :     0.006078
      py      :     0.028454

 18 H s       :     0.776257  s :     0.776257
      pz      :     0.019071  p :     0.041412
      px      :     0.014401
      py      :     0.007940

 19 H s       :     0.771293  s :     0.771293
      pz      :     0.021079  p :     0.041019
      px      :     0.006225
      py      :     0.013715


---------------------------------
LOEWDIN BOND ORDERS (THRESH 0.050000)
---------------------------------
B(  0-C ,  1-C ) :   1.1431 B(  0-C ,  2-C ) :   0.0763 B(  0-C ,  8-H ) :   0.9291 
B(  0-C ,  9-H ) :   0.9292 B(  0-C , 10-H ) :   0.9292 B(  1-C ,  2-C ) :   1.0999 
B(  1-C ,  3-C ) :   0.0781 B(  1-C , 11-H ) :   0.8939 B(  1-C , 12-H ) :   0.8944 
B(  2-C ,  3-C ) :   1.0668 B(  2-C ,  4-C ) :   0.0847 B(  2-C , 13-H ) :   0.8868 
B(  2-C , 14-H ) :   0.8835 B(  3-C ,  4-C ) :   0.9307 B(  3-C ,  5-O ) :   0.1821 
B(  3-C ,  6-O ) :   0.1865 B(  3-C , 15-H ) :   0.8616 B(  3-C , 16-H ) :   0.8614 
B(  4-C ,  5-O ) :   2.1383 B(  4-C ,  6-O ) :   1.4714 B(  4-C ,  7-C ) :   0.0892 
B(  5-O ,  6-O ) :   0.4576 B(  5-O ,  7-C ) :   0.0707 B(  6-O ,  7-C ) :   1.3544 
B(  6-O , 17-H ) :   0.0967 B(  6-O , 18-H ) :   0.0998 B(  6-O , 19-H ) :   0.1004 
B(  7-C , 17-H ) :   0.8473 B(  7-C , 18-H ) :   0.8593 B(  7-C , 19-H ) :   0.8603 


------------------------------------------
LOEWDIN REDUCED ORBITAL POPULATIONS PER MO
-------------------------------------------
THRESHOLD FOR PRINTING IS 0.1%%
                      0         1         2         3         4         5   
                 -19.00505 -18.94342 -10.16204 -10.07590 -10.03521 -10.02730
                   2.00000   2.00000   2.00000   2.00000   2.00000   2.00000
                  --------  --------  --------  --------  --------  --------
 2 C  s               0.0       0.0       0.0       0.0       0.0      99.7
 3 C  s               0.0       0.0       0.0       0.0      99.7       0.0
 4 C  s               0.0       0.0      98.9       0.0       0.0       0.0
 5 O  s               0.0      99.9       0.0       0.0       0.0       0.0
 5 O  py              0.0       0.0       0.2       0.0       0.0       0.0
 5 O  dx2y2           0.0       0.0       0.2       0.0       0.0       0.0
 6 O  s              99.9       0.0       0.0       0.0       0.0       0.0
 6 O  dxy             0.0       0.0       0.1       0.1       0.0       0.0
 7 C  s               0.0       0.0       0.0      99.4       0.0       0.0

                      6         7         8         9        10        11   
                 -10.01943 -10.00883  -1.07982  -0.98904  -0.77207  -0.72367
                   2.00000   2.00000   2.00000   2.00000   2.00000   2.00000
                  --------  --------  --------  --------  --------  --------
 0 C  s               0.0      99.7       0.0       0.0       5.0      12.4
 0 C  pz              0.0       0.0       0.0       0.0       0.4       0.4
 0 C  px              0.0       0.0       0.0       0.0       1.3       0.8
 0 C  py              0.0       0.0       0.0       0.0       0.2       0.2
 1 C  s              99.7       0.0       0.0       0.0      13.8      13.3
 1 C  pz              0.0       0.0       0.0       0.0       0.3       0.5
 1 C  px              0.0       0.0       0.0       0.0       1.2       0.8
 1 C  py              0.0       0.0       0.0       0.0       0.5       0.3
 2 C  s               0.0       0.0       0.1       0.0      21.2       1.0
 2 C  pz              0.0       0.0       0.0       0.0       0.7       0.1
 2 C  px              0.1       0.0       0.2       0.1       0.0       5.7
 2 C  py              0.0       0.0       0.0       0.0       0.8       0.0
 3 C  s               0.0       0.0       1.0       0.2      18.2       5.9
 3 C  pz              0.0       0.0       0.2       0.0       0.8       0.0
 3 C  px              0.0       0.0       1.6       0.1       0.8       2.4
 3 C  py              0.0       0.0       0.3       0.4       0.4       0.0
 4 C  s               0.0       0.0      17.0       3.2       2.2       3.7
 4 C  pz              0.0       0.0       0.9       4.2       0.0       0.2
 4 C  px              0.0       0.0       4.0       0.4       5.0       2.0
 4 C  py              0.0       0.0       0.1      19.1       2.4       4.3
 4 C  dz2             0.0       0.0       0.1       0.2       0.0       0.0
 4 C  dxz             0.0       0.0       0.2       0.2       0.0       0.0
 4 C  dyz             0.0       0.0       0.6       0.0       0.0       0.0
 4 C  dx2y2           0.0       0.0       0.1       0.8       0.1       0.0
 4 C  dxy             0.0       0.0       0.1       0.7       0.0       0.0
 5 O  s               0.0       0.0      14.3      40.9       1.0       1.2
 5 O  pz              0.0       0.0       0.3       0.2       0.0       0.0
 5 O  px              0.0       0.0       0.0       0.3       0.2       0.2
 5 O  py              0.0       0.0       2.9       2.7       0.2       0.5
 5 O  dz2             0.0       0.0       0.1       0.0       0.1       0.1
 5 O  dyz             0.0       0.0       0.6       0.1       0.0       0.0
 5 O  dx2y2           0.0       0.0       0.7       0.1       0.0       0.3
 5 O  dxy             0.0       0.0       0.0       0.2       0.3       0.3
 6 O  s               0.0       0.0      40.0      18.8       0.1       0.0
 6 O  pz              0.0       0.0       0.5       0.2       0.5       2.6
 6 O  px              0.0       0.0       0.1       0.4       2.4      10.9
 6 O  py              0.0       0.0       2.3       0.4       0.0       0.0
 6 O  dxz             0.0       0.0       0.3       0.0       0.1       0.0
 6 O  dyz             0.0       0.0       0.3       0.5       0.0       0.1
 6 O  dx2y2           0.0       0.0       0.0       0.5       0.1       0.0
 6 O  dxy             0.0       0.0       0.1       0.3       0.1       0.5
 7 C  s               0.0       0.0       4.2       2.0       1.3       9.3
 7 C  pz              0.0       0.0       0.7       0.1       0.0       0.0
 7 C  px              0.0       0.0       4.3       1.4       0.1       0.2
 7 C  py              0.0       0.0       0.3       0.6       0.0       0.1
 7 C  dx2y2           0.0       0.0       0.2       0.1       0.0       0.0
 7 C  dxy             0.0       0.0       0.1       0.1       0.0       0.0
 8 H  s               0.0       0.0       0.0       0.0       0.6       1.9
 8 H  px              0.0       0.0       0.0       0.0       0.0       0.1
 9 H  s               0.0       0.0       0.0       0.0       0.6       1.9
 9 H  pz              0.0       0.0       0.0       0.0       0.1       0.2
10 H  s               0.0       0.0       0.0       0.0       0.6       1.9
10 H  py              0.0       0.0       0.0       0.0       0.1       0.2
11 H  s               0.0       0.0       0.0       0.0       1.7       2.0
11 H  py              0.0       0.0       0.0       0.0       0.2       0.2
12 H  s               0.0       0.0       0.0       0.0       1.7       2.0
12 H  pz              0.0       0.0       0.0       0.0       0.2       0.2
13 H  s               0.0       0.0       0.0       0.0       2.7       0.1
13 H  pz              0.0       0.0       0.0       0.0       0.2       0.0
14 H  s               0.0       0.0       0.0       0.0       2.7       0.2
14 H  py              0.0       0.0       0.0       0.0       0.3       0.0
15 H  s               0.0       0.0       0.0       0.0       2.4       0.9
15 H  pz              0.0       0.0       0.0       0.0       0.2       0.1
16 H  s               0.0       0.0       0.1       0.0       2.5       1.2
16 H  py              0.0       0.0       0.0       0.0       0.2       0.1
17 H  s               0.0       0.0       0.3       0.1       0.2       1.6
17 H  py              0.0       0.0       0.0       0.0       0.0       0.1
18 H  s               0.0       0.0       0.3       0.1       0.2       1.6
19 H  s               0.0       0.0       0.2       0.2       0.2       1.9
19 H  pz              0.0       0.0       0.0       0.0       0.0       0.1

                     12        13        14        15        16        17   
                  -0.67986  -0.60909  -0.54559  -0.53128  -0.46741  -0.45881
                   2.00000   2.00000   2.00000   2.00000   2.00000   2.00000
                  --------  --------  --------  --------  --------  --------
 0 C  s              10.9      14.4       4.8       0.0       0.2       0.0
 0 C  pz              0.1       0.4       3.2       0.0       0.9       0.0
 0 C  px              0.0       1.9       1.8       0.1       0.5       0.1
 0 C  py              0.0       0.2       2.5       0.1       0.1       0.7
 1 C  s               2.5       2.2      13.0       0.1       0.7       0.2
 1 C  pz              0.4       0.4       4.4       0.4       0.2       0.6
 1 C  px              4.4       7.6       0.2       0.1       0.9       0.2
 1 C  py              0.0       0.0       5.0       0.4       0.1       1.4
 1 C  dxz             0.0       0.1       0.0       0.0       0.0       0.0
 1 C  dxy             0.1       0.1       0.0       0.0       0.0       0.0
 2 C  s               4.1       9.8       6.8       1.3       0.0       0.1
 2 C  pz              0.3       0.4       2.8       1.9       0.1       2.9
 2 C  px              2.9       2.0       2.9       0.1       0.1       0.3
 2 C  py              0.0       0.1       4.3       1.0       4.2       0.9
 3 C  s               6.9       6.5       0.3       2.7       2.1       0.2
 3 C  pz              0.0       1.5       1.9       2.5       0.1       7.5
 3 C  px              1.2       4.5       1.1       0.6       5.9       2.0
 3 C  py              0.2       0.3       1.5       0.9      13.2       0.7
 3 C  dxy             0.0       0.1       0.0       0.0       0.2       0.0
 4 C  s               0.8       1.4       0.6       3.4       3.2       0.4
 4 C  pz              0.9       1.1       0.4       2.2       1.2       4.0
 4 C  px              2.6       3.8       0.2       1.2       9.1       4.3
 4 C  py              0.8       0.9       0.6       0.7       1.0       1.2
 4 C  dyz             0.1       0.1       0.0       0.0       0.0       0.1
 4 C  dx2y2           0.1       0.0       0.0       0.0       0.0       0.2
 4 C  dxy             0.2       0.1       0.0       0.0       0.0       0.0
 5 O  s               0.0       0.5       0.2       2.5       5.1       5.8
 5 O  pz              0.0       0.1       0.0       1.7       0.0       0.0
 5 O  px              0.1       0.4       0.0       0.3      12.0       0.4
 5 O  py              0.1       0.4       0.4       2.8      10.7      16.9
 5 O  dz2             0.0       0.1       0.0       0.0       0.1       0.1
 5 O  dxz             0.0       0.0       0.0       0.0       0.1       0.1
 5 O  dyz             0.0       0.0       0.0       0.3       0.0       0.0
 5 O  dx2y2           0.2       0.0       0.1       0.1       0.0       0.2
 5 O  dxy             0.0       0.3       0.0       0.0       0.9       0.2
 6 O  s               0.7       1.1       0.6       5.5       0.2       0.7
 6 O  pz              3.1       0.0       1.0       5.6       3.0       7.1
 6 O  px             11.0       0.1       0.5       9.4       0.5      10.4
 6 O  py              0.2       0.1       0.2       9.4       2.2       5.9
 6 O  dz2             0.2       0.1       0.0       0.2       0.1       0.1
 6 O  dxz             0.4       0.7       0.1       0.1       0.3       0.4
 6 O  dyz             0.1       0.0       0.0       0.1       0.0       0.3
 6 O  dx2y2           0.8       0.8       0.1       0.1       0.2       0.4
 6 O  dxy             0.6       0.1       0.1       0.1       1.0       0.0
 7 C  s              17.2       4.4       0.9       5.3       0.0       0.5
 7 C  pz              0.1       0.1       0.0       0.1       1.4       9.2
 7 C  px              0.2       1.0       1.2       8.1       0.1       1.3
 7 C  py              0.0       0.1       0.5       8.3       4.1       0.2
 7 C  dx2y2           0.0       0.0       0.0       0.1       0.0       0.1
 7 C  dxy             0.0       0.0       0.0       0.4       0.0       0.0
 8 H  s               2.2       4.7       1.7       0.0       0.2       0.0
 8 H  px              0.2       0.3       0.1       0.0       0.0       0.0
 9 H  s               2.0       3.9       2.9       0.0       0.4       0.0
 9 H  pz              0.2       0.3       0.2       0.0       0.0       0.0
10 H  s               2.0       3.9       2.9       0.0       0.1       0.3
10 H  py              0.2       0.3       0.2       0.0       0.0       0.0
11 H  s               0.4       0.6       7.0       0.1       0.0       0.8
11 H  py              0.0       0.0       0.5       0.0       0.0       0.0
12 H  s               0.4       0.5       7.0       0.2       0.7       0.0
12 H  pz              0.0       0.0       0.4       0.0       0.0       0.0
13 H  s               0.7       2.7       4.3       1.2       0.0       0.7
13 H  pz              0.1       0.2       0.3       0.1       0.0       0.0
14 H  s               0.8       2.5       4.4       0.8       0.8       0.6
14 H  py              0.1       0.2       0.3       0.0       0.0       0.0
15 H  s               1.6       2.2       0.5       2.7       1.1       3.5
15 H  pz              0.1       0.2       0.0       0.2       0.1       0.1
16 H  s               1.0       1.9       0.5       1.4       6.6       0.4
16 H  py              0.1       0.2       0.0       0.1       0.2       0.0
17 H  s               3.5       1.3       0.6       6.5       1.1       0.3
17 H  py              0.3       0.1       0.0       0.3       0.0       0.0
18 H  s               3.8       1.5       0.7       3.9       0.2       0.2
18 H  pz              0.2       0.1       0.0       0.2       0.0       0.0
18 H  px              0.1       0.0       0.0       0.0       0.0       0.1
19 H  s               4.4       1.5       0.3       1.3       1.0       4.2
19 H  pz              0.2       0.1       0.0       0.0       0.0       0.1
19 H  py              0.1       0.0       0.0       0.1       0.0       0.1

                     18        19        20        21        22        23   
                  -0.45149  -0.43393  -0.39921  -0.38906  -0.37776  -0.36469
                   2.00000   2.00000   2.00000   2.00000   2.00000   2.00000
                  --------  --------  --------  --------  --------  --------
 0 C  pz              0.0       4.2       2.6       2.5       8.0       7.8
 0 C  px              0.7       0.2       9.4       3.9       4.5       7.5
 0 C  py              0.1       4.1       4.0       4.9       7.1       2.6
 1 C  s               0.0       0.0       0.1       0.1       0.2       0.1
 1 C  pz              0.6      10.2       3.9       5.9       0.1       0.8
 1 C  px              0.2       0.3       3.4       0.4       1.7       2.2
 1 C  py              0.7       9.6       4.7       0.9       6.4       0.2
 2 C  s               0.3       0.0       0.0       0.1       0.3       0.6
 2 C  pz              1.2      10.2       0.2       0.7       5.8       4.4
 2 C  px              1.4       0.4      10.7       0.3       0.2       1.0
 2 C  py              0.8       9.3       0.1       2.6       0.0       0.8
 3 C  s               0.5       0.0       0.0       0.0       0.1       0.1
 3 C  pz              0.1       3.0       6.3       4.6       4.6       0.0
 3 C  px              2.4       0.2       0.3       3.6       7.4       0.4
 3 C  py              0.0       2.4       3.8       6.2       5.1       0.5
 4 C  s               0.1       0.4       0.1       0.2       0.1       0.0
 4 C  pz              8.5       0.7       1.3       1.2       0.2       6.6
 4 C  px              0.5       0.0       1.4       2.4       2.4       2.2
 4 C  py              4.5       1.7       0.5       3.3       0.0       1.1
 4 C  dxz             0.1       0.0       0.0       0.1       0.0       0.0
 4 C  dx2y2           0.0       0.0       0.1       0.2       0.0       0.1
 4 C  dxy             0.1       0.1       0.0       0.0       0.2       0.1
 5 O  s               1.5       2.2       0.3       1.0       0.0       0.0
 5 O  pz              9.6       0.2       0.6       3.6       0.1      11.5
 5 O  px              0.3       0.2       0.4       0.0       0.2       5.1
 5 O  py              1.1       9.4       3.8       8.1       0.2       2.4
 5 O  dz2             0.3       0.0       0.0       0.0       0.0       0.0
 5 O  dxz             0.0       0.0       0.1       0.2       0.0       0.1
 5 O  dyz             0.6       0.0       0.1       0.1       0.0       0.2
 5 O  dx2y2           0.1       0.1       0.1       0.1       0.0       0.1
 6 O  s               0.4       0.2       0.0       0.0       0.3       0.1
 6 O  pz             15.9       0.2       1.6       0.1       0.5       0.2
 6 O  px              0.4       3.5       1.4       0.7       4.1       0.3
 6 O  py             15.4       0.0       0.1       2.5       0.7       0.0
 6 O  dz2             0.1       0.0       0.5       0.0       0.2       0.9
 6 O  dxz             0.0       0.0       0.9       0.0       0.0       0.7
 6 O  dyz             0.2       0.1       0.0       0.2       0.1       0.0
 6 O  dx2y2           0.8       0.0       0.2       0.1       0.1       0.2
 6 O  dxy             0.0       0.0       0.0       0.3       0.3       0.2
 7 C  s               0.3       0.1       0.0       0.0       0.1       0.0
 7 C  pz              4.9       1.1      13.9       0.8       4.6       9.0
 7 C  px              9.5       0.3       0.3       4.5       3.3       2.6
 7 C  py              4.7       0.9       0.0       9.7       2.3       0.8
 7 C  dz2             0.1       0.0       0.0       0.1       0.1       0.0
 7 C  dxz             0.0       0.0       0.0       0.0       0.0       0.1
 8 H  s               0.3       0.0       6.0       0.7       2.6       6.5
 8 H  pz              0.0       0.0       0.0       0.0       0.1       0.0
 8 H  px              0.0       0.0       0.1       0.0       0.0       0.1
 9 H  s               0.0       1.7       1.0       1.5       3.6       4.0
10 H  s               0.0       1.8       0.7       3.0       3.1       0.5
11 H  s               0.1       4.0       1.0       1.1       1.8       0.0
11 H  py              0.0       0.2       0.0       0.1       0.0       0.0
12 H  s               0.1       3.9       1.3       1.5       0.6       0.3
12 H  pz              0.0       0.1       0.0       0.0       0.0       0.0
13 H  s               0.5       4.0       0.0       0.0       1.2       3.6
13 H  pz              0.0       0.1       0.0       0.0       0.0       0.1
14 H  s               0.5       4.0       0.1       0.6       0.4       0.6
14 H  px              0.0       0.0       0.1       0.0       0.0       0.0
14 H  py              0.0       0.1       0.0       0.0       0.0       0.0
15 H  s               0.2       1.4       1.9       1.9       3.1       0.0
16 H  s               0.0       1.1       0.9       3.1       4.4       0.2
16 H  py              0.0       0.0       0.0       0.1       0.2       0.0
17 H  s               1.9       0.8       0.3       3.8       0.5       1.4
18 H  s               6.2       0.0       3.9       0.6       0.0       6.2
18 H  pz              0.1       0.0       0.0       0.0       0.0       0.1
18 H  px              0.1       0.0       0.1       0.0       0.0       0.1
19 H  s               0.2       0.2       4.0       4.3       4.9       1.3
19 H  pz              0.1       0.0       0.0       0.1       0.1       0.0

                     24        25        26        27        28        29   
                  -0.34293  -0.32579  -0.31929  -0.30168  -0.29590  -0.29132
                   2.00000   2.00000   2.00000   2.00000   2.00000   2.00000
                  --------  --------  --------  --------  --------  --------
 0 C  s               0.1       0.0       0.0       0.8       0.1       0.0
 0 C  pz              3.5       0.5      11.2       7.1       0.0       4.1
 0 C  px              2.1       1.2       1.3       3.2      13.8       0.4
 0 C  py             12.4       2.6       3.4       7.1       1.9       2.9
 0 C  dz2             0.0       0.0       0.4       0.0       0.1       0.4
 0 C  dx2y2           0.1       0.1       0.0       0.2       0.3       0.1
 0 C  dxy             0.0       0.0       0.0       0.0       0.2       0.0
 1 C  s               0.0       0.0       0.0       0.7       0.1       0.0
 1 C  pz              3.0       0.1       3.2      10.0       0.0      10.8
 1 C  px              9.3       0.3       0.2       0.4      15.4       1.0
 1 C  py              1.4       0.2       0.7      11.6       3.1       7.6
 1 C  dz2             0.0       0.0       0.1       0.1       0.0       0.7
 1 C  dxz             0.1       0.0       0.0       0.2       0.1       0.0
 1 C  dx2y2           0.0       0.0       0.0       0.5       0.2       0.2
 1 C  dxy             0.0       0.0       0.0       0.0       0.2       0.0
 2 C  s               0.1       0.1       0.0       0.7       0.3       0.0
 2 C  pz              1.9       0.5       6.7       7.8       0.0       6.8
 2 C  px              0.1       1.4       0.2       0.0      19.2       0.7
 2 C  py             10.2       1.4       4.4       8.1       1.1       4.2
 2 C  dz2             0.0       0.0       0.3       0.1       0.0       0.5
 2 C  dxz             0.0       0.0       0.0       0.2       0.2       0.1
 2 C  dx2y2           0.1       0.1       0.0       0.4       0.0       0.2
 2 C  dxy             0.0       0.0       0.1       0.0       0.1       0.0
 3 C  s               0.3       0.3       0.1       0.6       0.3       0.0
 3 C  pz              4.5       0.1      12.2       4.6       0.4       1.0
 3 C  px              0.2       0.0       0.9       3.8       4.6       0.1
 3 C  py              4.7       3.8       2.1       3.0       1.5       0.7
 3 C  dz2             0.1       0.0       0.4       0.0       0.1       0.2
 3 C  dx2y2           0.3       0.1       0.0       0.1       0.0       0.0
 3 C  dxy             0.0       0.0       0.0       0.0       0.1       0.0
 4 C  s               0.1       0.3       0.1       0.0       0.5       0.0
 4 C  pz              2.9       0.7       0.2       0.1       0.1       0.0
 4 C  px              0.8       0.1       0.0       0.1       1.3       0.0
 4 C  py              0.7       2.9       0.4       0.0       0.5       0.0
 4 C  dz2             0.0       0.0       0.0       0.0       0.0       0.1
 4 C  dxz             0.0       0.1       0.1       0.0       0.1       0.0
 4 C  dyz             0.2       0.1       0.0       0.1       0.0       0.1
 4 C  dx2y2           0.1       0.8       0.1       0.0       0.0       0.0
 4 C  dxy             0.0       0.0       0.1       0.0       0.0       0.0
 5 O  s               0.0       0.6       0.0       0.0       0.1       0.0
 5 O  pz             10.6       0.6       0.6       1.9       0.0       1.2
 5 O  px              0.1       2.2       1.6       0.5       5.4       0.5
 5 O  py              0.2       5.1       0.0       0.4       2.0       0.2
 5 O  dyz             0.1       0.1       0.0       0.0       0.0       0.0
 5 O  dx2y2           0.0       0.3       0.0       0.0       0.2       0.0
 6 O  s               0.1       2.8       0.8       0.1       0.5       0.0
 6 O  pz              0.1       1.6       0.9       0.0       0.3       3.0
 6 O  px              0.0       2.3       2.7       0.1       0.2       1.2
 6 O  py              0.6      24.3       1.2       0.2       6.4       0.1
 6 O  dz2             0.1       0.1       0.0       0.0       0.0       0.0
 6 O  dxz             0.0       0.5       0.5       0.0       0.2       0.2
 6 O  dyz             0.0       0.1       0.0       0.0       0.0       0.0
 6 O  dx2y2           0.0       0.8       0.1       0.0       0.4       0.0
 6 O  dxy             0.1       0.8       0.0       0.0       0.0       0.0
 7 C  s               0.0       0.2       0.0       0.0       0.1       0.0
 7 C  pz              0.1       1.4       0.6       0.0       0.3       0.6
 7 C  px              1.0       0.3       1.4       0.0       0.2       0.3
 7 C  py              4.4      14.6       0.6       0.1       0.8       0.0
 7 C  dz2             0.0       0.1       0.0       0.0       0.0       0.0
 7 C  dxz             0.0       0.2       0.1       0.0       0.0       0.1
 7 C  dyz             0.0       0.2       0.0       0.0       0.0       0.0
 7 C  dx2y2           0.1       0.2       0.0       0.0       0.1       0.0
 8 H  s               0.2       1.3       0.7       0.3       9.7       0.1
 9 H  s               0.7       0.3       8.3       1.8       0.2       4.9
 9 H  pz              0.0       0.0       0.1       0.0       0.0       0.0
 9 H  px              0.0       0.0       0.0       0.0       0.1       0.0
 9 H  py              0.1       0.0       0.0       0.1       0.0       0.0
10 H  s               5.5       1.7       3.6       2.6       1.6       3.9
10 H  pz              0.1       0.0       0.0       0.1       0.0       0.0
10 H  px              0.0       0.0       0.0       0.0       0.1       0.0
11 H  s               0.5       0.2       0.6       5.5       1.6       9.6
11 H  pz              0.0       0.0       0.0       0.2       0.0       0.0
11 H  px              0.1       0.0       0.0       0.0       0.2       0.0
12 H  s               0.5       0.0       2.3       4.3       0.2      11.8
12 H  px              0.1       0.0       0.0       0.0       0.1       0.0
12 H  py              0.0       0.0       0.0       0.2       0.0       0.0
13 H  s               0.2       0.4       4.9       3.4       0.1       8.0
13 H  px              0.0       0.0       0.0       0.0       0.2       0.0
13 H  py              0.1       0.0       0.0       0.1       0.0       0.0
14 H  s               3.9       1.5       3.5       3.7       0.1       6.2
14 H  pz              0.1       0.0       0.0       0.1       0.0       0.0
14 H  px              0.0       0.0       0.0       0.0       0.2       0.0
[...]
 3 C  dxy             1.0       0.1       0.1       0.0       0.0       0.0
 4 C  s               1.1       0.2       2.5       5.4       0.1       0.0
 4 C  pz              0.1       0.3       2.0       0.5       0.0       0.0
 4 C  px              0.6       0.3       2.8       0.4       0.0       0.0
 4 C  py              0.7       0.7       2.2       6.8       0.0       0.0
 4 C  dz2             1.1       0.0       0.0       1.0       0.0       0.0
 4 C  dxz             0.5       0.4       2.9       0.1       0.0       0.0
 4 C  dyz             1.3       0.4       3.4       1.2       0.0       0.0
 4 C  dx2y2           3.6       0.0       0.0       3.4       0.0       0.0
 4 C  dxy             2.4       1.0       6.4       0.9       0.0       0.0
 5 O  s               0.7       1.1       0.6      18.5       0.0       0.0
 5 O  pz              1.0       0.2       0.0       1.6       0.0       0.0
 5 O  px              1.0       0.1       0.3       1.2       0.0       0.0
 5 O  py              0.3       0.9       0.2      19.2       0.0       0.0
 5 O  dz2             0.3       0.1       0.4       4.9       0.0       0.0
 5 O  dxz             0.6       0.1       0.1       0.4       0.0       0.0
 5 O  dyz             2.4       0.6       0.1       6.4       0.0       0.0
 5 O  dx2y2           0.0       1.4       0.2      17.6       0.0       0.0
 5 O  dxy             4.4       0.0       1.4       4.5       0.0       0.0
 6 O  s               3.2      24.3       6.4       1.2       0.0       0.0
 6 O  pz              0.5       0.2       7.9       0.1       0.0       0.0
 6 O  px              0.0       7.6      19.9       0.4       0.0       0.0
 6 O  py              1.9       5.9       2.9       0.2       0.0       0.0
 6 O  dz2             0.2       4.3       0.1       0.3       0.0       0.0
 6 O  dxz             0.0      11.7       4.4       0.6       0.0       0.0
 6 O  dyz             0.8       0.1       8.7       0.0       0.0       0.0
 6 O  dx2y2           1.8       8.4       0.4       0.6       0.0       0.0
 6 O  dxy             0.1       2.1      16.4       0.5       0.0       0.0
 7 C  s               0.1       1.8       0.6       0.2       2.1      18.8
 7 C  pz              0.0       0.6       0.2       0.1       0.0       0.0
 7 C  px              0.0       6.6       1.4       0.3       0.0       0.0
 7 C  py              0.0       0.7       0.4       0.0       0.0       0.0
 7 C  dz2             0.0       2.1       0.3       0.1       0.0       0.0
 7 C  dxz             0.2       3.2       0.4       0.0       0.0       0.0
 7 C  dyz             0.1       0.4       0.1       0.0       0.0       0.0
 7 C  dx2y2           0.1       3.5       1.2       0.2       0.0       0.0
 7 C  dxy             0.3       4.4       0.8       0.3       0.0       0.0
11 H  s               0.2       0.0       0.0       0.0       0.0       0.0
11 H  px              0.2       0.0       0.0       0.0       0.0       0.0
11 H  py              0.7       0.0       0.0       0.0       0.0       0.0
12 H  s               0.6       0.0       0.0       0.0       0.0       0.0
12 H  pz              1.9       0.0       0.0       0.0       0.0       0.0
13 H  s               1.5       0.0       0.0       0.0       0.0       0.0
13 H  pz              4.1       0.0       0.0       0.0       0.0       0.0
13 H  py              0.4       0.0       0.0       0.0       0.0       0.0
14 H  s               1.0       0.0       0.0       0.0       0.0       0.0
14 H  pz              0.3       0.0       0.0       0.0       0.0       0.0
14 H  py              2.8       0.0       0.0       0.0       0.0       0.0
15 H  s               1.8       0.0       0.0       0.0       0.0       0.0
15 H  pz              4.8       0.0       0.0       0.0       0.0       0.0
15 H  px              0.1       0.0       0.0       0.0       0.0       0.0
15 H  py              0.1       0.0       0.0       0.0       0.0       0.0
16 H  s               0.6       0.0       0.1       0.0       0.0       0.0
16 H  pz              0.2       0.0       0.0       0.0       0.0       0.0
16 H  py              2.0       0.1       0.1       0.0       0.0       0.0
17 H  s               0.0       0.2       0.1       0.0       0.0       0.0
17 H  px              0.3       0.2       0.1       0.0       0.0       0.0
17 H  py              0.1       0.3       0.1       0.0       0.0       0.0
18 H  s               0.0       0.4       0.0       0.0       0.0       0.0
18 H  pz              0.0       1.0       0.0       0.0       0.0       0.0
19 H  s               0.1       0.3       0.1       0.0       0.0       0.0
19 H  pz              0.1       0.3       0.1       0.0       0.0       0.0
19 H  px              0.0       0.2       0.0       0.0       0.0       0.0
19 H  py              0.1       0.5       0.1       0.0       0.0       0.0

                    216       217       218       219       220       221   
                  21.98557  21.99721  22.05726  22.26293  43.66219  43.70342
                   0.00000   0.00000   0.00000   0.00000   0.00000   0.00000
                  --------  --------  --------  --------  --------  --------
 0 C  s              12.4       1.6       1.1       0.1       0.0       0.0
 1 C  s              25.2      40.0       3.9       0.0       0.0       0.0
 2 C  s               4.8      54.8       1.9       2.0       0.0       0.0
 3 C  s               5.7       0.5      65.6       0.9       0.0       0.0
 4 C  s               1.0       1.6       0.5      95.8       0.0       0.0
 5 O  s               0.0       0.0       0.0       0.2      99.8       0.2
 5 O  py              0.0       0.0       0.0       0.1       0.0       0.0
 6 O  s               0.0       0.0       0.1       0.1       0.2      99.8
 7 C  s              50.5       1.3      26.5       0.3       0.0       0.0



                      *****************************
                      * MAYER POPULATION ANALYSIS *
                      *****************************

  NA   - Mulliken gross atomic population
  ZA   - Total nuclear charge
  QA   - Mulliken gross atomic charge
  VA   - Mayer's total valence
  BVA  - Mayer's bonded valence
  FA   - Mayer's free valence

  ATOM       NA         ZA         QA         VA         BVA        FA
  0 C      6.5092     6.0000    -0.5092     3.7799     3.7799    -0.0000
  1 C      6.2514     6.0000    -0.2514     3.6587     3.6587     0.0000
  2 C      6.2720     6.0000    -0.2720     3.6868     3.6868    -0.0000
  3 C      6.3537     6.0000    -0.3537     3.8181     3.8181     0.0000
  4 C      5.5476     6.0000     0.4524     3.7234     3.7234     0.0000
  5 O      8.5184     8.0000    -0.5184     1.8748     1.8748     0.0000
  6 O      8.2071     8.0000    -0.2071     1.9726     1.9726    -0.0000
  7 C      6.3249     6.0000    -0.3249     3.7375     3.7375    -0.0000
  8 H      0.8414     1.0000     0.1586     0.9588     0.9588     0.0000
  9 H      0.8448     1.0000     0.1552     0.9608     0.9608    -0.0000
 10 H      0.8455     1.0000     0.1545     0.9607     0.9607    -0.0000
 11 H      0.8502     1.0000     0.1498     0.9589     0.9589    -0.0000
 12 H      0.8487     1.0000     0.1513     0.9593     0.9593    -0.0000
 13 H      0.8426     1.0000     0.1574     0.9591     0.9591    -0.0000
 14 H      0.8391     1.0000     0.1609     0.9583     0.9583    -0.0000
 15 H      0.8144     1.0000     0.1856     0.9518     0.9518    -0.0000
 16 H      0.8242     1.0000     0.1758     0.9570     0.9570     0.0000
 17 H      0.8218     1.0000     0.1782     0.9545     0.9545     0.0000
 18 H      0.8202     1.0000     0.1798     0.9480     0.9480     0.0000
 19 H      0.8228     1.0000     0.1772     0.9507     0.9507    -0.0000

  Mayer bond orders larger than 0.100000
B(  0-C ,  1-C ) :   0.8902 B(  0-C ,  8-H ) :   0.9721 B(  0-C ,  9-H ) :   0.9809 
B(  0-C , 10-H ) :   0.9812 B(  1-C ,  2-C ) :   0.9192 B(  1-C , 11-H ) :   0.9701 
B(  1-C , 12-H ) :   0.9778 B(  2-C ,  3-C ) :   0.9116 B(  2-C , 13-H ) :   0.9568 
B(  2-C , 14-H ) :   0.9700 B(  3-C ,  4-C ) :   0.9638 B(  3-C , 15-H ) :   0.9647 
B(  3-C , 16-H ) :   0.9727 B(  4-C ,  5-O ) :   1.7514 B(  4-C ,  6-O ) :   1.0738 
B(  6-O ,  7-C ) :   0.8305 B(  7-C , 17-H ) :   0.9606 B(  7-C , 18-H ) :   0.9525 
B(  7-C , 19-H ) :   0.9598 

-------
TIMINGS
-------

Total SCF time: 0 days 0 hours 0 min 30 sec 

Total time                  ....      30.310 sec
Sum of individual times     ....      29.789 sec  ( 98.3%)

SCF preparation             ....       0.333 sec  (  1.1%)
Fock matrix formation       ....      28.472 sec  ( 93.9%)
  Startup                   ....       0.058 sec  (  0.2% of F)
  Split-RI-J                ....       4.525 sec  ( 15.9% of F)
  XC integration            ....      18.316 sec  ( 64.3% of F)
    XC Preparation          ....       0.000 sec  (  0.0% of XC)
    Basis function eval.    ....       3.329 sec  ( 18.2% of XC)
    Density eval.           ....       5.566 sec  ( 30.4% of XC)
    XC-Functional eval.     ....       2.455 sec  ( 13.4% of XC)
    XC-Potential eval.      ....       5.917 sec  ( 32.3% of XC)
  CPCM terms                ....       5.000 sec  ( 17.6% of F)
Diagonalization             ....       0.000 sec  (  0.0%)
Density matrix formation    ....       0.269 sec  (  0.9%)
Total Energy calculation    ....       0.047 sec  (  0.2%)
Population analysis         ....       0.126 sec  (  0.4%)
Orbital Transformation      ....       0.063 sec  (  0.2%)
Orbital Orthonormalization  ....       0.000 sec  (  0.0%)
DIIS solution               ....       0.423 sec  (  1.4%)
  MO trafo                  ....       0.000 sec  (  0.0 % of DIIS)
  Orb grad                  ....       0.000 sec  (  0.0 % of DIIS)
  Energy W gradient         ....       0.000 sec  (  0.0 % of DIIS)
  DIIS error                ....       0.016 sec  (  3.7 % of DIIS)
  DIIS work                 ....       0.354 sec  ( 83.7 % of DIIS)
  Form Q                    ....       0.000 sec  (  0.0 % of DIIS)
  Form QpQm                 ....       0.000 sec  (  0.0 % of DIIS)
  Exp/Cayley                ....       0.000 sec  (  0.0 % of DIIS)
  Orb update                ....       0.000 sec  (  0.0 % of DIIS)
  Wake-sleep                ....       0.022 sec  (  5.1 % of DIIS)
SOSCF solution              ....       0.057 sec  (  0.2%)
  MO trafo                  ....       0.044 sec  ( 78.2 % of SOSCF)
  Orb grad                  ....       0.001 sec  (  1.5 % of SOSCF)
  Rot update                ....       0.000 sec  (  0.1 % of SOSCF)
  Step                      ....       0.011 sec  ( 20.1 % of SOSCF)
Finished LeanSCF after  30.4 sec

Maximum memory used throughout the entire LEANSCF-calculation: 30.1 MB


-------------------------------------------------------------------------------
                          DFT DISPERSION CORRECTION                            
                                                                               
                                DFTD4 V3.4.0                                   
-------------------------------------------------------------------------------
The R2SCAN3C composite method is recognized
Using three-body term ABC
Active option DFTDOPT                   ...         5   

-------------------------   ----------------
Dispersion correction           -0.004890799
-------------------------   ----------------

------------------   -----------------
gCP correction             0.011926505
------------------   -----------------

-------------------------   --------------------
FINAL SINGLE POINT ENERGY      -386.234925279853
-------------------------   --------------------


------------------------------------------------------------------------------
                              ORCA PROPERTY CALCULATIONS
------------------------------------------------------------------------------

GBWName                                 ... sp_solv.gbw
Number of atoms                         ...     20
Number of basis functions               ...    222
Max core memory                         ...   1024 MB

Electric properties:
Dipole moment                           ... YES
Quadrupole moment                       ...  NO
Static polarizability (Dipole/Dipole)   ...  NO
Static polarizability (Dipole/Quad.)    ...  NO
Static polarizability (Quad./Quad.)     ...  NO
Static polarizability (Velocity)        ...  NO

Atomic electric properties:
Dipole moment                           ...  NO
Quadrupole moment                       ...  NO
Static polarizability                   ...  NO

Choice of electric origin               ... Center of mass
Position of electric origin             ...    -0.000038    -0.000008     0.000007

General magnetic properties:
Magnetizability                         ...  NO

EPR properties:
g-Tensor (aka g-matrix)                 ...  NO
Zero-Field splitting spin-orbit         ...  NO
Zero-field splitting spin-spin          ...  NO
Hyperfine couplings                     ...  NO (   0 nuclei)
Quadrupole couplings                    ...  NO (   0 nuclei)
Contact density                         ...  NO (   0 nuclei)

NMR properties:
Chemical shifts                         ...  NO (   0 nuclei)
Spin-rotation constants                 ...  NO (   0 nuclei)
Spin-spin couplings                     ...  NO (   0 nuclei,    0 pairs)

Choice of magnetic origin               ... GIAO
Position of magnetic origin             ...     0.000000     0.000000     0.000000

Properties with geometric perturbations:
SCF Hessian                             ...  NO
IR spectrum                             ...  NO
VCD spectrum                            ...  NO
X-ray spectroscopy properties:
SCF XES/XAS/RIXS spectra                ...  NO


-------------
DIPOLE MOMENT
-------------

Method             : SCF
Type of density    : Electron Density
Multiplicity       :   1
Irrep              :   0
Energy             :  -386.2419609852516942 Eh
Relativity type    : 
Basis              : AO
                                X                 Y                 Z
Electronic contribution:      9.329941375       0.796711564      -2.024058395
Nuclear contribution   :     -9.368918278      -1.801331919       2.533488958
                        -----------------------------------------
Total Dipole Moment    :     -0.038976903      -1.004620355       0.509430563
                        -----------------------------------------
Magnitude (a.u.)       :      1.127076198
Magnitude (Debye)      :      2.864800025



--------------------
Rotational spectrum 
--------------------
 
Rotational constants in cm-1:             0.184391             0.026019             0.025156 
Rotational constants in MHz :          5527.912420           780.032457           754.151554 

Dipole components along the rotational axes: 
x,y,z [a.u.] :    -0.083164    -1.109895    -0.177530 
x,y,z [Debye]:    -0.211385    -2.821130    -0.451244 

 

Dipole moment calculation done in   0.0 sec 

Maximum memory used throughout the entire PROP-calculation: 13.5 MB

--------------------------------
SUGGESTED CITATIONS FOR THIS RUN
--------------------------------

Below you find a list of papers that are relevant to this ORCA run
We neither can nor want to force you to cite these papers, but we appreciate if you do
You receive ORCA, which is the product of decades of hard work by many enthusiastic individuals, for free
The only thing we kindly ask in return is that you cite our papers,
We deeply appreciate it, if you show your appreciation for ORCA by not just citing the generic ORCA reference.

Please note that relegating all ORCA citations to the supporting information does *not* help us.
SI sections are not indexed - citations you put there will not count into any citation statistics
But we need these citations in order to attract the funding resources that allow us to do what we are doing

Therefore, if you are a happy ORCA user, please consider citing a few of the papers listed below in the main body of your paper

In addition to the list printed below, the program has created the file sp_solv.bibtex that contains the list in bibtex format
You can import this file easily into all common literature databanks and citation aid programs


List of essential papers. We consider these as the minimum necessary citations

  1. Neese,F.
     Software update: the ORCA program system, version 5.0
     WIRES Comput. Molec. Sci., 2022 12(1)e1606
     doi.org/10.1002/wcms.1606
  2. Grimme,S.; Hansen,A.; Ehlert,S.; Mewes,J.
     r2SCAN-3c: A 'Swiss army knife' composite electronic-structure method
     J. Chem. Phys., 2021 154 064103
     doi.org/10.1063/5.0040021

List of papers to cite with high priority. The work reported in these papers was absolutely
necessary for this run to complete.
Our perspective: the developers of density functionals and basis sets usually get cited in chemistry papers
Good! But without the algorithms to do something with them, the functionals or basis sets would not do anything.
Hence, in our opinion, the algorithm design and method developments papers are equally worthy of getting cited

  1. Neese,F.
     An improvement of the resolution of the identity approximation for the formation of the Coulomb matrix
     J. Comp. Chem., 2003 24(14)1740-1747
     doi.org/10.1002/jcc.10318
  2. Garcia-Rates,M.; Neese,F.
     Effect of the Solute Cavity on the Solvation Energy and its Derivatives within the Framework of the Gaussian Charge Scheme
     J. Comput. Chem., 2020 41 922-939
     doi.org/10.1002/jcc.26139
  3. Neese,F.
     The SHARK Integral Generation and Digestion System
     J. Comp. Chem., 2022  1-16
     doi.org/10.1002/jcc.26942
  4. Lehtola,S.; Steigemann,C.; Oliveira,M.; Marques,M.
     Recent developments in Libxc - A comprehensive library of functionals for density functional theory
     Software X, 2018 7 
     doi.org/10.1016/j.softx.2017.11.002
  5. Caldeweyher,E.; Bannwarth,C.; Grimme,S.
     Extension of the D3 dispersion coefficient model
     J. Chem. Phys., 2017 147 034112-XXXX
     doi.org/10.1063/1.4993215
  6. Caldeweyher,E.; Ehlert,S.; Hansen,A.; Neugebauer,H.; Spicher,S.; Bannwarth,C.; Grimme,S.
     A generally applicable atomic-charge dependent London dispersion correction
     J. Chem. Phys., 2019 150 154122-XXXX
     doi.org/10.1063/1.5090222
  7. Caldeweyher,E.; Mewes,J.; Ehlert,S.; Grimme,S.
     Extension and evaluation of the D4 London-dispersion model for periodic systems
     Phys. Chem. Chem. Phys., 2020 22(16)8499-8512
     doi.org/10.1039/D0CP00502A

List of suggested additional citations. These are papers that are important in the 'surrounding' of 
of this run, or papers that preceded the highly important papers. If you like your results we are grateful for a citation.

  1. Neese,F.
     The ORCA program system
     WIRES Comput. Molec. Sci., 2012 2(1)73-78
     doi.org/10.1002/wcms.81
  2. Neese,F.
     Software update: the ORCA program system, version 4.0
     WIRES Comput. Molec. Sci., 2018 8(1)1-6
     doi.org/10.1002/wcms.1327
  3. Neese,F.; Wennmohs,F.; Becker,U.; Riplinger,C.
     The ORCA quantum chemistry program package
     J. Chem. Phys., 2020 152 Art. No. L224108
     doi.org/10.1063/5.0004608

List of optional additional citations

  1. Neese,F.
     Approximate second-order SCF convergence for spin unrestricted wavefunctions
     Chem. Phys. Lett., 2000 325(1-3)93-98
     doi.org/10.1016/s0009-2614(00)00662-x

Timings for individual modules:

Sum of individual times          ...       32.102 sec (=   0.535 min)
Startup calculation              ...        1.205 sec (=   0.020 min)   3.8 %
SCF iterations                   ...       30.788 sec (=   0.513 min)  95.9 %
Property calculations            ...        0.109 sec (=   0.002 min)   0.3 %
                             ****ORCA TERMINATED NORMALLY****
TOTAL RUN TIME: 0 days 0 hours 0 minutes 32 seconds 851 msec
