      -----------------------------------------------------------      
     |                   =====================                   |     
     |                           x T B                           |     
     |                   =====================                   |     
     |                         S. Grimme                         |     
     |          Mulliken Center for Theoretical Chemistry        |     
     |                    University of Bonn                     |     
      -----------------------------------------------------------      

   * xtb version 6.7.1 (edcfbbe) compiled by 'albert@albert-system' on 2024-07-22

   xtb is free software: you can redistribute it and/or modify it under
   the terms of the GNU Lesser General Public License as published by
   the Free Software Foundation, either version 3 of the License, or
   (at your option) any later version.
   
   xtb is distributed in the hope that it will be useful,
   but WITHOUT ANY WARRANTY; without even the implied warranty of
   MERCHANTABILITY or FITNESS FOR A PARTICULAR PURPOSE.  See the
   GNU Lesser General Public License for more details.
   
   Cite this work as:
   * C. Bannwarth, E. Caldeweyher, S. Ehlert, A. Hansen, P. Pracht,
     J. Seibert, S. Spicher, S. Grimme, WIREs Comput. Mol. Sci., 2020, 11,
     e01493. DOI: 10.1002/wcms.1493
   
   for GFN2-xTB:
   * C. Bannwarth, S. Ehlert and S. Grimme., J. Chem. Theory Comput., 2019,
     15, 1652-1671. DOI: 10.1021/acs.jctc.8b01176
   for GFN1-xTB:
   * S. Grimme, C. Bannwarth, P. Shushkov, J. Chem. Theory Comput., 2017,
     13, 1989-2009. DOI: 10.1021/acs.jctc.7b00118
   for GFN0-xTB:
   * P. Pracht, E. Caldeweyher, S. Ehlert, S. Grimme, ChemRxiv, 2019, preprint.
     DOI: 10.26434/chemrxiv.8326202.v1
   for GFN-FF:
   * S. Spicher and S. Grimme, Angew. Chem. Int. Ed., 2020, 59, 15665-15673.
     DOI: 10.1002/anie.202004239
   
   for ALPB and GBSA implicit solvation:
   * S. Ehlert, M. Stahn, S. Spicher, S. Grimme, J. Chem. Theory Comput.,
     2021, 17, 4250-4261. DOI: 10.1021/acs.jctc.1c00471
   
   for ddCOSMO and CPCM-X implicit solvation:
   * M. Stahn, S. Ehlert, S. Grimme, J. Phys. Chem. A,
     2023, XX, XXXX-XXXX. DOI: 10.1021/acs.jpca.3c04382
   
   for DFT-D4:
   * E. Caldeweyher, C. Bannwarth and S. Grimme, J. Chem. Phys., 2017,
     147, 034112. DOI: 10.1063/1.4993215
   * E. Caldeweyher, S. Ehlert, A. Hansen, H. Neugebauer, S. Spicher,
     C. Bannwarth and S. Grimme, J. Chem. Phys., 2019, 150, 154122.
     DOI: 10.1063/1.5090222
   * E. Caldeweyher, J.-M. Mewes, S. Ehlert and S. Grimme, Phys. Chem. Chem. Phys.
     2020, 22, 8499-8512. DOI: 10.1039/D0CP00502A
   
   for sTDA-xTB:
   * S. Grimme and C. Bannwarth, J. Chem. Phys., 2016, 145, 054103.
     DOI: 10.1063/1.4959605
   
   in the mass-spec context:
   * V. Asgeirsson, C. Bauer and S. Grimme, Chem. Sci., 2017, 8, 4879.
     DOI: 10.1039/c7sc00601b
   * J. Koopman and S. Grimme, ACS Omega 2019, 4, 12, 15120-15133.
     DOI: 10.1021/acsomega.9b02011
   
   for metadynamics refer to:
   * S. Grimme, J. Chem. Theory Comput., 2019, 155, 2847-2862
     DOI: 10.1021/acs.jctc.9b00143
   
   for SPH calculations refer to:
   * S. Spicher and S. Grimme, J. Chem. Theory Comput., 2021, 17, 1701-1714
     DOI: 10.1021/acs.jctc.0c01306
   
   for ONIOM refer to:
   * C. Plett, A. Katbashev, S. Ehlert, S. Grimme, M. Bursch,
     Phys. Chem. Chem. Phys., 2023, 25, 17860-17868. DOI: 10.1039/D3CP02178E
   
   for DIPRO refer to:
   * J. Kohn, N. Gildemeister, S. Grimme, D. Fazzi, A. Hansen,
     J. Chem. Phys., 2023, just accepted.
   
   for PTB refer to:
   * S. Grimme, M. Mueller, A. Hansen, J. Chem. Phys., 2023, 158, 124111.
     DOI: 10.1063/5.0137838
   
   with help from (in alphabetical order)
   P. Atkinson, C. Bannwarth, F. Bohle, G. Brandenburg, E. Caldeweyher
   M. Checinski, S. Dohm, S. Ehlert, S. Ehrlich, I. Gerasimov, C. Hölzer
   A. Katbashev, J. Kohn, J. Koopman, C. Lavigne, S. Lehtola, F. März, M. Müller,
   F. Musil, H. Neugebauer, J. Pisarek, C. Plett, P. Pracht, F. Pultar,
   J. Seibert, P. Shushkov, S. Spicher, M. Stahn, M. Steiner, T. Strunk,
   J. Stückrath, T. Rose, and J. Unsleber
   
 * started run on 2025/04/11 at 16:05:57.255     
   ID    Z sym.   atoms
    1    6 C      1, 3, 5, 7
    2    8 O      2, 4, 6
    3    1 H      8-17

           -------------------------------------------------
          |                Calculation Setup                |
           -------------------------------------------------

          program call               : /srv/scratch/z5358697/.xtb/bin/xtb xtb_rrho.coord --gfn2 --ohess vtight --chrg 0 --enso --norestart -I rrho-xcontrol-inp --parallel 1 --alpb water
          hostname                   : k063
          coordinate file            : xtb_rrho.coord
          omp threads                :                     1


           -------------------------------------------------
          |                 G F N 2 - x T B                 |
           -------------------------------------------------

        Reference                      10.1021/acs.jctc.8b01176
      * Hamiltonian:
        H0-scaling (s, p, d)           1.850000    2.230000    2.230000
        zeta-weighting                 0.500000
      * Dispersion:
        s8                             2.700000
        a1                             0.520000
        a2                             5.000000
        s9                             5.000000
      * Repulsion:
        kExp                           1.500000    1.000000
        rExp                           1.000000
      * Coulomb:
        alpha                          2.000000
        third order                    shell-resolved
        anisotropic                    true
        a3                             3.000000
        a5                             4.000000
        cn-shift                       1.200000
        cn-exp                         4.000000
        max-rad                        5.000000

      * Solvation model:               ALPB
        Solvent                        water
        Parameter file                 internal GFN2-xTB/ALPB
        Dielectric constant                8.0200E+01
        Reference state                gsolv [1 M gas/solution]
        Free energy shift                  1.0808E-03 Eh       6.7819E-01 kcal/mol
        Temperature                        2.9815E+02 K
        Density                            1.0000E+00 kg/L
        Solvent mass                       1.8000E+01 g/mol
        Interaction kernel             P16
        Born radius scaling (c1)           1.4744E+00
        Born radii integrator          GBOBC
        Born offset                        0.0000E+00 a0       0.0000E+00 AA
        H-bond correction              true
        Ion screening                  false
        Surface tension                    1.0000E-05 Eh       1.5569E+01 dyn/cm
        Grid points                               974 per atom

          ...................................................
          :                      SETUP                      :
          :.................................................:
          :  # basis functions                  38          :
          :  # atomic orbitals                  38          :
          :  # shells                           24          :
          :  # electrons                        44          :
          :  max. iterations                   250          :
          :  Hamiltonian                  GFN2-xTB          :
          :  restarted?                      false          :
          :  GBSA solvation                   true          :
          :  PC potential                    false          :
          :  electronic temp.          300.0000000     K    :
          :  accuracy                    1.0000000          :
          :  -> integral cutoff          0.2500000E+02      :
          :  -> integral neglect         0.1000000E-07      :
          :  -> SCF convergence          0.1000000E-05 Eh   :
          :  -> wf. convergence          0.1000000E-03 e    :
          :  Broyden damping             0.4000000          :
          :  net charge                          0          :
          :  unpaired electrons                  0          :
          ...................................................

 iter      E             dE          RMSdq      gap      omega  full diag
   1    -26.0028521 -0.260029E+02  0.506E+00   11.24       0.0  T
   2    -26.0576207 -0.547686E-01  0.255E+00   10.76       1.0  T
   3    -26.0585147 -0.893973E-03  0.911E-01   10.84       1.0  T
   4    -26.0589279 -0.413159E-03  0.154E-01   10.87       1.0  T
   5    -26.0589794 -0.515238E-04  0.852E-02   10.89       1.0  T
   6    -26.0589836 -0.417816E-05  0.105E-02   10.90       2.3  T
   7    -26.0589839 -0.279372E-06  0.261E-03   10.90       9.3  T
   8    -26.0589839 -0.501269E-08  0.120E-03   10.90      20.3  T
   9    -26.0589839 -0.900631E-09  0.142E-04   10.90     171.0  T
  10    -26.0589839 -0.356835E-10  0.782E-05   10.90     310.3  T

   *** convergence criteria satisfied after 10 iterations ***

         #    Occupation            Energy/Eh            Energy/eV
      -------------------------------------------------------------
         1        2.0000           -0.7351689             -20.0050
       ...           ...                  ...                  ...
        16        2.0000           -0.4983819             -13.5617
        17        2.0000           -0.4798690             -13.0579
        18        2.0000           -0.4739887             -12.8979
        19        2.0000           -0.4611162             -12.5476
        20        2.0000           -0.4373925             -11.9021
        21        2.0000           -0.4349291             -11.8350
        22        2.0000           -0.4307937             -11.7225 (HOMO)
        23                         -0.0303887              -0.8269 (LUMO)
        24                          0.0082598               0.2248
        25                          0.0560314               1.5247
        26                          0.0634643               1.7270
        27                          0.0813510               2.2137
       ...                                ...                  ...
        38                          0.2773634               7.5474
      -------------------------------------------------------------
                  HL-Gap            0.4004051 Eh           10.8956 eV
             Fermi-level           -0.2305912 Eh           -6.2747 eV

 SCC (total)                   0 d,  0 h,  0 min,  0.014 sec
 SCC setup                      ...        0 min,  0.002 sec ( 13.372%)
 Dispersion                     ...        0 min,  0.000 sec (  0.962%)
 classical contributions        ...        0 min,  0.000 sec (  0.223%)
 integral evaluation            ...        0 min,  0.003 sec ( 17.671%)
 iterations                     ...        0 min,  0.006 sec ( 39.546%)
 molecular gradient             ...        0 min,  0.004 sec ( 27.096%)
 printout                       ...        0 min,  0.000 sec (  0.990%)

         :::::::::::::::::::::::::::::::::::::::::::::::::::::
         ::                     SUMMARY                     ::
         :::::::::::::::::::::::::::::::::::::::::::::::::::::
         :: total energy             -25.857170435997 Eh    ::
         :: total w/o Gsasa/hb       -25.857584203665 Eh    ::
         :: gradient norm              0.036824446679 Eh/a0 ::
         :: HOMO-LUMO gap             10.895576726315 eV    ::
         ::.................................................::
         :: SCC energy               -26.058956391931 Eh    ::
         :: -> isotropic ES            0.075173476362 Eh    ::
         :: -> anisotropic ES         -0.004543051366 Eh    ::
         :: -> anisotropic XC          0.000913762094 Eh    ::
         :: -> dispersion             -0.009534629150 Eh    ::
         :: -> Gsolv                  -0.010257888799 Eh    ::
         ::    -> Gelec               -0.010671656467 Eh    ::
         ::    -> Gsasa                0.001530231591 Eh    ::
         ::    -> Ghb                 -0.002197223622 Eh    ::
         ::    -> Gshift               0.001080759698 Eh    ::
         :: repulsion energy           0.201785955934 Eh    ::
         :: add. restraining           0.000000000000 Eh    ::
         :: total charge               0.000000000000 e     ::
         :::::::::::::::::::::::::::::::::::::::::::::::::::::

      ----------------------------------------------------------- 
     |                   =====================                   |
     |                        A N C O P T                        |
     |                   =====================                   |
     |               Approximate Normal Coordinate               |
     |                Rational Function Optimizer                |
      ----------------------------------------------------------- 
      ----------------------------------------------------------- 
     |                   =====================                   |
     |                        A N C O P T                        |
     |                   =====================                   |
     |               Approximate Normal Coordinate               |
     |                Rational Function Optimizer                |
      ----------------------------------------------------------- 

          ...................................................
          :                      SETUP                      :
          :.................................................:
          :   optimization level         verytight          :
          :   max. optcycles                   340          :
          :   ANC micro-cycles                  20          :
          :   degrees of freedom                45          :
          :.................................................:
          :   RF solver                   davidson          :
          :   write xtbopt.log                true          :
          :   linear?                        false          :
          :   energy convergence         0.1000000E-06 Eh   :
          :   grad. convergence          0.2000000E-03 Eh/α :
          :   maxmium RF displ.          1.0000000          :
          :   Hlow (freq-cutoff)         0.1000000E-01      :
          :   Hmax (freq-cutoff)         5.0000000          :
          :   S6 in model hess.         20.0000000          :
          ...................................................

generating ANC from exact Hessian ...
Using Lindh-Hessian (1995)
 Shifting diagonal of input Hessian by   7.068866307668599E-003
 Lowest  eigenvalues of input Hessian
    0.000000    0.000000    0.000000    0.000000    0.000000    0.000000
    0.010000    0.010157    0.011735    0.012447    0.012760    0.016313
    0.027095    0.033607    0.034719    0.041433    0.064177    0.070850
 Highest eigenvalues
    1.170018    1.208177    1.342103    1.422512    1.580230    1.675744
 

........................................................................
.............................. CYCLE    1 ..............................
........................................................................

 iter      E             dE          RMSdq      gap      omega  full diag
   1    -26.0589839 -0.260590E+02  0.208E-05   10.90       0.0  T
   2    -26.0589839 -0.706990E-12  0.126E-05   10.90    1919.4  T
   3    -26.0589839 -0.220268E-12  0.476E-06   10.90    5095.4  T
     SCC iter.                  ...        0 min,  0.001 sec
     gradient                   ...        0 min,  0.004 sec
 * total energy  :   -25.8571704 Eh     change       -0.9034551E-11 Eh
   gradient norm :     0.0368239 Eh/α   predicted     0.0000000E+00 (-100.00%)
   displ. norm   :     0.1416838 α      lambda       -0.2562571E-02
   maximum displ.:     0.0894445 α      in ANC's #2, #15, #10, ...

........................................................................
.............................. CYCLE    2 ..............................
........................................................................

 iter      E             dE          RMSdq      gap      omega  full diag
   1    -26.0674053 -0.260674E+02  0.143E-01   11.00       0.0  T
   2    -26.0674178 -0.125573E-04  0.847E-02   10.99       1.0  T
   3    -26.0674185 -0.667736E-06  0.171E-02   11.00       1.4  T
   4    -26.0674195 -0.996191E-06  0.433E-03   11.00       5.6  T
   5    -26.0674195 -0.333743E-07  0.158E-03   11.00      15.4  T
   6    -26.0674195 -0.190358E-08  0.692E-04   11.00      35.1  T
   7    -26.0674195 -0.631232E-09  0.103E-04   11.00     235.1  T
     SCC iter.                  ...        0 min,  0.002 sec
     gradient                   ...        0 min,  0.004 sec
 * total energy  :   -25.8588668 Eh     change       -0.1696324E-02 Eh
   gradient norm :     0.0141554 Eh/α   predicted    -0.1307005E-02 ( -22.95%)
   displ. norm   :     0.1630559 α      lambda       -0.6345100E-03
   maximum displ.:     0.1430134 α      in ANC's #2, #4, #12, ...

........................................................................
.............................. CYCLE    3 ..............................
........................................................................

 iter      E             dE          RMSdq      gap      omega  full diag
   1    -26.0709198 -0.260709E+02  0.923E-02   11.09       0.0  T
   2    -26.0709273 -0.755391E-05  0.547E-02   11.09       1.0  T
   3    -26.0709276 -0.276788E-06  0.132E-02   11.09       1.8  T
   4    -26.0709281 -0.554119E-06  0.335E-03   11.09       7.2  T
   5    -26.0709282 -0.186121E-07  0.111E-03   11.09      21.8  T
   6    -26.0709282 -0.163626E-08  0.249E-04   11.09      97.4  T
   7    -26.0709282 -0.123972E-09  0.795E-05   11.09     305.1  T
     SCC iter.                  ...        0 min,  0.002 sec
     gradient                   ...        0 min,  0.004 sec
 * total energy  :   -25.8592577 Eh     change       -0.3909001E-03 Eh
   gradient norm :     0.0029451 Eh/α   predicted    -0.3256901E-03 ( -16.68%)
   displ. norm   :     0.1315638 α      lambda       -0.1490623E-03
   maximum displ.:     0.1223506 α      in ANC's #2, #4, #6, ...

........................................................................
.............................. CYCLE    4 ..............................
........................................................................

 iter      E             dE          RMSdq      gap      omega  full diag
   1    -26.0709965 -0.260710E+02  0.503E-02   11.11       0.0  T
   2    -26.0709971 -0.674994E-06  0.301E-02   11.11       1.0  T
   3    -26.0709972 -0.146587E-07  0.339E-03   11.11       7.2  T
   4    -26.0709972 -0.695385E-07  0.107E-03   11.11      22.7  T
   5    -26.0709972 -0.203382E-08  0.396E-04   11.11      61.3  T
   6    -26.0709972 -0.200878E-09  0.818E-05   11.11     296.6  T
     SCC iter.                  ...        0 min,  0.002 sec
     gradient                   ...        0 min,  0.004 sec
 * total energy  :   -25.8593817 Eh     change       -0.1240190E-03 Eh
   gradient norm :     0.0030171 Eh/α   predicted    -0.7582315E-04 ( -38.86%)
   displ. norm   :     0.1238404 α      lambda       -0.1191416E-03
   maximum displ.:     0.1073892 α      in ANC's #2, #4, #6, ...

........................................................................
.............................. CYCLE    5 ..............................
........................................................................

 iter      E             dE          RMSdq      gap      omega  full diag
   1    -26.0704287 -0.260704E+02  0.429E-02   11.12       0.0  T
   2    -26.0704288 -0.110595E-06  0.257E-02   11.12       1.0  T
   3    -26.0704288 -0.225698E-07  0.121E-03   11.12      20.1  T
   4    -26.0704288 -0.376310E-08  0.349E-04   11.12      69.5  T
   5    -26.0704288 -0.208580E-10  0.150E-04   11.12     161.5  T
     SCC iter.                  ...        0 min,  0.002 sec
     gradient                   ...        0 min,  0.004 sec
 * total energy  :   -25.8594867 Eh     change       -0.1049840E-03 Eh
   gradient norm :     0.0035141 Eh/α   predicted    -0.6048303E-04 ( -42.39%)
   displ. norm   :     0.1561575 α      lambda       -0.1269649E-03
   maximum displ.:     0.1274117 α      in ANC's #2, #4, #6, ...

........................................................................
.............................. CYCLE    6 ..............................
........................................................................

 iter      E             dE          RMSdq      gap      omega  full diag
   1    -26.0698461 -0.260698E+02  0.509E-02   11.12       0.0  T
   2    -26.0698463 -0.217137E-06  0.305E-02   11.12       1.0  T
   3    -26.0698463 -0.233928E-07  0.183E-03   11.12      13.2  T
   4    -26.0698464 -0.186915E-07  0.767E-04   11.12      31.6  T
   5    -26.0698464 -0.693589E-09  0.233E-04   11.12     103.9  T
     SCC iter.                  ...        0 min,  0.002 sec
     gradient                   ...        0 min,  0.004 sec
 * total energy  :   -25.8595953 Eh     change       -0.1086800E-03 Eh
   gradient norm :     0.0035035 Eh/α   predicted    -0.6503172E-04 ( -40.16%)
   displ. norm   :     0.1967942 α      lambda       -0.1277490E-03
   maximum displ.:     0.1577275 α      in ANC's #2, #4, #6, ...

........................................................................
.............................. CYCLE    7 ..............................
........................................................................

 iter      E             dE          RMSdq      gap      omega  full diag
   1    -26.0694078 -0.260694E+02  0.619E-02   11.12       0.0  T
   2    -26.0694081 -0.282585E-06  0.371E-02   11.12       1.0  T
   3    -26.0694081 -0.283387E-07  0.212E-03   11.12      11.4  T
   4    -26.0694081 -0.290642E-07  0.888E-04   11.12      27.3  T
   5    -26.0694081 -0.558948E-09  0.203E-04   11.12     119.7  T
     SCC iter.                  ...        0 min,  0.002 sec
     gradient                   ...        0 min,  0.004 sec
 * total energy  :   -25.8596973 Eh     change       -0.1019627E-03 Eh
   gradient norm :     0.0036159 Eh/α   predicted    -0.6634767E-04 ( -34.93%)
   displ. norm   :     0.2214977 α      lambda       -0.1100044E-03
   maximum displ.:     0.1822610 α      in ANC's #2, #4, #7, ...

........................................................................
.............................. CYCLE    8 ..............................
........................................................................

 iter      E             dE          RMSdq      gap      omega  full diag
   1    -26.0693734 -0.260694E+02  0.705E-02   11.12       0.0  T
   2    -26.0693737 -0.250824E-06  0.424E-02   11.12       1.0  T
   3    -26.0693737 -0.415471E-07  0.196E-03   11.12      12.4  T
   4    -26.0693738 -0.224279E-07  0.906E-04   11.12      26.8  T
   5    -26.0693738 -0.443745E-09  0.169E-04   11.12     143.8  T
     SCC iter.                  ...        0 min,  0.002 sec
     gradient                   ...        0 min,  0.004 sec
 * total energy  :   -25.8597753 Eh     change       -0.7803430E-04 Eh
   gradient norm :     0.0036520 Eh/α   predicted    -0.5770057E-04 ( -26.06%)
   displ. norm   :     0.1609350 α      lambda       -0.6434794E-04
   maximum displ.:     0.1386854 α      in ANC's #2, #4, #32, ...

........................................................................
.............................. CYCLE    9 ..............................
........................................................................

 iter      E             dE          RMSdq      gap      omega  full diag
   1    -26.0703144 -0.260703E+02  0.560E-02   11.11       0.0  T
   2    -26.0703146 -0.175900E-06  0.336E-02   11.11       1.0  T
   3    -26.0703146 -0.348011E-07  0.140E-03   11.11      17.3  T
   4    -26.0703146 -0.574314E-08  0.678E-04   11.11      35.8  T
   5    -26.0703146 -0.432156E-09  0.245E-04   11.11      98.8  T
     SCC iter.                  ...        0 min,  0.002 sec
     gradient                   ...        0 min,  0.004 sec
 * total energy  :   -25.8598189 Eh     change       -0.4357046E-04 Eh
   gradient norm :     0.0021503 Eh/α   predicted    -0.3300904E-04 ( -24.24%)
   displ. norm   :     0.0994072 α      lambda       -0.2251391E-04
   maximum displ.:     0.0838482 α      in ANC's #2, #4, #32, ...

........................................................................
.............................. CYCLE   10 ..............................
........................................................................

 iter      E             dE          RMSdq      gap      omega  full diag
   1    -26.0707671 -0.260708E+02  0.377E-02   11.11       0.0  T
   2    -26.0707671 -0.597704E-07  0.227E-02   11.11       1.1  T
   3    -26.0707671 -0.199281E-07  0.906E-04   11.11      26.8  T
   4    -26.0707671 -0.155614E-08  0.456E-04   11.11      53.2  T
     SCC iter.                  ...        0 min,  0.001 sec
     gradient                   ...        0 min,  0.004 sec
 * total energy  :   -25.8598338 Eh     change       -0.1487853E-04 Eh
   gradient norm :     0.0011308 Eh/α   predicted    -0.1137025E-04 ( -23.58%)
   displ. norm   :     0.0549819 α      lambda       -0.5530075E-05
   maximum displ.:     0.0453188 α      in ANC's #2, #4, #6, ...

........................................................................
.............................. CYCLE   11 ..............................
........................................................................

 iter      E             dE          RMSdq      gap      omega  full diag
   1    -26.0714029 -0.260714E+02  0.252E-02   11.11       0.0  T
   2    -26.0714030 -0.660588E-07  0.151E-02   11.11       1.6  T
   3    -26.0714030 -0.119160E-07  0.912E-04   11.11      26.6  T
   4    -26.0714030 -0.264723E-08  0.432E-04   11.11      56.1  T
     SCC iter.                  ...        0 min,  0.001 sec
     gradient                   ...        0 min,  0.004 sec
 * total energy  :   -25.8598364 Eh     change       -0.2653637E-05 Eh
   gradient norm :     0.0008150 Eh/α   predicted    -0.2767083E-05 (   4.28%)
   displ. norm   :     0.0295188 α      lambda       -0.1745787E-05
   maximum displ.:     0.0214158 α      in ANC's #2, #4, #12, ...

........................................................................
.............................. CYCLE   12 ..............................
........................................................................

 iter      E             dE          RMSdq      gap      omega  full diag
   1    -26.0707484 -0.260707E+02  0.111E-02   11.11       0.0  T
   2    -26.0707485 -0.223501E-07  0.663E-03   11.11       3.7  T
   3    -26.0707485 -0.384741E-08  0.512E-04   11.11      47.4  T
   4    -26.0707485 -0.858442E-10  0.236E-04   11.11     102.8  T
     SCC iter.                  ...        0 min,  0.001 sec
     gradient                   ...        0 min,  0.004 sec
 * total energy  :   -25.8598361 Eh     change        0.3803542E-06 Eh
   gradient norm :     0.0006478 Eh/α   predicted    -0.8716663E-06 (-329.17%)
   displ. norm   :     0.0376931 α      lambda       -0.1771750E-05
   maximum displ.:     0.0304924 α      in ANC's #2, #4, #32, ...

........................................................................
.............................. CYCLE   13 ..............................
........................................................................

 iter      E             dE          RMSdq      gap      omega  full diag
   1    -26.0710096 -0.260710E+02  0.136E-02   11.11       0.0  T
   2    -26.0710096 -0.983040E-08  0.819E-03   11.12       3.0  T
   3    -26.0710096 -0.323024E-08  0.365E-04   11.12      66.5  T
   4    -26.0710096 -0.159119E-09  0.201E-04   11.12     120.7  T
     SCC iter.                  ...        0 min,  0.001 sec
     gradient                   ...        0 min,  0.003 sec
 * total energy  :   -25.8598373 Eh     change       -0.1213985E-05 Eh
   gradient norm :     0.0001004 Eh/α   predicted    -0.8861274E-06 ( -27.01%)
   displ. norm   :     0.0048719 α      lambda       -0.4482611E-07
   maximum displ.:     0.0039438 α      in ANC's #2, #4, #6, ...

........................................................................
.............................. CYCLE   14 ..............................
........................................................................

 iter      E             dE          RMSdq      gap      omega  full diag
   1    -26.0710443 -0.260710E+02  0.218E-03   11.12       0.0  T
   2    -26.0710443 -0.408818E-09  0.131E-03   11.12      18.5  T
   3    -26.0710443 -0.959410E-10  0.746E-05   11.12     325.1  T
   4    -26.0710443 -0.163816E-10  0.363E-05   11.12     668.1  T
     SCC iter.                  ...        0 min,  0.001 sec
     gradient                   ...        0 min,  0.003 sec
 * total energy  :   -25.8598373 Eh     change       -0.3492572E-07 Eh
   gradient norm :     0.0000673 Eh/α   predicted    -0.2311130E-07 ( -33.83%)
   displ. norm   :     0.0015168 α      lambda       -0.1654474E-07
   maximum displ.:     0.0008723 α      in ANC's #3, #1, #2, ...

   *** GEOMETRY OPTIMIZATION CONVERGED AFTER 14 ITERATIONS ***

------------------------------------------------------------------------
 total energy gain   :        -0.0026669 Eh       -1.6735 kcal/mol
 total RMSD          :         0.3296777 a0        0.1745 Å
 total power (kW/mol):        -0.5001342 (step)  -57.2344 (real)
------------------------------------------------------------------------

 ANCopt (total)                0 d,  0 h,  0 min,  0.122 sec
 optimizer setup                ...        0 min,  0.000 sec (  0.230%)
 model hessian                  ...        0 min,  0.004 sec (  3.451%)
 ANC generation                 ...        0 min,  0.000 sec (  0.308%)
 coordinate transformation      ...        0 min,  0.000 sec (  0.057%)
 single point calculation       ...        0 min,  0.109 sec ( 89.239%)
 optimization log               ...        0 min,  0.006 sec (  4.560%)
 hessian update                 ...        0 min,  0.000 sec (  0.065%)
 rational function              ...        0 min,  0.002 sec (  1.559%)

================
 final structure:
================
$coord
        1.51049518046061       -4.34118887454679       -0.15991178375228      C
        1.32111380511974       -1.95728852681174        1.08255957725166      O
        0.61216709651708        0.00281396532124       -0.49515695954914      C
        1.11685516768246        2.18876318700816        0.84681006953196      O
        1.08257131214265        4.42346060702634       -0.65890206049530      C
       -1.89630614890374       -0.16525325028736       -1.28100972227166      O
       -3.70868132297193       -0.14201593766588        0.72621245652864      C
        3.01473109654801       -4.28794385438573       -1.57496537440748      H
       -0.27590171148973       -4.83623471543116       -1.06776707581098      H
        1.96452891125782       -5.68504703552127        1.32238938038328      H
        1.69635622018068       -0.04598923587460       -2.29370538736912      H
        2.59457763658664        4.35664509400060       -2.06489657344009      H
        1.39372699765448        5.96448562615468        0.65930863847688      H
       -0.73706808385287        4.63631675869358       -1.60950668917066      H
       -3.55986141192248        1.60853474509511        1.80633513068800      H
       -3.40541095368712       -1.74727523618126        1.98499501918890      H
       -5.53351770097477       -0.27550193875752       -0.20130102329255      H
$end
 
 Bond Distances (Angstroems)
 ---------------------------
C1-O2=1.4261         C1-H8=1.0932         C1-H9=1.0923         C1-H10=1.0857        O2-C1=1.4261         O2-C3=1.3834         
C3-O2=1.3834         C3-O4=1.3834         C3-O6=1.3939         C3-H11=1.1116        O4-C3=1.3834         O4-C5=1.4261         
C5-O4=1.4261         C5-H12=1.0932        C5-H13=1.0857        C5-H14=1.0922        O6-C3=1.3939         O6-C7=1.4311         
C7-O6=1.4311         C7-H15=1.0913        C7-H16=1.0914        C7-H17=1.0855        H8-C1=1.0932         H9-C1=1.0923         
H10-C1=1.0857        H11-C3=1.1116        H12-C5=1.0932        H13-C5=1.0857        H14-C5=1.0922        H15-C7=1.0913        
H16-C7=1.0914        H17-C7=1.0855        
 C  H  Rav=1.0922 sigma=0.0071  Rmin=1.0855  Rmax=1.1116    10
 O  C  Rav=1.4073 sigma=0.0208  Rmin=1.3834  Rmax=1.4311     6
 
 selected bond angles (degree)
 --------------------
H8-C1-O2=110.13                H9-C1-O2=110.74                H9-C1-H8=109.58                H10-C1-O2=105.18               
H10-C1-H8=110.53               H10-C1-H9=110.62               C3-O2-C1=113.83                O4-C3-O2=105.36                
O6-C3-O2=112.98                O6-C3-O4=112.98                H11-C3-O2=111.06               H11-C3-O4=111.06               
H11-C3-O6=103.57               C5-O4-C3=113.84                H12-C5-O4=110.13               H13-C5-O4=105.18               
H13-C5-H12=110.52              H14-C5-O4=110.74               H14-C5-H12=109.58              H14-C5-H13=110.62              
C7-O6-C3=114.60                H15-C7-O6=110.34               H16-C7-O6=110.35               H16-C7-H15=109.29              
H17-C7-O6=105.07               H17-C7-H15=110.87              H17-C7-H16=110.86              
 
 selected dihedral angles (degree)
 ---------------------------------
C3-O2-C1-H8= 64.16            C3-O2-C1-H9=302.80            C3-O2-C1-H10=183.27           O4-C3-O2-C1=194.02            
O6-C3-O2-C1= 70.23            H11-C3-O2-C1=314.35           C5-O4-C3-O2=165.89            C5-O4-C3-O6=289.68            
C5-O4-C3-H11= 45.55           H12-C5-O4-C3=295.83           H13-C5-O4-C3=176.73           H14-C5-O4-C3= 57.19           
C7-O6-C3-O2= 59.70            C7-O6-C3-O4=300.21            C7-O6-C3-H11=179.96           H15-C7-O6-C3= 60.19           
H16-C7-O6-C3=299.30           H17-C7-O6-C3=179.75           
           -------------------------------------------------
          |                Final Singlepoint                |
           -------------------------------------------------

          ...................................................
          :                      SETUP                      :
          :.................................................:
          :  # basis functions                  38          :
          :  # atomic orbitals                  38          :
          :  # shells                           24          :
          :  # electrons                        44          :
          :  max. iterations                   250          :
          :  Hamiltonian                  GFN2-xTB          :
          :  restarted?                      false          :
          :  GBSA solvation                   true          :
          :  PC potential                    false          :
          :  electronic temp.          300.0000000     K    :
          :  accuracy                    1.0000000          :
          :  -> integral cutoff          0.2500000E+02      :
          :  -> integral neglect         0.1000000E-07      :
          :  -> SCF convergence          0.1000000E-05 Eh   :
          :  -> wf. convergence          0.1000000E-03 e    :
          :  Broyden damping             0.4000000          :
          :  net charge                          0          :
          :  unpaired electrons                  0          :
          ...................................................

 iter      E             dE          RMSdq      gap      omega  full diag
   1    -26.0710443 -0.260710E+02  0.180E-05   11.12       0.0  T
   2    -26.0710443 -0.341061E-12  0.119E-05   11.12    2041.1  T
   3    -26.0710443 -0.191847E-12  0.273E-06   11.12    8869.0  T

   *** convergence criteria satisfied after 3 iterations ***

         #    Occupation            Energy/Eh            Energy/eV
      -------------------------------------------------------------
         1        2.0000           -0.7389151             -20.1069
       ...           ...                  ...                  ...
        16        2.0000           -0.4965707             -13.5124
        17        2.0000           -0.4793159             -13.0429
        18        2.0000           -0.4748120             -12.9203
        19        2.0000           -0.4596843             -12.5086
        20        2.0000           -0.4375805             -11.9072
        21        2.0000           -0.4319070             -11.7528
        22        2.0000           -0.4307769             -11.7220 (HOMO)
        23                         -0.0223065              -0.6070 (LUMO)
        24                          0.0229027               0.6232
        25                          0.0698459               1.9006
        26                          0.0964576               2.6247
        27                          0.1045933               2.8461
       ...                                ...                  ...
        38                          0.2977365               8.1018
      -------------------------------------------------------------
                  HL-Gap            0.4084704 Eh           11.1150 eV
             Fermi-level           -0.2265417 Eh           -6.1645 eV

 SCC (total)                   0 d,  0 h,  0 min,  0.008 sec
 SCC setup                      ...        0 min,  0.001 sec ( 12.614%)
 Dispersion                     ...        0 min,  0.000 sec (  0.610%)
 classical contributions        ...        0 min,  0.000 sec (  0.195%)
 integral evaluation            ...        0 min,  0.001 sec ( 15.498%)
 iterations                     ...        0 min,  0.001 sec ( 14.267%)
 molecular gradient             ...        0 min,  0.005 sec ( 54.963%)
 printout                       ...        0 min,  0.000 sec (  1.667%)

         :::::::::::::::::::::::::::::::::::::::::::::::::::::
         ::                     SUMMARY                     ::
         :::::::::::::::::::::::::::::::::::::::::::::::::::::
         :: total energy             -25.859837310845 Eh    ::
         :: total w/o Gsasa/hb       -25.859988979980 Eh    ::
         :: gradient norm              0.000067505680 Eh/a0 ::
         :: HOMO-LUMO gap             11.115045442739 eV    ::
         ::.................................................::
         :: SCC energy               -26.071014963067 Eh    ::
         :: -> isotropic ES            0.075214052413 Eh    ::
         :: -> anisotropic ES         -0.007078106123 Eh    ::
         :: -> anisotropic XC         -0.000087093892 Eh    ::
         :: -> dispersion             -0.009489707566 Eh    ::
         :: -> Gsolv                  -0.010240533118 Eh    ::
         ::    -> Gelec               -0.010392202254 Eh    ::
         ::    -> Gsasa                0.001308561256 Eh    ::
         ::    -> Ghb                 -0.002237651818 Eh    ::
         ::    -> Gshift               0.001080759698 Eh    ::
         :: repulsion energy           0.211177652223 Eh    ::
         :: add. restraining           0.000000000000 Eh    ::
         :: total charge               0.000000000000 e     ::
         :::::::::::::::::::::::::::::::::::::::::::::::::::::

           ------------------------------------------------- 
          |                Numerical Hessian                |
           ------------------------------------------------- 
step length          :   0.00500
SCC accuracy         :   0.30000
Hessian scale factor :   1.00000
frozen atoms in %    :   0.00000    0
RMS gradient         :   0.00007
estimated CPU  time      0.01 min
estimated wall time      0.01 min

writing file <hessian>.

 projected vibrational frequencies (cm⁻¹)
eigval :       -0.00    -0.00    -0.00     0.00     0.00     0.00
eigval :       76.59    88.42    99.79   140.10   155.84   186.31
eigval :      215.36   279.78   349.88   443.41   550.38   683.21
eigval :      902.66   980.87   992.57  1025.12  1067.80  1077.61
eigval :     1119.46  1119.87  1125.01  1136.84  1142.64  1189.34
eigval :     1315.66  1324.63  1374.36  1377.90  1378.32  1435.92
eigval :     1440.01  1440.73  1460.75  1463.29  1473.77  2763.24
eigval :     2938.10  2938.89  2957.20  2958.22  2964.36  2975.01
eigval :     3042.45  3042.70  3043.37
           -------------------------------------------------
          |                Property Printout                |
           -------------------------------------------------

    * Orbital Energies and Occupations

         #    Occupation            Energy/Eh            Energy/eV
      -------------------------------------------------------------
         1        2.0000           -0.7389151             -20.1069
       ...           ...                  ...                  ...
        10        2.0000           -0.5736040             -15.6086
        11        2.0000           -0.5477107             -14.9040
        12        2.0000           -0.5404137             -14.7054
        13        2.0000           -0.5295461             -14.4097
        14        2.0000           -0.5261690             -14.3178
        15        2.0000           -0.5233594             -14.2413
        16        2.0000           -0.4965707             -13.5124
        17        2.0000           -0.4793159             -13.0428
        18        2.0000           -0.4748120             -12.9203
        19        2.0000           -0.4596843             -12.5086
        20        2.0000           -0.4375805             -11.9072
        21        2.0000           -0.4319070             -11.7528
        22        2.0000           -0.4307769             -11.7220 (HOMO)
        23                         -0.0223065              -0.6070 (LUMO)
        24                          0.0229027               0.6232
        25                          0.0698459               1.9006
        26                          0.0964575               2.6247
        27                          0.1045933               2.8461
        28                          0.1105530               3.0083
        29                          0.1376000               3.7443
        30                          0.1453330               3.9547
        31                          0.1528386               4.1589
        32                          0.1767199               4.8088
        33                          0.1967079               5.3527
       ...                                ...                  ...
        38                          0.2977365               8.1018
      -------------------------------------------------------------
                  HL-Gap            0.4084704 Eh           11.1150 eV
             Fermi-level           -0.2265417 Eh           -6.1645 eV

     #   Z          covCN         q      C6AA      α(0)
     1   6 C        3.651     0.019    20.563     6.513
     2   8 O        1.701    -0.362    20.102     6.053
     3   6 C        3.558     0.396    15.595     5.761
     4   8 O        1.701    -0.362    20.103     6.053
     5   6 C        3.651     0.019    20.563     6.513
     6   8 O        1.699    -0.383    20.508     6.114
     7   6 C        3.644     0.028    20.448     6.500
     8   1 H        0.924     0.058     2.224     2.332
     9   1 H        0.924     0.063     2.170     2.303
    10   1 H        0.925     0.101     1.780     2.086
    11   1 H        0.921    -0.000     3.063     2.737
    12   1 H        0.924     0.058     2.223     2.332
    13   1 H        0.925     0.101     1.780     2.086
    14   1 H        0.924     0.063     2.169     2.303
    15   1 H        0.924     0.057     2.237     2.339
    16   1 H        0.924     0.057     2.238     2.339
    17   1 H        0.925     0.088     1.894     2.152

 Mol. C6AA /au·bohr⁶  :       2081.352972
 Mol. C8AA /au·bohr⁸  :      42276.547338
 Mol. α(0) /au        :         66.518498


Wiberg/Mayer (AO) data.
largest (>0.10) Wiberg bond orders for each atom

 ---------------------------------------------------------------------------
     #   Z sym  total        # sym  WBO       # sym  WBO       # sym  WBO
 ---------------------------------------------------------------------------
     1   6 C    3.910 --     9 H    0.980     8 H    0.978    10 H    0.976
                             2 O    0.953
     2   8 O    2.066 --     3 C    0.986     1 C    0.953
     3   6 C    3.926 --     2 O    0.986     4 O    0.986     6 O    0.971
                            11 H    0.931
     4   8 O    2.066 --     3 C    0.986     5 C    0.953
     5   6 C    3.910 --    14 H    0.980    12 H    0.978    13 H    0.976
                             4 O    0.953
     6   8 O    2.058 --     3 C    0.971     7 C    0.953
     7   6 C    3.920 --    16 H    0.981    15 H    0.981    17 H    0.978
                             6 O    0.953
     8   1 H    0.997 --     1 C    0.978
     9   1 H    0.996 --     1 C    0.980
    10   1 H    0.989 --     1 C    0.976
    11   1 H    1.000 --     3 C    0.931
    12   1 H    0.997 --     5 C    0.978
    13   1 H    0.989 --     5 C    0.976
    14   1 H    0.996 --     5 C    0.980
    15   1 H    0.997 --     7 C    0.981
    16   1 H    0.997 --     7 C    0.981
    17   1 H    0.992 --     7 C    0.978
 ---------------------------------------------------------------------------

Topologies differ in total number of bonds
Writing topology from bond orders to xtbtopo.mol

molecular dipole:
                 x           y           z       tot (Debye)
 q only:       -0.251      -0.034      -0.380
   full:       -0.210      -0.042      -0.546       1.490
molecular quadrupole (traceless):
                xx          xy          yy          xz          yz          zz
 q only:       -1.140      -0.678       7.826      -4.186      -1.039      -6.685
  q+dip:        0.006      -0.553       5.618      -4.875      -0.885      -5.624
   full:       -0.536      -0.632       6.475      -5.065      -0.962      -5.939

           -------------------------------------------------
          |                Geometry Summary                 |
           -------------------------------------------------

      molecular mass/u    :      106.1205659
   center of mass at/Å    :       -0.0012514       0.0003054       0.0012502
  moments of inertia/u·Å² :        0.1374732E+03   0.2392577E+03   0.3238837E+03
rotational constants/cm⁻¹ :        0.1226248E+00   0.7045805E-01   0.5204841E-01

 * 16 selected distances

     #   Z          #   Z                                           value/Å
     1   6 C        2   8 O                                       1.4260891
     2   8 O        3   6 C                                       1.3833504
     3   6 C        4   8 O                                       1.3833669
     4   8 O        5   6 C                                       1.4260534
     3   6 C        6   8 O                                       1.3938824
     6   8 O        7   6 C                                       1.4311466 (max)
     1   6 C        8   1 H                                       1.0932266
     1   6 C        9   1 H                                       1.0922718
     1   6 C       10   1 H                                       1.0856930
     3   6 C       11   1 H                                       1.1116028
     5   6 C       12   1 H                                       1.0931639
     5   6 C       13   1 H                                       1.0856849
     5   6 C       14   1 H                                       1.0922153
     7   6 C       15   1 H                                       1.0913426
     7   6 C       16   1 H                                       1.0913585
     7   6 C       17   1 H                                       1.0855395 (min)

 * 2 distinct bonds (by element types)

   Z      Z             #   av. dist./Å        max./Å        min./Å
   1 H    6 C          10     1.0922099     1.1116028     1.0855395
   6 C    8 O           6     1.4073148     1.4311466     1.3833504

           -------------------------------------------------
          |               Frequency Printout                |
           -------------------------------------------------
 projected vibrational frequencies (cm⁻¹)
eigval :       -0.00    -0.00    -0.00     0.00     0.00     0.00
eigval :       76.59    88.42    99.79   140.10   155.84   186.31
eigval :      215.36   279.78   349.88   443.41   550.38   683.21
eigval :      902.66   980.87   992.57  1025.12  1067.80  1077.61
eigval :     1119.46  1119.87  1125.01  1136.84  1142.64  1189.34
eigval :     1315.66  1324.63  1374.36  1377.90  1378.32  1435.92
eigval :     1440.01  1440.73  1460.75  1463.29  1473.77  2763.24
eigval :     2938.10  2938.89  2957.20  2958.22  2964.36  2975.01
eigval :     3042.45  3042.70  3043.37
 reduced masses (amu)
   1: 11.81   2: 11.56   3: 12.21   4: 12.59   5: 11.28   6: 10.97   7:  1.88   8:  9.40
   9:  8.96  10:  5.13  11:  1.96  12:  8.44  13:  9.39  14: 10.97  15: 12.29  16: 12.09
  17: 13.06  18: 12.67  19: 11.19  20: 11.75  21:  9.08  22: 12.65  23: 12.53  24: 13.95
  25:  3.64  26:  3.67  27:  4.30  28:  5.37  29:  5.46  30:  8.83  31:  2.66  32:  2.87
  33:  2.42  34:  2.50  35:  2.46  36:  1.53  37:  1.54  38:  1.54  39:  1.60  40:  1.59
  41:  1.59  42:  1.63  43:  1.84  44:  1.85  45:  1.52  46:  1.51  47:  1.96  48:  1.40
  49:  1.76  50:  1.76  51:  1.77
 IR intensities (km·mol⁻¹)
   1:  0.00   2:  0.07   3:  0.14   4:  0.02   5:  0.25   6:  0.60   7:  0.20   8: 13.46
   9:  0.82  10:  4.95  11:  0.65  12:  9.81  13:  5.99  14: 19.28  15: 15.53  16:  3.28
  17:  5.13  18:  6.86  19: 75.65  20:  3.25  21:217.94  22:277.30  23:505.82  24:  1.33
  25:  0.33  26:  8.02  27: 26.80  28: 12.38  29:  5.04  30:122.62  31: 43.14  32: 54.48
  33:  1.21  34:  6.07  35:  1.66  36:  6.16  37:  0.04  38: 23.83  39:  7.63  40:  4.61
  41:  1.92  42:152.78  43: 30.70  44: 55.59  45: 19.86  46: 39.58  47: 35.59  48: 32.85
  49:  5.55  50:  2.79  51: 10.26
 Raman intensities (Ä⁴*amu⁻¹)
   1:  0.00   2:  0.00   3:  0.00   4:  0.00   5:  0.00   6:  0.00   7:  0.00   8:  0.00
   9:  0.00  10:  0.00  11:  0.00  12:  0.00  13:  0.00  14:  0.00  15:  0.00  16:  0.00
  17:  0.00  18:  0.00  19:  0.00  20:  0.00  21:  0.00  22:  0.00  23:  0.00  24:  0.00
  25:  0.00  26:  0.00  27:  0.00  28:  0.00  29:  0.00  30:  0.00  31:  0.00  32:  0.00
  33:  0.00  34:  0.00  35:  0.00  36:  0.00  37:  0.00  38:  0.00  39:  0.00  40:  0.00
  41:  0.00  42:  0.00  43:  0.00  44:  0.00  45:  0.00  46:  0.00  47:  0.00  48:  0.00
  49:  0.00  50:  0.00  51:  0.00
 output can be read by thermo (or use thermo option).
 writing <g98.out> molden fake output.
 recommended (thermochemical) frequency scaling factor: 1.0
           -------------------------------------------------
          |             Thermodynamic Functions             |
           -------------------------------------------------

Molecule has the following symmetry elements: (sigma) 
It seems to be the Cs point group
cs  symmetry found (for desy threshold:  0.10E+00) used in thermo

          ...................................................
          :                      SETUP                      :
          :.................................................:
          :  # frequencies                          45      :
          :  # imaginary freq.                       0      :
          :  linear?                             false      :
          :  only rotor calc.                    false      :
          :  symmetry                               cs      :
          :  rotational number                       1      :
          :  scaling factor                  1.0000000      :
          :  rotor cutoff                    0.0000000 cm⁻¹ :
          :  imag. cutoff                 -100.0000000 cm⁻¹ :
          :.................................................:

    mode    ω/cm⁻¹     T·S(HO)/kcal·mol⁻¹    T·S(FR)/kcal·mol⁻¹   T·S(vib)
   ------------------------------------------------------------------------
       1     76.59    -1.18556 (100.00%)    -0.92994 (  0.00%)    -1.18556
       2     88.42    -1.10160 (100.00%)    -0.88744 (  0.00%)    -1.10160
       3     99.79    -1.03114 (100.00%)    -0.85163 (  0.00%)    -1.03114
       4    140.10    -0.83556 (100.00%)    -0.75117 (  0.00%)    -0.83556
       5    155.84    -0.77508 (100.00%)    -0.71964 (  0.00%)    -0.77508
       6    186.31    -0.67508 (100.00%)    -0.66676 (  0.00%)    -0.67508
       7    215.36    -0.59564 (100.00%)    -0.62385 (  0.00%)    -0.59564
       8    279.78    -0.45766 (100.00%)    -0.54635 (  0.00%)    -0.45766
   ------------------------------------------------------------------------

   temp. (K)  partition function   enthalpy   heat capacity  entropy
                                   cal/mol     cal/K/mol   cal/K/mol   J/K/mol
 298.15  VIB   560.                 4080.166     24.907     26.259
         ROT  0.249E+06              888.752      2.981     27.676
         INT  0.140E+09             4968.918     27.888     53.934
         TR   0.106E+28             1481.254      4.968     39.877
         TOT                        6450.1718    32.8561    93.8112   392.5060

       T/K    H(0)-H(T)+PV         H(T)/Eh          T*S/Eh         G(T)/Eh
   ------------------------------------------------------------------------
    298.15    0.102790E-01    0.149834E+00    0.445727E-01    0.105262E+00
   ------------------------------------------------------------------------

         :::::::::::::::::::::::::::::::::::::::::::::::::::::
         ::                  THERMODYNAMIC                  ::
         :::::::::::::::::::::::::::::::::::::::::::::::::::::
         :: total free energy         -25.754575664508 Eh   ::
         ::.................................................::
         :: total energy              -25.859837310803 Eh   ::
         :: zero point energy           0.139555368813 Eh   ::
         :: G(RRHO) w/o ZPVE           -0.034293722518 Eh   ::
         :: G(RRHO) contrib.            0.105261646295 Eh   ::
         :::::::::::::::::::::::::::::::::::::::::::::::::::::

optimized geometry written to: xtbopt.coord


           -------------------------------------------------
          | TOTAL ENERGY              -25.859837310803 Eh   |
          | TOTAL ENTHALPY            -25.710002938905 Eh   |
          | TOTAL FREE ENERGY         -25.754575664508 Eh   |
          | GRADIENT NORM               0.000067530991 Eh/α |
          | HOMO-LUMO GAP              11.115045351796 eV   |
           -------------------------------------------------

------------------------------------------------------------------------
 * finished run on 2025/04/11 at 16:05:58.298     
------------------------------------------------------------------------
 total:
 * wall-time:     0 d,  0 h,  0 min,  1.042 sec
 *  cpu-time:     0 d,  0 h,  0 min,  0.970 sec
 * ratio c/w:     0.931 speedup
 SCF:
 * wall-time:     0 d,  0 h,  0 min,  0.015 sec
 *  cpu-time:     0 d,  0 h,  0 min,  0.015 sec
 * ratio c/w:     0.991 speedup
 ANC optimizer:
 * wall-time:     0 d,  0 h,  0 min,  0.141 sec
 *  cpu-time:     0 d,  0 h,  0 min,  0.127 sec
 * ratio c/w:     0.901 speedup
 analytical hessian:
 * wall-time:     0 d,  0 h,  0 min,  0.819 sec
 *  cpu-time:     0 d,  0 h,  0 min,  0.808 sec
 * ratio c/w:     0.987 speedup

