
                                 *****************
                                 * O   R   C   A *
                                 *****************

                                            #,                                       
                                            ###                                      
                                            ####                                     
                                            #####                                    
                                            ######                                   
                                           ########,                                 
                                     ,,################,,,,,                         
                               ,,#################################,,                 
                          ,,##########################################,,             
                       ,#########################################, ''#####,          
                    ,#############################################,,   '####,        
                  ,##################################################,,,,####,       
                ,###########''''           ''''###############################       
              ,#####''   ,,,,##########,,,,          '''####'''          '####       
            ,##' ,,,,###########################,,,                        '##       
           ' ,,###''''                  '''############,,,                           
         ,,##''                                '''############,,,,        ,,,,,,###''
      ,#''                                            '''#######################'''  
     '                                                          ''''####''''         
             ,#######,   #######,   ,#######,      ##                                
            ,#'     '#,  ##    ##  ,#'     '#,    #''#        ,####,   ,####,        
            ##       ##  ##   ,#'  ##            #'  '#       #'       #'  '#        
            ##       ##  #######   ##           ,######,      #####,   #    #        
            '#,     ,#'  ##    ##  '#,     ,#' ,#      #,     #,   #   #,  ,#        
             '#######'   ##     ##  '#######'  #'      '#     '####' # '####'        



                #########################################################
                #                        -***-                          #
                #          Department of theory and spectroscopy        #
                #                                                       #
                #                      Frank Neese                      #
                #                                                       #
                #     Directorship, Architecture, Infrastructure        #
                #                    SHARK, DRIVERS                     #
                #        Core code/Algorithms in most modules           #
                #                                                       #
                #        Max Planck Institute fuer Kohlenforschung      #
                #                Kaiser Wilhelm Platz 1                 #
                #                 D-45470 Muelheim/Ruhr                 #
                #                      Germany                          #
                #                                                       #
                #                  All rights reserved                  #
                #                        -***-                          #
                #########################################################


                         Program Version 6.0.0  -   RELEASE  -


 With contributions from (in alphabetic order):
   Daniel Aravena         : Magnetic Suceptibility
   Michael Atanasov       : Ab Initio Ligand Field Theory (pilot matlab implementation)
   Alexander A. Auer      : GIAO ZORA, VPT2 properties, NMR spectrum
   Ute Becker             : All parallelization in ORCA, NUMFREQ, NUMCALC
   Giovanni Bistoni       : ED, misc. LED, open-shell LED, HFLD
   Martin Brehm           : Molecular dynamics
   Dmytro Bykov           : pre 5.0 version of the SCF Hessian
   Marcos Casanova-Páez   : Triplet and SCS-CIS(D). UHF-(DLPNO)-IP/EA/STEOM-CCSD. UHF-CVS-IP/STEOM-CCSD
   Vijay G. Chilkuri      : MRCI spin determinant printing, contributions to CSF-ICE
   Pauline Colinet        : FMM embedding
   Dipayan Datta          : RHF DLPNO-CCSD density
   Achintya Kumar Dutta   : EOM-CC, STEOM-CC
   Nicolas Foglia         : Exact transition moments, OPA infrastructure, MCD improvements
   Dmitry Ganyushin       : Spin-Orbit,Spin-Spin,Magnetic field MRCI
   Miquel Garcia          : C-PCM and meta-GGA Hessian, CCSD/C-PCM, Gaussian charge scheme
   Tiago L. C. Gouveia    : GS-ROHF, GS-ROCIS
   Yang Guo               : DLPNO-NEVPT2, F12-NEVPT2, CIM, IAO-localization
   Andreas Hansen         : Spin unrestricted coupled pair/coupled cluster methods
   Ingolf Harden          : AUTO-CI MPn and infrastructure 
   Benjamin Helmich-Paris : MC-RPA, TRAH-(SCF,CASSCF), AVAS, COSX integrals, SCF dyn. polar.
   Lee Huntington         : MR-EOM, pCC
   Robert Izsak           : Overlap fitted RIJCOSX, COSX-SCS-MP3, EOM
   Riya Kayal             : Wick's Theorem for AUTO-CI, AUTO-CI UHF-CCSDT
   Emily Kempfer          : AUTO-CI, RHF CISDT and CCSDT
   Christian Kollmar      : KDIIS, OOCD, Brueckner-CCSD(T), CCSD density, CASPT2, CASPT2-K, improved NEVPT2
   Axel Koslowski         : Symmetry handling
   Simone Kossmann        : Meta GGA functionals, TD-DFT gradient, OOMP2, (MP2 Hessian; deprecated post 5.0)
   Lucas Lang             : DCDCAS
   Marvin Lechner         : AUTO-CI (C++ implementation), FIC-MRCC
   Spencer Leger          : CASSCF response
   Dagmar Lenk            : GEPOL surface, SMD, ORCA-2-JSON
   Dimitrios Liakos       : Extrapolation schemes; Compound Job, initial MDCI parallelization
   Dimitrios Manganas     : Further ROCIS development; embedding schemes. LFT, Crystal Embedding
   Dimitrios Pantazis     : SARC Basis sets
   Anastasios Papadopoulos: AUTO-CI, single reference methods and gradients
   Taras Petrenko         : pre 6.0 DFT Hessian and TD-DFT gradient, (ASA, deprecated), ECA, 1-Electron XAS/XES, NRVS
   Peter Pinski           : DLPNO-MP2, DLPNO-MP2 Gradient
   Christoph Reimann      : Effective Core Potentials
   Marius Retegan         : Local ZFS, SOC
   Christoph Riplinger    : Optimizer, TS searches, QM/MM, DLPNO-CCSD(T), (RO)-DLPNO pert. Triples
   Michael Roemelt        : Original ROCIS implementation
   Masaaki Saitow         : Open-shell DLPNO-CCSD energy and density
   Barbara Sandhoefer     : DKH picture change effects
   Kantharuban Sivalingam : CASSCF convergence/infrastructure, NEVPT2 and variants, FIC-MRCI
   Bernardo de Souza      : ESD, SOC TD-DFT
   Georgi Stoychev        : AutoAux, RI-MP2 NMR, DLPNO-MP2 response, X2C
   Van Anh Tran           : RI-MP2 g-tensors
   Willem Van den Heuvel  : Paramagnetic NMR
   Zikuan Wang            : NOTCH, Electric field optimization 
   Frank Wennmohs         : Technical directorship and infrastructure
   Hang Xu                : AUTO-CI-Response properties 


 We gratefully acknowledge several colleagues who have allowed us to
 interface, adapt or use parts of their codes:
   Stefan Grimme, W. Hujo, H. Kruse, P. Pracht,  : VdW corrections, initial TS optimization,
                  C. Bannwarth, S. Ehlert,         DFT functionals, gCP, sTDA/sTD-DF
                  L. Wittmann, M. Mueller
   Ed Valeev, F. Pavosevic, A. Kumar             : LibInt (2-el integral package), F12 methods
   Garnet Chan, S. Sharma, J. Yang, R. Olivares  : DMRG
   Ulf Ekstrom                                   : XCFun DFT Library
   Mihaly Kallay                                 : mrcc  (arbitrary order and MRCC methods)
   Frank Weinhold                                : gennbo (NPA and NBO analysis)
   Simon Mueller                                 : openCOSMO-RS
   Christopher J. Cramer and Donald G. Truhlar   : smd solvation model
   Lars Goerigk                                  : TD-DFT with DH, B97 family of functionals
   V. Asgeirsson, H. Jonsson                     : NEB implementation
   FAccTs GmbH                                   : IRC, NEB, NEB-TS, DLPNO-Multilevel, CI-OPT
                                                   MM, QMMM, 2- and 3-layer-ONIOM, Crystal-QMMM,
                                                   LR-CPCM, SF, NACMEs, symmetry and pop. for TD-DFT,
                                                   nearIR, NL-DFT gradient (VV10), updates on ESD,
                                                   ML-optimized integration grids, MBIS, APM,
                                                   GOAT, DOCKER, SOLVATOR, interface openCOSMO-RS
   S Lehtola, MJT Oliveira, MAL Marques          : LibXC Library
   Liviu Ungur et al                             : ANISO software


 Your calculation uses the libint2 library for the computation of 2-el integrals
 For citations please refer to: http://libint.valeyev.net

 Your ORCA version has been built with support for libXC version: 6.2.2
 For citations please refer to: https://libxc.gitlab.io

 This ORCA versions uses:
   CBLAS   interface :  Fast vector & matrix operations
   LAPACKE interface :  Fast linear algebra routines
   SCALAPACK package :  Parallel linear algebra routines
   Shared memory     :  Shared parallel matrices
   BLAS/LAPACK       :  OpenBLAS 0.3.27  USE64BITINT DYNAMIC_ARCH NO_AFFINITY SkylakeX SINGLE_THREADED
        Core in use  :  SkylakeX
   Copyright (c) 2011-2014, The OpenBLAS Project


Your calculation utilizes the geometrical counterpoise correction gCP
Please cite in your paper:
H.Kruse, S. Grimme J.Chem.Phys., 136, (2012), 154101 
   

Your calculation utilizes the atom-pairwise dispersion correction
based on EEQ partial charges (D4)


================================================================================

----- Orbital basis set information -----
Your calculation utilizes the basis: def2-SV(P)
   F. Weigend and R. Ahlrichs, Phys. Chem. Chem. Phys. 7, 3297 (2005).

----- AuxJ basis set information -----
Your calculation utilizes the auxiliary basis: def2/J
   F. Weigend, Phys. Chem. Chem. Phys. 8, 1057 (2006).

================================================================================
                                        WARNINGS
                       Please study these warnings very carefully!
================================================================================


================================================================================
                                       INPUT FILE
================================================================================
NAME = sp.inp
|  1> ! pbe def2-sv(p) def2/J RI DEFGRID1 loosescf d4 GCP(DFT/SV(P)) printgap
|  2> %output
|  3>     printlevel normal
|  4> end
|  5> * xyz 0 1
|  6> C -3.4809121181 0.3899858193 -0.0791989901
|  7> C -2.6004086872 -0.7134165597 0.4958245409
|  8> C -1.1811026023 -0.7105922819 -0.0721303412
|  9> C -0.3804764468 0.5323423877 0.3467493626
| 10> C 1.0156742529 0.4162125706 -0.1985536876
| 11> O 1.385411846 0.8465774976 -1.2714836155
| 12> O 1.8088141377 -0.2623361528 0.6234406659
| 13> C 3.1549485465 -0.4986533105 0.2032545089
| 14> H -3.1232609487 1.3722314245 0.2167230424
| 15> H -3.4923270582 0.3394472922 -1.165516224
| 16> H -4.5009379901 0.2798261926 0.2800348442
| 17> H -2.5540679506 -0.6148229419 1.5816782969
| 18> H -3.0526981514 -1.6806090034 0.2683698497
| 19> H -1.2221313654 -0.7552687252 -1.1626774485
| 20> H -0.6537894618 -1.5983454667 0.2834839103
| 21> H -0.3356445693 0.5894790682 1.4335146388
| 22> H -0.8377086741 1.4303453776 -0.0648065318
| 23> H 3.7079137437 0.44117247 0.1862576092
| 24> H 3.1633376556 -0.9335501008 -0.7969426598
| 25> H 3.574814623 -1.183259236 0.9334298812
| 26> *
| 27> 
| 28>                          ****END OF INPUT****
================================================================================

                       ****************************
                       * Single Point Calculation *
                       ****************************

---------------------------------
CARTESIAN COORDINATES (ANGSTROEM)
---------------------------------
  C     -3.480912    0.389986   -0.079199
  C     -2.600409   -0.713417    0.495825
  C     -1.181103   -0.710592   -0.072130
  C     -0.380476    0.532342    0.346749
  C      1.015674    0.416213   -0.198554
  O      1.385412    0.846577   -1.271484
  O      1.808814   -0.262336    0.623441
  C      3.154949   -0.498653    0.203255
  H     -3.123261    1.372231    0.216723
  H     -3.492327    0.339447   -1.165516
  H     -4.500938    0.279826    0.280035
  H     -2.554068   -0.614823    1.581678
  H     -3.052698   -1.680609    0.268370
  H     -1.222131   -0.755269   -1.162677
  H     -0.653789   -1.598345    0.283484
  H     -0.335645    0.589479    1.433515
  H     -0.837709    1.430345   -0.064807
  H      3.707914    0.441172    0.186258
  H      3.163338   -0.933550   -0.796943
  H      3.574815   -1.183259    0.933430

----------------------------
CARTESIAN COORDINATES (A.U.)
----------------------------
  NO LB      ZA    FRAG     MASS         X           Y           Z
   0 C     6.0000    0    12.011   -6.577971    0.736966   -0.149664
   1 C     6.0000    0    12.011   -4.914060   -1.348162    0.936973
   2 C     6.0000    0    12.011   -2.231960   -1.342825   -0.136307
   3 C     6.0000    0    12.011   -0.718996    1.005981    0.655261
   4 C     6.0000    0    12.011    1.919346    0.786528   -0.375212
   5 O     8.0000    0    15.999    2.618049    1.599800   -2.402756
   6 O     8.0000    0    15.999    3.418163   -0.495743    1.178132
   7 C     6.0000    0    12.011    5.961989   -0.942318    0.384095
   8 H     1.0000    0     1.008   -5.902108    2.593142    0.409547
   9 H     1.0000    0     1.008   -6.599542    0.641462   -2.202506
  10 H     1.0000    0     1.008   -8.505540    0.528795    0.529189
  11 H     1.0000    0     1.008   -4.826489   -1.161847    2.988939
  12 H     1.0000    0     1.008   -5.768763   -3.175891    0.507146
  13 H     1.0000    0     1.008   -2.309494   -1.427251   -2.197142
  14 H     1.0000    0     1.008   -1.235483   -3.020435    0.535707
  15 H     1.0000    0     1.008   -0.634276    1.113954    2.708950
  16 H     1.0000    0     1.008   -1.583040    2.702961   -0.122467
  17 H     1.0000    0     1.008    7.006942    0.833695    0.351976
  18 H     1.0000    0     1.008    5.977842   -1.764154   -1.506003
  19 H     1.0000    0     1.008    6.755421   -2.236036    1.763927

--------------------------------
INTERNAL COORDINATES (ANGSTROEM)
--------------------------------
 C      0   0   0     0.000000000000     0.00000000     0.00000000
 C      1   0   0     1.524281851566     0.00000000     0.00000000
 C      2   1   0     1.528728388982   113.25435948     0.00000000
 C      3   2   1     1.536668161973   112.57814057    66.86581494
 C      4   3   2     1.503355688867   108.81445411   177.24530057
 O      5   4   3     1.213712687718   125.18158055    91.38775282
 O      5   4   3     1.328598496188   111.68118590   273.42604957
 C      7   5   4     1.429853157535   117.68549504   177.41020646
 H      1   2   3     1.086411817511   111.19582236   294.03281606
 H      1   2   3     1.087552102774   110.44072052    54.56378325
 H      1   2   3     1.087031218783   110.12186675   174.24568841
 H      2   1   3     1.091304973304   109.54140699   122.25857877
 H      2   1   3     1.091678807674   108.86947351   239.85712123
 H      3   2   1     1.092232730341   109.63316466   305.41025582
 H      3   2   1     1.092074338649   109.01479065   187.30540935
 H      4   3   2     1.089189268701   109.62477798    57.96491689
 H      4   3   2     1.088507663623   110.20448464   296.05386188
 H      8   7   5     1.090564946074   109.84687638    68.53261761
 H      8   7   5     1.090687843354   110.03702974   308.53862180
 H      8   7   5     1.085416449912   105.70776856   188.31910670

---------------------------
INTERNAL COORDINATES (A.U.)
---------------------------
 C      0   0   0     0.000000000000     0.00000000     0.00000000
 C      1   0   0     2.880475250366     0.00000000     0.00000000
 C      2   1   0     2.888877988327   113.25435948     0.00000000
 C      3   2   1     2.903881984844   112.57814057    66.86581494
 C      4   3   2     2.840930533832   108.81445411   177.24530057
 O      5   4   3     2.293584585052   125.18158055    91.38775282
 O      5   4   3     2.510687299736   111.68118590   273.42604957
 C      7   5   4     2.702030879464   117.68549504   177.41020646
 H      1   2   3     2.053020803751   111.19582236   294.03281606
 H      1   2   3     2.055175630612   110.44072052    54.56378325
 H      1   2   3     2.054191302523   110.12186675   174.24568841
 H      2   1   3     2.062267528131   109.54140699   122.25857877
 H      2   1   3     2.062973972710   108.86947351   239.85712123
 H      3   2   1     2.064020734849   109.63316466   305.41025582
 H      3   2   1     2.063721417930   109.01479065   187.30540935
 H      4   3   2     2.058269425850   109.62477798    57.96491689
 H      4   3   2     2.056981378922   110.20448464   296.05386188
 H      8   7   5     2.060869079335   109.84687638    68.53261761
 H      8   7   5     2.061101321536   110.03702974   308.53862180
 H      8   7   5     2.051139831586   105.70776856   188.31910670

---------------------
BASIS SET INFORMATION
---------------------
There are 3 groups of distinct atoms

 Group   1 Type C   : 7s4p1d contracted to 3s2p1d pattern {511/31/1}
 Group   2 Type O   : 7s4p1d contracted to 3s2p1d pattern {511/31/1}
 Group   3 Type H   : 4s contracted to 2s pattern {31}

Atom   0C    basis set group =>   1
Atom   1C    basis set group =>   1
Atom   2C    basis set group =>   1
Atom   3C    basis set group =>   1
Atom   4C    basis set group =>   1
Atom   5O    basis set group =>   2
Atom   6O    basis set group =>   2
Atom   7C    basis set group =>   1
Atom   8H    basis set group =>   3
Atom   9H    basis set group =>   3
Atom  10H    basis set group =>   3
Atom  11H    basis set group =>   3
Atom  12H    basis set group =>   3
Atom  13H    basis set group =>   3
Atom  14H    basis set group =>   3
Atom  15H    basis set group =>   3
Atom  16H    basis set group =>   3
Atom  17H    basis set group =>   3
Atom  18H    basis set group =>   3
Atom  19H    basis set group =>   3
---------------------------------
AUXILIARY/J BASIS SET INFORMATION
---------------------------------
There are 3 groups of distinct atoms

 Group   1 Type C   : 12s5p4d2f1g contracted to 6s4p3d1f1g pattern {711111/2111/211/2/1}
 Group   2 Type O   : 12s5p4d2f1g contracted to 6s4p3d1f1g pattern {711111/2111/211/2/1}
 Group   3 Type H   : 5s2p1d contracted to 3s1p1d pattern {311/2/1}

Atom   0C    basis set group =>   1
Atom   1C    basis set group =>   1
Atom   2C    basis set group =>   1
Atom   3C    basis set group =>   1
Atom   4C    basis set group =>   1
Atom   5O    basis set group =>   2
Atom   6O    basis set group =>   2
Atom   7C    basis set group =>   1
Atom   8H    basis set group =>   3
Atom   9H    basis set group =>   3
Atom  10H    basis set group =>   3
Atom  11H    basis set group =>   3
Atom  12H    basis set group =>   3
Atom  13H    basis set group =>   3
Atom  14H    basis set group =>   3
Atom  15H    basis set group =>   3
Atom  16H    basis set group =>   3
Atom  17H    basis set group =>   3
Atom  18H    basis set group =>   3
Atom  19H    basis set group =>   3
------------------------------------------------------------------------------
                             ORCA STARTUP CALCULATIONS
                           -- RI-GTO INTEGRALS CHOSEN --
------------------------------------------------------------------------------
------------------------------------------------------------------------------
                   ___                                                        
                  /   \      - P O W E R E D   B Y -                         
                 /     \                                                     
                 |  |  |   _    _      __       _____    __    __             
                 |  |  |  | |  | |    /  \     |  _  \  |  |  /  |          
                  \  \/   | |  | |   /    \    | | | |  |  | /  /          
                 / \  \   | |__| |  /  /\  \   | |_| |  |  |/  /          
                |  |  |   |  __  | /  /__\  \  |    /   |      \           
                |  |  |   | |  | | |   __   |  |    \   |  |\   \          
                \     /   | |  | | |  |  |  |  | |\  \  |  | \   \       
                 \___/    |_|  |_| |__|  |__|  |_| \__\ |__|  \__/        
                                                                              
                      - O R C A' S   B I G   F R I E N D -                    
                                      &                                       
                       - I N T E G R A L  F E E D E R -                       
                                                                              
 v1 FN, 2020, v2 2021, v3 2022-2024                                           
------------------------------------------------------------------------------


----------------------
SHARK INTEGRAL PACKAGE
----------------------

Number of atoms                             ...     20
Number of basis functions                   ...    136
Number of shells                            ...     72
Maximum angular momentum                    ...      2
Integral batch strategy                     ... SHARK/LIBINT Hybrid
RI-J (if used) integral strategy            ... SPLIT-RIJ (Revised 2003 algorithm where possible)
Printlevel                                  ...      1
Contraction scheme used                     ... SEGMENTED contraction
Prescreening option                         ... SCHWARTZ
   Thresh                                   ... 1.000e-09
   Tcut                                     ... 1.000e-10
   Tpresel                                  ... 1.000e-10 
Coulomb Range Separation                    ... NOT USED
Exchange Range Separation                   ... NOT USED
Multipole approximations                    ... NOT USED
Finite Nucleus Model                        ... NOT USED
CABS basis                                  ... NOT available
Auxiliary Coulomb fitting basis             ... AVAILABLE
   # of basis functions in Aux-J            ...    524
   # of shells in Aux-J                     ...    180
   Maximum angular momentum in Aux-J        ...      4
Auxiliary J/K fitting basis                 ... NOT available
Auxiliary Correlation fitting basis         ... NOT available
Auxiliary 'external' fitting basis          ... NOT available

Checking pre-screening integrals            ... done (  0.0 sec) Dimension = 72
Check shell pair data                       ... done (  0.0 sec)
Shell pair information
Shell pair cut-off parameter TPreSel        ...   1.0e-10
Total number of shell pairs                 ...      2628
Shell pairs after pre-screening             ...      2376
Total number of primitive shell pairs       ...     10580
Primitive shell pairs kept                  ...      6636
          la=0 lb=0:   1052 shell pairs
          la=1 lb=0:    717 shell pairs
          la=1 lb=1:    131 shell pairs
          la=2 lb=0:    329 shell pairs
          la=2 lb=1:    117 shell pairs
          la=2 lb=2:     30 shell pairs

Calculating one electron integrals          ... done (  0.0 sec)
Calculating RI/J V-Matrix + Cholesky decomp.... done (  0.1 sec)
Calculating Nuclear repulsion               ... done (  0.0 sec) ENN=    386.274426604637 Eh

Diagonalization of the overlap matrix:
Smallest eigenvalue                        ... 1.447e-03
Time for diagonalization                   ...    0.002 sec
Threshold for overlap eigenvalues          ... 1.000e-07
Number of eigenvalues below threshold      ... 0
Time for construction of square roots      ...    0.017 sec
Total time needed                          ...    0.026 sec

-------------------
DFT GRID GENERATION
-------------------

General Integration Accuracy     IntAcc      ... 4.159
Radial Grid Type                 RadialGrid  ... OptM3 with GC (2021)
Angular Grid (max. ang.)         AngularGrid ... 3 (Lebedev-194)
Angular grid pruning method      GridPruning ... 4 (adaptive)
Weight generation scheme         WeightScheme... mBecke (2022)
Basis function cutoff            BFCut       ... 1.0000e-10
Integration weight cutoff        WCut        ... 1.0000e-14
Partially contracted basis set               ... off
Rotationally invariant grid construction     ... off
Angular grids for H and He will be reduced by one unit

Total number of grid points                  ...    42969
Total number of batches                      ...      681
Average number of points per batch           ...       63
Average number of grid points per atom       ...     2148
Initializing property integral containers    ... done (  0.0 sec)

SHARK setup successfully completed in   0.7 seconds

Maximum memory used throughout the entire STARTUP-calculation: 21.1 MB
-------------------------------------------------------------------------------
                                 ORCA GUESS
                   Start orbitals & Density for SCF / CASSCF
-------------------------------------------------------------------------------

------------
SCF SETTINGS
------------
Hamiltonian:
 Density Functional     Method          .... DFT(GTOs)
 Exchange Functional    Exchange        .... PBE
   PBE kappa parameter   XKappa         ....  0.804000
   PBE mue parameter    XMuePBE         ....  0.219520
 Correlation Functional Correlation     .... PBE
   PBE beta parameter  CBetaPBE         ....  0.066725
 LDA part of GGA corr.  LDAOpt          .... PW91-LDA
 Gradients option       PostSCFGGA      .... off
   NL short-range parameter             ....  6.400000
 RI-approximation to the Coulomb term is turned on
   Number of AuxJ basis functions       .... 524


General Settings:
 Integral files         IntName         .... sp
 Hartree-Fock type      HFTyp           .... RHF
 Total Charge           Charge          ....    0
 Multiplicity           Mult            ....    1
 Number of Electrons    NEL             ....   64
 Basis Dimension        Dim             ....  136
 Nuclear Repulsion      ENuc            ....    386.2744266046 Eh

Convergence Acceleration:
 AO-DIIS                CNVDIIS         .... on
   Start iteration      DIISMaxIt       ....    12
   Startup error        DIISStart       ....  0.200000
   # of expansion vecs  DIISMaxEq       ....     5
   Bias factor          DIISBfac        ....   1.050
   Max. coefficient     DIISMaxC        ....  10.000
 MO-DIIS                CNVKDIIS        .... off
 Trust-Rad. Augm. Hess. CNVTRAH         .... auto
   Auto Start mean grad. ratio tolernc. ....  1.125000
   Auto Start start iteration           ....    50
   Auto Start num. interpolation iter.  ....    10
   Max. Number of Micro iterations      ....    24
   Max. Number of Macro iterations      .... Maxiter - #DIIS iter
   Number of Davidson start vectors     ....     2
   Converg. threshold    (grad. norm)   ....   1.000e-04
   Grad. Scal. Fac. for Micro threshold ....   0.100
   Minimum threshold for Micro iter.    ....   1.000e-02
   NR start threshold (gradient norm)   ....   1.000e-04
   Initial trust radius                 ....   0.400
   Minimum AH scaling param. (alpha)    ....   1.000
   Maximum AH scaling param. (alpha)    .... 1000.000
   Quad. conv. algorithm                .... NR
   White noise on init. David. guess    .... on
   Maximum white noise                  ....   0.010
   Pseudo random numbers                .... off
   Inactive MOs                         .... canonical
   Orbital update algorithm             .... Taylor
   Preconditioner                       .... Diag
   Full preconditioner red. dimension   ....   250
 SOSCF                  CNVSOSCF        .... on
   Start iteration      SOSCFMaxIt      ....   150
   Startup grad/error   SOSCFStart      ....  0.003300
   Hessian update       SOSCFHessUp     .... L-BFGS
 Level Shifting         CNVShift        .... on
   Level shift para.    LevelShift      ....    0.2500
   Turn off err/grad.   ShiftErr        ....    0.0010
 Zerner damping         CNVZerner       .... off
 Static damping         CNVDamp         .... on
   Fraction old density DampFac         ....    0.7000
   Max. Damping (<1)    DampMax         ....    0.9800
   Min. Damping (>=0)   DampMin         ....    0.0000
   Turn off err/grad.   DampErr         ....    0.1000

SCF Procedure:
 Maximum # iterations   MaxIter         ....   125
 SCF integral mode      SCFMode         .... Direct
   Integral package                     .... SHARK and LIBINT hybrid scheme
 Reset frequency        DirectResetFreq ....    20
 Integral Threshold     Thresh          ....  1.000e-09 Eh
 Primitive CutOff       TCut            ....  1.000e-10 Eh

Convergence Tolerance:
 Convergence Check Mode ConvCheckMode   .... Total+1el-Energy
 Convergence forced     ConvForced      .... 0
 Energy Change          TolE            ....  1.000e-05 Eh
 1-El. energy change                    ....  1.000e-02 Eh
 Orbital Gradient       TolG            ....  1.000e-04
 Orbital Rotation angle TolX            ....  1.000e-04
 DIIS Error             TolErr          ....  5.000e-04

------------------------------
INITIAL GUESS: MODEL POTENTIAL
------------------------------
Loading Hartree-Fock densities                     ... done
Calculating cut-offs                               ... done
Initializing the effective Hamiltonian             ... done
Setting up the integral package (SHARK)            ... done
Starting the Coulomb interaction                   ... done (   0.1 sec)
Making the grid                                    ... done (   0.2 sec)
Mapping shells                                     ... done
Starting the XC term evaluation                    ... done (   0.2 sec)
  promolecular density results
     # of electrons  =     63.993999382
     EX              =    -50.543200322
     EC              =     -2.107675904
     EX+EC           =    -52.650876226
Transforming the Hamiltonian                       ... done (   0.0 sec)
Diagonalizing the Hamiltonian                      ... done (   0.0 sec)
Back transforming the eigenvectors                 ... done (   0.0 sec)
Now organizing SCF variables                       ... done
                      ------------------
                      INITIAL GUESS DONE (   0.5 sec)
                      ------------------
             **** ENERGY FILE WAS UPDATED (sp.en.tmp) ****
Finished Guess after   0.7 sec
Maximum memory used throughout the entire GUESS-calculation: 16.1 MB

-------------------------------------------------------------------------------------------
                                      ORCA LEAN-SCF
                              memory conserving SCF solver
-------------------------------------------------------------------------------------------

----------------------------------------D-I-I-S--------------------------------------------
Iteration    Energy (Eh)           Delta-E    RMSDP     MaxDP     DIISErr   Damp  Time(sec)
-------------------------------------------------------------------------------------------
               ***  Starting incremental Fock matrix formation  ***
    1    -385.2866143673768420     0.00e+00  4.75e-03  9.96e-02  2.46e-01  0.700   0.8
    2    -385.4079338657983271    -1.21e-01  2.99e-03  4.94e-02  7.30e-02  0.700   0.8
                               ***Turning on AO-DIIS***
    3    -385.4449295736833392    -3.70e-02  1.24e-03  1.40e-02  2.26e-02  0.700   0.8
    4    -385.4692099069424103    -2.43e-02  1.76e-03  2.23e-02  1.36e-02  0.000   0.8
    5    -385.5258223662319779    -5.66e-02  5.56e-04  6.15e-03  7.82e-03  0.000   0.8
                              *** Initializing SOSCF ***
---------------------------------------S-O-S-C-F--------------------------------------
Iteration    Energy (Eh)           Delta-E    RMSDP     MaxDP     MaxGrad    Time(sec)
--------------------------------------------------------------------------------------
    6    -385.5265365520052683    -7.14e-04  2.11e-04  2.42e-03  3.29e-03     0.7
               *** Restarting incremental Fock matrix formation ***
    7    -385.5265962330742013    -5.97e-05  1.47e-04  2.49e-03  6.26e-04     0.8
    8    -385.5265807397954632     1.55e-05  7.43e-05  1.89e-03  1.81e-03     0.7
    9    -385.5266020565470626    -2.13e-05  6.20e-05  1.05e-03  2.78e-04     0.7
   10    -385.5265994161383105     2.64e-06  3.38e-05  6.81e-04  3.13e-04     0.7
                 **** Energy Check signals convergence ****

               *****************************************************
               *                     SUCCESS                       *
               *           SCF CONVERGED AFTER  10 CYCLES          *
               *****************************************************

             **** ENERGY FILE WAS UPDATED (sp.en.tmp) ****

----------------
TOTAL SCF ENERGY
----------------

Total Energy       :       -385.52659941613831 Eh          -10490.71211 eV

Components:
Nuclear Repulsion  :        386.27442660463657 Eh           10511.06152 eV
Electronic Energy  :       -771.80102602077488 Eh          -21001.77363 eV
One Electron Energy:      -1288.97466184994823 Eh          -35074.78372 eV
Two Electron Energy:        517.17363582917335 Eh           14073.01009 eV

Virial components:
Potential Energy   :       -767.92711383597418 Eh          -20896.35912 eV
Kinetic Energy     :        382.40051441983587 Eh           10405.64701 eV
Virial Ratio       :          2.00817489746593

DFT components:
N(Alpha)           :       31.999869427106 electrons
N(Beta)            :       31.999869427106 electrons
N(Total)           :       63.999738854211 electrons
E(X)               :      -51.603175620604 Eh       
E(C)               :       -2.122864956794 Eh       
E(XC)              :      -53.726040577397 Eh       

---------------
SCF CONVERGENCE
---------------

  Last Energy change         ...   -2.6404e-06  Tolerance :   1.0000e-05
  Last MAX-Density change    ...    6.8068e-04  Tolerance :   1.0000e-03
  Last RMS-Density change    ...    3.3758e-05  Tolerance :   1.0000e-04
  Last DIIS Error            ...    3.2940e-03  Tolerance :   5.0000e-04
  Last Orbital Gradient      ...    3.1333e-04  Tolerance :   1.0000e-04
  Last Orbital Rotation      ...    2.8240e-04  Tolerance :   1.0000e-04


----------------
ORBITAL ENERGIES
----------------

  NO   OCC          E(Eh)            E(eV) 
   0   2.0000     -18.798254      -511.5265 
   1   2.0000     -18.729324      -509.6508 
   2   2.0000     -10.002467      -272.1810 
   3   2.0000      -9.940897      -270.5056 
   4   2.0000      -9.895777      -269.2778 
   5   2.0000      -9.894058      -269.2310 
   6   2.0000      -9.888967      -269.0925 
   7   2.0000      -9.877611      -268.7835 
   8   2.0000      -1.003806       -27.3150 
   9   2.0000      -0.905971       -24.6527 
  10   2.0000      -0.734020       -19.9737 
  11   2.0000      -0.685658       -18.6577 
  12   2.0000      -0.643539       -17.5116 
  13   2.0000      -0.586910       -15.9706 
  14   2.0000      -0.518307       -14.1038 
  15   2.0000      -0.505253       -13.7486 
  16   2.0000      -0.450323       -12.2539 
  17   2.0000      -0.433617       -11.7993 
  18   2.0000      -0.426874       -11.6158 
  19   2.0000      -0.403737       -10.9862 
  20   2.0000      -0.397076       -10.8050 
  21   2.0000      -0.376916       -10.2564 
  22   2.0000      -0.360130        -9.7996 
  23   2.0000      -0.354769        -9.6538 
  24   2.0000      -0.336619        -9.1599 
  25   2.0000      -0.322277        -8.7696 
  26   2.0000      -0.305763        -8.3202 
  27   2.0000      -0.294286        -8.0079 
  28   2.0000      -0.292072        -7.9477 
  29   2.0000      -0.286448        -7.7946 
  30   2.0000      -0.255552        -6.9539 
  31   2.0000      -0.213637        -5.8133 
  32   0.0000      -0.017270        -0.4700 
  33   0.0000       0.037032         1.0077 
  34   0.0000       0.056385         1.5343 
  35   0.0000       0.067651         1.8409 
  36   0.0000       0.070454         1.9172 
  37   0.0000       0.083272         2.2660 
  38   0.0000       0.095259         2.5921 
  39   0.0000       0.101197         2.7537 
  40   0.0000       0.113944         3.1006 
  41   0.0000       0.115644         3.1468 
  42   0.0000       0.123125         3.3504 
*Only the first 10 virtual orbitals were printed.

                    ********************************
                    * MULLIKEN POPULATION ANALYSIS *
                    ********************************

-----------------------
MULLIKEN ATOMIC CHARGES
-----------------------
   0 C :   -0.297492
   1 C :   -0.142444
   2 C :   -0.216154
   3 C :   -0.121590
   4 C :    0.103216
   5 O :   -0.213439
   6 O :   -0.244469
   7 C :   -0.107511
   8 H :    0.110616
   9 H :    0.102941
  10 H :    0.105549
  11 H :    0.083368
  12 H :    0.088763
  13 H :    0.098411
  14 H :    0.094004
  15 H :    0.092085
  16 H :    0.106221
  17 H :    0.118089
  18 H :    0.119783
  19 H :    0.120052
Sum of atomic charges:    0.0000000

--------------------------------
MULLIKEN REDUCED ORBITAL CHARGES
--------------------------------
  0 C s       :     3.104415  s :     3.104415
      pz      :     1.061420  p :     3.163785
      px      :     1.052999
      py      :     1.049367
      dz2     :     0.009804  d :     0.029292
      dxz     :     0.003160
      dyz     :     0.002915
      dx2y2   :     0.009137
      dxy     :     0.004275

  1 C s       :     3.033983  s :     3.033983
      pz      :     1.039314  p :     3.071472
      px      :     0.997256
      py      :     1.034902
      dz2     :     0.012039  d :     0.036989
      dxz     :     0.004929
      dyz     :     0.002797
      dx2y2   :     0.008316
      dxy     :     0.008908

  2 C s       :     3.093708  s :     3.093708
      pz      :     1.055474  p :     3.085573
      px      :     1.011268
      py      :     1.018831
      dz2     :     0.011419  d :     0.036873
      dxz     :     0.004846
      dyz     :     0.003660
      dx2y2   :     0.006862
      dxy     :     0.010086

  3 C s       :     3.007614  s :     3.007614
      pz      :     1.024314  p :     3.080786
      px      :     1.002742
      py      :     1.053730
      dz2     :     0.009505  d :     0.033190
      dxz     :     0.004412
      dyz     :     0.004549
      dx2y2   :     0.008385
      dxy     :     0.006338

  4 C s       :     3.046949  s :     3.046949
      pz      :     0.896765  p :     2.719534
      px      :     0.969311
      py      :     0.853458
      dz2     :     0.030269  d :     0.130301
      dxz     :     0.041113
      dyz     :     0.025682
      dx2y2   :     0.016885
      dxy     :     0.016351

  5 O s       :     3.746085  s :     3.746085
      pz      :     1.340331  p :     4.449849
      px      :     1.678392
      py      :     1.431126
      dz2     :     0.006353  d :     0.017505
      dxz     :     0.004001
      dyz     :     0.004961
      dx2y2   :     0.001001
      dxy     :     0.001190

  6 O s       :     3.730566  s :     3.730566
      pz      :     1.615488  p :     4.497546
      px      :     1.262969
      py      :     1.619090
      dz2     :     0.002801  d :     0.016356
      dxz     :     0.004848
      dyz     :     0.003024
      dx2y2   :     0.003083
      dxy     :     0.002600

  7 C s       :     3.124728  s :     3.124728
      pz      :     1.064691  p :     2.931440
      px      :     0.775980
      py      :     1.090769
      dz2     :     0.009330  d :     0.051344
      dxz     :     0.010007
      dyz     :     0.007113
      dx2y2   :     0.011732
      dxy     :     0.013162

  8 H s       :     0.889384  s :     0.889384

  9 H s       :     0.897059  s :     0.897059

 10 H s       :     0.894451  s :     0.894451

 11 H s       :     0.916632  s :     0.916632

 12 H s       :     0.911237  s :     0.911237

 13 H s       :     0.901589  s :     0.901589

 14 H s       :     0.905996  s :     0.905996

 15 H s       :     0.907915  s :     0.907915

 16 H s       :     0.893779  s :     0.893779

 17 H s       :     0.881911  s :     0.881911

 18 H s       :     0.880217  s :     0.880217

 19 H s       :     0.879948  s :     0.879948


------------------------
MULLIKEN OVERLAP CHARGES
------------------------
B(  0-C ,  1-C ) :   0.9099 B(  0-C ,  2-C ) :  -0.1281 B(  0-C ,  8-H ) :   0.7655 
B(  0-C ,  9-H ) :   0.7568 B(  0-C , 10-H ) :   0.7296 B(  0-C , 11-H ) :  -0.0582 
B(  1-C ,  2-C ) :   0.8870 B(  1-C ,  3-C ) :  -0.1138 B(  1-C ,  8-H ) :  -0.0522 
B(  1-C ,  9-H ) :  -0.0531 B(  1-C , 11-H ) :   0.7179 B(  1-C , 12-H ) :   0.7019 
B(  2-C ,  3-C ) :   0.8778 B(  2-C ,  4-C ) :  -0.0520 B(  2-C , 13-H ) :   0.7151 
B(  2-C , 14-H ) :   0.6955 B(  3-C ,  4-C ) :   0.6530 B(  3-C ,  5-O ) :  -0.1746 
B(  3-C ,  6-O ) :  -0.2572 B(  3-C , 13-H ) :  -0.0813 B(  3-C , 14-H ) :  -0.0698 
B(  3-C , 15-H ) :   0.5890 B(  3-C , 16-H ) :   0.6243 B(  4-C ,  5-O ) :   1.3601 
B(  4-C ,  6-O ) :   0.7215 B(  4-C ,  7-C ) :  -0.0623 B(  5-O ,  6-O ) :  -0.1783 
B(  6-O ,  7-C ) :   0.5480 B(  6-O , 17-H ) :  -0.0576 B(  6-O , 18-H ) :  -0.0634 
B(  6-O , 19-H ) :  -0.0534 B(  7-C , 17-H ) :   0.7766 B(  7-C , 18-H ) :   0.7569 
B(  7-C , 19-H ) :   0.7579 B(  8-H ,  9-H ) :  -0.0546 B( 11-H , 12-H ) :  -0.0606 
B( 13-H , 14-H ) :  -0.0631 B( 17-H , 18-H ) :  -0.0634 B( 17-H , 19-H ) :  -0.0530 



                     *******************************
                     * LOEWDIN POPULATION ANALYSIS *
                     *******************************

----------------------
LOEWDIN ATOMIC CHARGES
----------------------
   0 C :   -0.343187
   1 C :   -0.233116
   2 C :   -0.218260
   3 C :   -0.242732
   4 C :    0.035067
   5 O :   -0.172002
   6 O :   -0.076762
   7 C :   -0.203502
   8 H :    0.117467
   9 H :    0.119391
  10 H :    0.121222
  11 H :    0.115059
  12 H :    0.118431
  13 H :    0.120925
  14 H :    0.118693
  15 H :    0.130149
  16 H :    0.134335
  17 H :    0.119309
  18 H :    0.119646
  19 H :    0.119868

-------------------------------
LOEWDIN REDUCED ORBITAL CHARGES
-------------------------------
  0 C s       :     2.944378  s :     2.944378
      pz      :     1.119898  p :     3.327966
      px      :     1.103672
      py      :     1.104396
      dz2     :     0.023395  d :     0.070842
      dxz     :     0.007453
      dyz     :     0.007321
      dx2y2   :     0.020810
      dxy     :     0.011862

  1 C s       :     2.906284  s :     2.906284
      pz      :     1.095144  p :     3.237700
      px      :     1.054759
      py      :     1.087797
      dz2     :     0.028187  d :     0.089132
      dxz     :     0.012230
      dyz     :     0.006700
      dx2y2   :     0.020291
      dxy     :     0.021724

  2 C s       :     2.911124  s :     2.911124
      pz      :     1.104211  p :     3.218770
      px      :     1.050554
      py      :     1.064005
      dz2     :     0.026975  d :     0.088367
      dxz     :     0.011327
      dyz     :     0.008193
      dx2y2   :     0.017568
      dxy     :     0.024304

  3 C s       :     2.916450  s :     2.916450
      pz      :     1.098109  p :     3.242887
      px      :     1.049842
      py      :     1.094936
      dz2     :     0.023916  d :     0.083395
      dxz     :     0.011636
      dyz     :     0.009832
      dx2y2   :     0.020848
      dxy     :     0.017162

  4 C s       :     2.847646  s :     2.847646
      pz      :     0.975268  p :     2.820834
      px      :     0.983643
      py      :     0.861923
      dz2     :     0.067581  d :     0.296454
      dxz     :     0.097879
      dyz     :     0.059945
      dx2y2   :     0.036748
      dxy     :     0.034301

  5 O s       :     3.552454  s :     3.552454
      pz      :     1.451907  p :     4.588712
      px      :     1.689523
      py      :     1.447282
      dz2     :     0.011510  d :     0.030836
      dxz     :     0.007361
      dyz     :     0.008704
      dx2y2   :     0.001479
      dxy     :     0.001782

  6 O s       :     3.449484  s :     3.449484
      pz      :     1.647326  p :     4.594163
      px      :     1.320261
      py      :     1.626577
      dz2     :     0.004651  d :     0.033114
      dxz     :     0.010122
      dyz     :     0.005404
      dx2y2   :     0.006695
      dxy     :     0.006242

  7 C s       :     2.966187  s :     2.966187
      pz      :     1.129116  p :     3.124067
      px      :     0.852684
      py      :     1.142267
      dz2     :     0.021578  d :     0.113248
      dxz     :     0.020970
      dyz     :     0.016945
      dx2y2   :     0.024607
      dxy     :     0.029148

  8 H s       :     0.882533  s :     0.882533

  9 H s       :     0.880609  s :     0.880609

 10 H s       :     0.878778  s :     0.878778

 11 H s       :     0.884941  s :     0.884941

 12 H s       :     0.881569  s :     0.881569

 13 H s       :     0.879075  s :     0.879075

 14 H s       :     0.881307  s :     0.881307

 15 H s       :     0.869851  s :     0.869851

 16 H s       :     0.865665  s :     0.865665

 17 H s       :     0.880691  s :     0.880691

 18 H s       :     0.880354  s :     0.880354

 19 H s       :     0.880132  s :     0.880132


---------------------------------
LOEWDIN BOND ORDERS (THRESH 0.050000)
---------------------------------
B(  0-C ,  1-C ) :   1.1323 B(  0-C ,  2-C ) :   0.0517 B(  0-C ,  8-H ) :   0.9388 
B(  0-C ,  9-H ) :   0.9398 B(  0-C , 10-H ) :   0.9386 B(  1-C ,  2-C ) :   1.0969 
B(  1-C ,  3-C ) :   0.0517 B(  1-C , 11-H ) :   0.9070 B(  1-C , 12-H ) :   0.9039 
B(  2-C ,  3-C ) :   1.0673 B(  2-C ,  4-C ) :   0.0713 B(  2-C , 13-H ) :   0.9032 
B(  2-C , 14-H ) :   0.9033 B(  3-C ,  4-C ) :   1.0609 B(  3-C ,  5-O ) :   0.0945 
B(  3-C ,  6-O ) :   0.0714 B(  3-C , 15-H ) :   0.8922 B(  3-C , 16-H ) :   0.8907 
B(  4-C ,  5-O ) :   2.2086 B(  4-C ,  6-O ) :   1.3945 B(  4-C ,  7-C ) :   0.0779 
B(  5-O ,  6-O ) :   0.2081 B(  6-O ,  7-C ) :   1.1091 B(  7-C , 17-H ) :   0.9476 
B(  7-C , 18-H ) :   0.9443 B(  7-C , 19-H ) :   0.9529 

------------------------------------------
LOEWDIN REDUCED ORBITAL POPULATIONS PER MO
-------------------------------------------
THRESHOLD FOR PRINTING IS 0.1%%
                      0         1         2         3         4         5   
                 -18.79825 -18.72932 -10.00247  -9.94090  -9.89578  -9.89406
                   2.00000   2.00000   2.00000   2.00000   2.00000   2.00000
                  --------  --------  --------  --------  --------  --------
 2 C  s               0.0       0.0       0.0       0.0       0.0      99.6
 3 C  s               0.0       0.0       0.0       0.0      99.6       0.0
 4 C  s               0.0       0.0      99.3       0.0       0.0       0.0
 5 O  s               0.0      99.9       0.0       0.0       0.0       0.0
 5 O  pz              0.0       0.0       0.2       0.0       0.0       0.0
 6 O  s              99.9       0.0       0.0       0.0       0.0       0.0
 7 C  s               0.0       0.0       0.0      99.7       0.0       0.0

                      6         7         8         9        10        11   
                  -9.88897  -9.87761  -1.00381  -0.90597  -0.73402  -0.68566
                   2.00000   2.00000   2.00000   2.00000   2.00000   2.00000
                  --------  --------  --------  --------  --------  --------
 0 C  s               0.0      99.7       0.0       0.0       5.6      11.1
 0 C  pz              0.0       0.0       0.0       0.0       0.2       0.1
 0 C  px              0.0       0.0       0.0       0.0       0.8       0.4
 0 C  py              0.1       0.0       0.0       0.0       0.7       0.7
 1 C  s              99.6       0.0       0.0       0.0      14.3      11.9
 1 C  pz              0.0       0.0       0.0       0.0       0.5       0.2
 1 C  px              0.0       0.0       0.0       0.0       1.1       0.5
 1 C  py              0.0       0.1       0.0       0.0       0.3       0.4
 2 C  s               0.0       0.0       0.1       0.0      20.6       0.4
 2 C  pz              0.0       0.0       0.0       0.0       0.5       0.0
 2 C  px              0.1       0.0       0.1       0.0       0.1       4.6
 2 C  py              0.0       0.0       0.0       0.0       1.1       0.5
 3 C  s               0.0       0.0       1.0       0.3      16.3       6.3
 3 C  pz              0.0       0.0       0.1       0.4       0.1       0.0
 3 C  px              0.0       0.0       1.7       0.2       0.3       2.3
 3 C  py              0.0       0.0       0.1       0.0       1.5       0.0
 4 C  s               0.0       0.0      18.2       5.5       1.9       4.5
 4 C  pz              0.0       0.0       0.2      18.9       1.7       4.4
 4 C  px              0.0       0.0       4.4       0.1       4.7       2.6
 4 C  py              0.0       0.0       0.8       5.1       0.1       0.4
 4 C  dz2             0.0       0.0       0.1       0.6       0.0       0.0
 4 C  dxz             0.0       0.0       0.1       0.9       0.0       0.0
 4 C  dyz             0.0       0.0       0.6       0.1       0.0       0.0
 4 C  dxy             0.0       0.0       0.2       0.3       0.0       0.0
 5 O  s               0.0       0.0      10.6      42.5       0.8       1.2
 5 O  pz              0.0       0.0       2.1       3.5       0.1       0.2
 5 O  px              0.0       0.0       0.1       0.6       0.1       0.1
 5 O  py              0.0       0.0       0.4       0.5       0.0       0.0
 6 O  s               0.0       0.0      42.3      14.8       0.1       0.0
 6 O  pz              0.0       0.0       2.6       0.2       0.0       0.1
 6 O  px              0.0       0.0       0.0       0.4       2.1      12.2
 6 O  py              0.0       0.0       0.7       0.1       0.2       1.6
 7 C  s               0.0       0.0       4.9       2.2       1.4      11.5
 7 C  pz              0.0       0.0       0.2       0.4       0.0       0.1
 7 C  px              0.0       0.0       5.2       1.3       0.1       0.2
 7 C  py              0.0       0.0       0.3       0.0       0.0       0.0
 7 C  dx2y2           0.0       0.0       0.3       0.1       0.0       0.0
 8 H  s               0.0       0.1       0.0       0.0       1.2       2.1
 9 H  s               0.0       0.1       0.0       0.0       1.1       2.2
10 H  s               0.0       0.1       0.0       0.0       0.9       2.2
11 H  s               0.1       0.0       0.0       0.0       2.6       2.3
12 H  s               0.1       0.0       0.0       0.0       2.4       2.5
13 H  s               0.0       0.0       0.0       0.0       3.7       0.1
14 H  s               0.0       0.0       0.0       0.0       3.7       0.0
15 H  s               0.0       0.0       0.2       0.0       3.2       1.4
16 H  s               0.0       0.0       0.1       0.1       3.0       0.9
17 H  s               0.0       0.0       0.6       0.2       0.2       2.3
18 H  s               0.0       0.0       0.7       0.1       0.2       2.3
19 H  s               0.0       0.0       0.5       0.3       0.3       2.8

                     12        13        14        15        16        17   
                  -0.64354  -0.58691  -0.51831  -0.50525  -0.45032  -0.43362
                   2.00000   2.00000   2.00000   2.00000   2.00000   2.00000
                  --------  --------  --------  --------  --------  --------
 0 C  s              11.0      13.7       4.1       0.7       0.0       0.0
 0 C  pz              0.0       0.1       2.1       0.6       0.0       1.8
 0 C  px              0.0       0.8       0.8       0.3       0.9       0.2
 0 C  py              0.1       1.2       4.0       0.3       1.7       0.4
 1 C  s               2.7       3.1      10.8       1.2       0.3       0.0
 1 C  pz              0.0       0.0       4.2       1.3       0.3       5.1
 1 C  px              3.7       5.8       1.0       0.1       2.9       0.0
 1 C  py              0.6       3.9       2.2       0.0       3.3       0.6
 2 C  s               4.8       9.7       6.0       2.0       0.1       0.2
 2 C  pz              0.0       0.0       3.3       1.5       2.6       5.1
 2 C  px              2.0       1.5       3.0       0.7       0.5       2.5
 2 C  py              0.5       3.7       0.0       2.0       3.4       0.2
 3 C  s               7.8       7.3       0.3       2.7       0.9       0.1
 3 C  pz              0.1       0.1       1.3       0.6       6.0       1.5
 3 C  px              0.8       1.6       2.6       1.4      13.5       0.3
 3 C  py              0.2       3.2       2.1       3.7       0.5       3.6
 3 C  dxz             0.0       0.0       0.0       0.0       0.2       0.0
 3 C  dx2y2           0.0       0.0       0.1       0.0       0.1       0.0
 4 C  s               0.6       0.9       1.7       2.1       1.8       0.3
 4 C  pz              0.8       0.5       1.6       1.0       0.1       1.9
 4 C  px              3.5       4.5       0.1       0.8      13.8       0.2
 4 C  py              0.7       0.7       0.4       2.7       0.2      10.0
 4 C  dxz             0.2       0.1       0.0       0.0       0.0       0.1
 5 O  s               0.0       0.3       0.4       1.0       0.2       0.6
 5 O  pz              0.1       0.1       0.4       0.5       0.0       2.6
 5 O  px              0.1       0.3       0.0       0.3       6.5       0.0
 5 O  py              0.0       0.0       0.0       0.8       0.0       2.4
 6 O  s               1.0       0.6       1.3       3.9       0.7       0.0
 6 O  pz              0.3       0.1       0.4       6.3       5.7       3.3
 6 O  px              9.7       0.1       2.4      10.8       0.3       2.1
 6 O  py              1.9       0.0       1.8       3.3       5.9      16.6
 7 C  s              17.5       3.3       2.4       4.6       0.0       0.0
 7 C  pz              0.1       0.0       0.9       6.5       5.7       3.9
 7 C  px              0.4       0.8       4.1      10.6       0.0       1.5
 7 C  py              0.1       0.0       0.0       0.0       5.4      14.6
 7 C  dxz             0.0       0.0       0.1       0.3       0.0       0.0
 7 C  dx2y2           0.0       0.0       0.1       0.3       0.0       0.0
 8 H  s               2.3       4.9       2.6       0.2       0.9       0.3
 9 H  s               2.4       4.0       3.2       0.7       0.0       0.5
10 H  s               2.8       4.6       1.5       0.4       0.3       0.3
11 H  s               0.5       0.8       7.1       1.3       0.0       1.9
12 H  s               0.7       1.3       5.9       0.3       2.7       0.4
13 H  s               1.1       2.6       4.8       1.8       0.6       2.5
14 H  s               1.1       3.8       2.3       1.8       0.4       0.3
15 H  s               1.4       2.2       0.8       2.1       3.7       0.6
16 H  s               1.9       3.2       0.0       3.4       1.8       0.8
17 H  s               4.2       1.2       2.2       4.8       1.1       5.7
18 H  s               4.1       1.0       1.8       6.5       0.4       4.3
19 H  s               5.3       1.4       1.0       1.3       3.6       0.1

                     18        19        20        21        22        23   
                  -0.42687  -0.40374  -0.39708  -0.37692  -0.36013  -0.35477
                   2.00000   2.00000   2.00000   2.00000   2.00000   2.00000
                  --------  --------  --------  --------  --------  --------
 0 C  s               0.3       0.1       0.0       0.0       0.0       0.0
 0 C  pz              0.1       3.2       7.4       4.5       5.5       5.0
 0 C  px              1.8       6.7       6.4       1.0       0.4      12.4
 0 C  py              1.4       0.3       5.2       3.0       8.7       2.0
 0 C  dx2y2           0.0       0.0       0.0       0.0       0.0       0.1
 1 C  s               0.4       0.1       0.1       0.0       0.1       0.3
 1 C  pz              1.9       7.1       6.1       0.7       2.1       0.2
 1 C  px              0.6       0.8       2.3       6.2       0.6       2.3
 1 C  py              0.0       0.8      12.1       0.3       0.9       0.5
 2 C  s               0.3       0.1       0.1       0.0       0.2       0.3
 2 C  pz              6.7       1.8       0.0       4.0       2.0       2.2
 2 C  px              1.8       7.1       0.1       2.8       0.3       0.6
 2 C  py              3.7       2.6       3.7       3.8       7.7       0.4
 2 C  dx2y2           0.0       0.0       0.0       0.0       0.0       0.1
 3 C  s               0.1       0.0       1.1       0.2       0.2       0.2
 3 C  pz             11.3       0.3       7.0       4.6       1.5       0.0
 3 C  px              0.8       1.2       0.3       0.3       0.6       8.9
 3 C  py              3.8       1.3       0.9       1.3      10.9       1.4
 3 C  dz2             0.0       0.0       0.1       0.0       0.0       0.0
 3 C  dxz             0.0       0.1       0.0       0.0       0.0       0.1
 3 C  dx2y2           0.0       0.0       0.0       0.0       0.0       0.1
 4 C  s               0.7       0.7       0.8       1.6       0.2       0.2
 4 C  pz              2.0       1.3       0.2       1.9       3.0       0.2
 4 C  px              0.3       0.4       0.1       1.3       0.1       8.6
 4 C  py              0.7       0.4       0.1       3.2       6.0       0.0
 4 C  dz2             0.3       0.2       0.0       0.0       0.0       0.0
 4 C  dxz             0.0       0.0       0.1       0.1       0.0       0.0
 4 C  dyz             0.1       0.1       0.0       0.0       0.0       0.0
 4 C  dx2y2           0.0       0.1       0.0       0.0       0.0       0.0
 4 C  dxy             0.2       0.0       0.0       0.0       0.0       0.0
 5 O  s               4.8       4.9       1.1       6.3       0.8       0.5
 5 O  pz              3.2       7.5       1.8      23.3       0.9       3.5
 5 O  px              1.0       1.0       1.7       0.8       0.3       1.7
 5 O  py              2.9       1.2       0.3       0.4       9.5       0.6
 5 O  dz2             0.0       0.0       0.0       0.2       0.0       0.0
 6 O  s               0.4       1.0       0.1       0.4       0.2       0.1
 6 O  pz             11.9       3.0       0.9       0.4       0.4       0.5
 6 O  px              1.1      10.2       0.5       0.3       0.1       0.9
 6 O  py              1.4       1.0       0.3       0.0       0.1       0.9
 7 C  s               0.1       0.1       0.0       0.0       0.0       0.0
 7 C  pz              6.6       0.4       5.2       0.9       6.3       6.8
 7 C  px              4.3       3.4       2.3       0.3       0.6       1.8
 7 C  py              0.5       9.3       0.0       9.1       3.0       5.5
 7 C  dxz             0.0       0.0       0.0       0.0       0.0       0.1
 7 C  dyz             0.0       0.0       0.1       0.0       0.1       0.2
 7 C  dxy             0.0       0.0       0.0       0.1       0.0       0.1
 8 H  s               0.5       0.0       4.6       1.0       5.3       1.6
 9 H  s               0.0       0.9       3.6       2.1       2.9       2.6
10 H  s               1.1       4.1       1.4       1.3       0.7       9.1
11 H  s               0.3       2.1       3.7       0.4       0.6       0.0
12 H  s               0.4       0.1       6.6       0.1       0.0       0.3
13 H  s               1.4       0.6       0.0       1.3       1.6       1.7
14 H  s               4.6       3.7       1.0       1.2       2.0       0.0
15 H  s               3.8       0.2       5.7       1.5       0.9       0.1
16 H  s               4.2       0.8       0.1       0.1       4.3       3.0
17 H  s               1.5       0.9       0.4       4.3       1.7       1.3
18 H  s               2.0       0.5       1.8       0.0       4.9       1.4
19 H  s               2.3       5.3       2.2       2.9       0.5       8.8

                     24        25        26        27        28        29   
                  -0.33662  -0.32228  -0.30576  -0.29429  -0.29207  -0.28645
                   2.00000   2.00000   2.00000   2.00000   2.00000   2.00000
                  --------  --------  --------  --------  --------  --------
 0 C  s               0.1       0.0       0.0       0.3       0.1       0.1
 0 C  pz              6.0       9.2       1.4       7.4       1.3       0.1
 0 C  px              0.9       5.2       5.8       1.7       7.6       0.9
 0 C  py              8.0       2.6       0.2       2.5       4.7       7.3
 0 C  dz2             0.0       0.2       0.1       0.3       0.2       0.1
 0 C  dx2y2           0.0       0.2       0.2       0.0       0.1       0.4
 0 C  dxy             0.1       0.0       0.0       0.0       0.0       0.1
 1 C  s               0.0       0.0       0.0       0.1       0.1       0.0
 1 C  pz              1.4       3.1       1.3      16.4       2.2       0.5
 1 C  px              1.9       2.4       4.1       0.4      10.9       4.1
 1 C  py             12.2       0.1       0.1       1.0       3.1      11.7
 1 C  dz2             0.0       0.1       0.0       0.9       0.1       0.2
 1 C  dxz             0.0       0.0       0.1       0.0       0.2       0.0
 1 C  dx2y2           0.0       0.2       0.2       0.0       0.1       0.3
 1 C  dxy             0.1       0.0       0.0       0.1       0.1       0.5
 2 C  s               0.3       0.3       0.2       0.1       0.3       0.0
 2 C  pz              2.7       7.0       0.4      14.8       0.3       0.0
 2 C  px              0.1       0.1       6.5       0.2      13.1       3.9
 2 C  py              1.1       4.6       0.1       1.1       4.5       7.9
 2 C  dz2             0.1       0.1       0.0       0.9       0.0       0.0
 2 C  dx2y2           0.0       0.0       0.0       0.0       0.3       0.0
 2 C  dxy             0.0       0.0       0.0       0.1       0.3       0.4
 3 C  s               0.0       0.0       0.3       0.1       0.1       0.2
 3 C  pz              4.1      10.0       0.5       3.0       0.0       0.3
 3 C  px              2.8       1.5       1.0       0.4       2.4       3.0
 3 C  py              4.8       1.8       0.6       0.0       2.6       9.9
 3 C  dz2             0.1       0.4       0.0       0.3       0.0       0.0
 3 C  dx2y2           0.1       0.0       0.0       0.0       0.3       0.0
 3 C  dxy             0.2       0.1       0.0       0.0       0.1       0.1
 4 C  s               0.1       0.0       0.1       0.0       0.6       0.2
 4 C  pz              1.6       1.1       3.6       0.2       1.2       0.6
 4 C  px              0.1       0.1       0.1       0.0       1.6       0.7
 4 C  py              5.7       3.6       0.4       0.1       0.3       0.7
 4 C  dz2             0.0       0.1       0.6       0.1       0.1       0.0
 4 C  dxz             0.1       0.2       0.0       0.0       0.0       0.0
 4 C  dyz             0.0       0.1       0.1       0.0       0.1       0.1
 4 C  dx2y2           0.0       0.0       0.3       0.0       0.1       0.0
 4 C  dxy             0.2       0.0       0.0       0.0       0.0       0.4
 5 O  s               0.0       0.0       1.0       0.1       0.4       0.2
 5 O  pz              2.9       0.3       3.1       0.1       3.4       4.2
 5 O  px              0.3       0.1       6.2       0.1       0.0       0.6
 5 O  py              4.5       8.3       2.3       1.2       0.1       0.3
 6 O  s               0.1       0.2       3.6       0.0       1.1       0.5
 6 O  pz              0.6       0.7      16.5       1.0       5.6       7.7
 6 O  px              1.7       0.0       4.9       0.0       2.1       0.1
 6 O  py              0.9       1.5       4.8       0.0       1.1       0.5
 7 C  s               0.0       0.0       0.1       0.0       0.1       0.0
 7 C  pz              2.1       1.2       5.8       0.1       1.1       1.6
 7 C  px              2.0       0.0       1.5       0.0       1.0       0.1
 7 C  py              2.4       1.8       2.0       0.0       0.1       0.3
 7 C  dxz             0.0       0.0       0.1       0.0       0.0       0.0
 7 C  dyz             0.0       0.0       0.1       0.0       0.0       0.0
 7 C  dxy             0.1       0.0       0.3       0.0       0.1       0.0
 8 H  s               2.0       6.5       0.7       0.1       0.7       6.6
 9 H  s               2.6       6.0       1.2       5.6       1.9       0.4
10 H  s               0.1       1.1       5.4       0.0       5.3       1.3
11 H  s               0.3       1.9       0.9      14.3       1.5       1.4
12 H  s               3.1       1.3       0.7       0.1       0.4      14.2
13 H  s               2.2       3.6       0.0      13.4       0.1       0.3
14 H  s               0.6       0.1       0.5       5.4       9.2       1.7
15 H  s               2.1       8.0       0.3       3.8       0.1       0.1
16 H  s               8.6       0.1       0.1       1.7       3.8       1.0
17 H  s               2.5       1.0       2.7       0.0       0.4       0.2
18 H  s               2.4       1.5       2.1       0.2       0.5       1.6
19 H  s               0.2       0.0       4.2       0.1       0.4       0.2

                     30        31        32        33        34        35   
                  -0.25555  -0.21364  -0.01727   0.03703   0.05638   0.06765
                   2.00000   2.00000   0.00000   0.00000   0.00000   0.00000
                  --------  --------  --------  --------  --------  --------
 0 C  s               0.0       0.0       0.0       8.0       3.2       3.2
 0 C  pz              0.0       0.0       0.0       0.2       0.2       0.1
 0 C  px              0.0       0.0       0.0       0.8       0.2       1.0
 0 C  py              0.2       0.0       0.1       1.0       0.4       2.7
 0 C  dyz             0.0       0.0       0.0       0.1       0.0       0.0
 0 C  dx2y2           0.0       0.0       0.0       0.1       0.0       0.3
 1 C  s               0.0       0.1       0.1       6.2       0.8       5.1
 1 C  pz              0.0       0.0       0.3       1.3       0.0       0.1
 1 C  px              0.0       0.8       0.7       0.4       0.1       0.7
 1 C  py              0.1       0.1       0.0       1.3       0.2       1.8
 1 C  dx2y2           0.0       0.0       0.0       0.0       0.0       0.5
 1 C  dxy             0.0       0.0       0.0       0.2       0.0       0.0
 2 C  s               0.0       0.0       1.7       4.0       0.1       2.8
 2 C  pz              0.4       0.0       0.3       0.7       0.2       0.7
 2 C  px              0.0       0.6       0.9       0.4       0.3       1.3
 2 C  py              0.4       0.1       2.0       1.7       0.4       1.0
 2 C  dz2             0.0       0.0       0.1       0.0       0.0       0.1
 2 C  dxz             0.0       0.0       0.0       0.1       0.1       0.0
 2 C  dx2y2           0.0       0.0       0.1       0.0       0.0       0.6
 2 C  dxy             0.0       0.0       0.0       0.1       0.0       0.0
 3 C  s               0.0       0.6       0.1       3.5       0.1       3.5
 3 C  pz              0.1       1.9       0.1       0.3       0.2       1.0
 3 C  px              0.0       4.6       0.4       0.1       0.4       1.4
 3 C  py              0.2       0.2       0.4       1.0       0.4       2.6
 3 C  dz2             0.0       0.1       0.4       0.0       0.1       0.2
 3 C  dxz             0.0       0.0       0.2       0.0       0.0       0.0
 3 C  dyz             0.0       0.0       0.0       0.1       0.1       0.0
 3 C  dx2y2           0.0       0.0       0.0       0.2       0.0       0.3
 3 C  dxy             0.0       0.0       1.5       0.0       0.0       0.0
 4 C  s               0.0       0.4       0.0       0.5       1.3       0.3
 4 C  pz              0.1       0.5       9.2       0.4       0.5       0.1
 4 C  px              0.1       0.9       3.3       0.7       0.2       0.4
 4 C  py              0.5       0.2      33.5       0.3       0.0       0.0
 4 C  dz2             1.0       0.2       0.3       0.0       0.1       0.0
 4 C  dxz             0.3       2.7       0.0       0.0       0.2       0.0
 4 C  dyz             0.7       0.8       0.4       0.1       0.2       0.0
 4 C  dx2y2           0.5       0.5       0.0       0.1       0.0       0.1
 4 C  dxy             0.0       0.3       0.4       0.1       0.0       0.1
 5 O  s               0.0       0.0       0.0       0.2       0.6       0.1
 5 O  pz              7.2       1.6       5.2       0.1       0.1       0.0
 5 O  px              2.6      60.0       2.1       0.0       0.3       0.2
 5 O  py             25.7      10.5      19.2       0.1       0.3       0.1
 5 O  dz2             0.0       0.0       0.3       0.0       0.0       0.0
 5 O  dyz             0.0       0.0       0.2       0.0       0.0       0.0
 6 O  s               0.0       0.3       0.0       1.4       0.6       0.5
 6 O  pz              8.5       5.8       1.8       0.0       0.1       0.1
 6 O  px              3.6       0.2       0.7       0.2       0.3       0.1
 6 O  py             34.2       2.3       7.3       0.0       0.0       0.1
 6 O  dx2y2           0.0       0.0       0.2       0.0       0.1       0.0
 6 O  dxy             0.0       0.0       0.1       0.0       0.0       0.0
 7 C  s               0.0       0.2       0.0       0.4      19.4       0.3
 7 C  pz              0.5       0.1       0.0       0.3       0.3       0.2
 7 C  px              0.2       0.7       0.0       3.3       4.8       1.6
 7 C  py              2.5       0.2       0.1       0.1       0.1       0.0
 7 C  dz2             0.3       0.0       0.1       0.0       0.0       0.0
 7 C  dyz             0.1       0.0       0.1       0.0       0.0       0.0
 7 C  dx2y2           0.0       0.0       0.0       0.2       0.1       0.1
 7 C  dxy             0.6       0.0       0.2       0.0       0.0       0.0
 8 H  s               0.0       0.0       0.2       5.3       2.4      13.9
 9 H  s               0.0       0.0       0.0       5.8       2.9       1.2
10 H  s               0.0       0.1       0.1       7.5       2.3       0.1
11 H  s               0.1       0.0       0.2       7.5       0.4       2.7
12 H  s               0.1       0.3       0.2       8.6       0.7      14.0
13 H  s               0.3       0.2       0.1       5.3       0.1       0.1
14 H  s               0.4       0.0       0.1       7.2       1.6      11.6
15 H  s               0.0       1.2       1.7       4.7       1.0       0.2
16 H  s               0.2       0.2       1.2       4.5       1.1      18.5
17 H  s               4.6       0.1       1.1       1.2      17.8       1.3
18 H  s               3.4       0.2       0.6       0.9      14.7       0.3
19 H  s               0.1       0.0       0.0       0.9      17.7       0.2

                     36        37        38        39        40        41   
                   0.07045   0.08327   0.09526   0.10120   0.11394   0.11564
                   0.00000   0.00000   0.00000   0.00000   0.00000   0.00000
                  --------  --------  --------  --------  --------  --------
 0 C  s               1.1       3.7       2.7       0.4       0.0       0.4
 0 C  pz              3.6       0.1       4.4       0.1       1.8       0.5
 0 C  px              0.1       1.2       2.1       0.2       0.6       4.9
 0 C  py              0.3       0.2       0.3       0.1       0.1       2.6
 0 C  dz2             0.3       0.0       0.1       0.0       0.2       0.0
 0 C  dyz             0.0       0.0       0.1       0.0       0.1       0.4
 0 C  dx2y2           0.0       0.0       0.1       0.0       0.1       0.5
 1 C  s               0.3       1.2       0.1       0.0       1.1       4.1
 1 C  pz              5.4       1.0       0.0       0.1       0.2       2.9
 1 C  px              0.1       0.1       0.3       0.2       0.0       0.5
 1 C  py              1.2       0.1       1.1       0.0       0.1       0.4
 1 C  dz2             0.4       0.1       0.1       0.0       0.0       0.1
 1 C  dxz             0.0       0.0       0.3       0.1       0.0       0.0
 1 C  dyz             0.1       0.1       0.0       0.0       0.2       0.2
 1 C  dx2y2           0.0       0.0       0.0       0.0       0.0       0.3
 1 C  dxy             0.0       0.0       0.4       0.0       0.1       0.2
 2 C  s               1.3       2.2       3.1       0.1       0.1       0.1
 2 C  pz              4.0       0.1       5.4       0.2       0.1       0.1
 2 C  px              0.0       0.3       0.1       0.5       0.2       1.0
 2 C  py              0.2       2.2       0.0       0.1       2.9       1.7
 2 C  dz2             0.2       0.1       0.3       0.0       0.0       0.0
 2 C  dxz             0.0       0.0       0.0       0.0       0.0       0.4
 2 C  dyz             0.3       0.0       0.2       0.0       0.2       0.3
 2 C  dx2y2           0.0       0.0       0.0       0.0       0.1       0.2
 2 C  dxy             0.0       0.1       0.3       0.0       0.2       0.3
 3 C  s               3.1       1.6       0.8       0.6       1.1       3.3
 3 C  pz              5.9       0.1       3.6       0.0       0.2       1.3
 3 C  px              0.2       0.7       1.2       0.1       1.6       1.9
 3 C  py              0.1       0.0       0.8       0.2       0.3       0.4
 3 C  dz2             0.2       0.0       0.4       0.0       0.0       0.2
 3 C  dxz             0.1       0.1       0.0       0.1       0.1       0.2
 3 C  dyz             0.1       0.0       0.3       0.0       0.0       0.1
 3 C  dx2y2           0.0       0.0       0.1       0.0       0.0       0.2
 3 C  dxy             0.0       0.0       0.1       0.0       0.2       0.1
 4 C  s               0.1       1.0       0.8       1.5       0.1       0.8
 4 C  pz              0.1       0.6       0.9       0.1       0.1       0.7
 4 C  px              0.2       0.6       0.0       0.1       0.3       0.2
 4 C  py              0.3       0.2       1.2       0.0       0.8       0.2
 4 C  dz2             0.0       0.2       0.2       0.1       0.1       0.1
 4 C  dyz             0.0       0.0       0.0       0.3       0.0       0.1
 4 C  dx2y2           0.0       0.4       0.4       0.1       0.0       0.0
 4 C  dxy             0.0       0.3       0.1       0.0       0.1       0.0
 5 O  s               0.0       0.1       0.1       0.2       0.0       0.0
 5 O  pz              0.1       0.0       0.0       0.1       0.1       0.0
 5 O  px              0.0       0.2       0.8       0.3       0.0       0.2
 5 O  py              0.2       0.0       0.2       0.0       0.0       0.1
 6 O  s               0.0       7.5       2.3       0.1       0.6       0.2
 6 O  pz              0.1       1.2       0.7       0.1       0.7       0.0
 6 O  px              0.1       4.5       0.9       1.6       1.0       0.8
 6 O  py              0.0       0.1       0.1       0.0       0.8       0.2
 6 O  dz2             0.0       0.1       0.1       0.0       0.0       0.0
 6 O  dxz             0.0       0.0       0.0       0.4       0.0       0.0
 6 O  dx2y2           0.0       0.3       0.1       0.0       0.0       0.1
 6 O  dxy             0.0       0.1       0.1       0.1       0.2       0.0
 7 C  s               0.8       9.2       0.1       0.1       0.3       0.0
 7 C  pz              0.3       2.3       2.6      12.8       2.2       2.5
 7 C  px              0.1      18.3       6.1       4.5       9.3       0.8
 7 C  py              0.0       0.6       0.0       9.3      11.4       4.3
 7 C  dz2             0.0       0.5       0.3       0.1       0.2       0.5
 7 C  dxz             0.0       0.6       0.1       0.3       0.0       0.1
 7 C  dyz             0.0       0.0       0.1       1.0       0.1       0.0
 7 C  dx2y2           0.0       1.9       0.7       0.2       1.0       0.1
 7 C  dxy             0.0       0.3       0.2       0.2       0.4       0.0
 8 H  s               0.7       1.8       0.6       0.1       0.0       5.1
 9 H  s              11.3       1.7       2.6       0.9       2.4       0.1
10 H  s               0.1       5.4      16.4       0.8       3.2      15.0
11 H  s              15.2       4.5       0.3       0.2       1.5      15.0
12 H  s               3.0       0.6       1.5       0.1       0.7       0.6
13 H  s              13.8       2.3      17.4       0.5       0.0       0.2
14 H  s               0.2       7.7       0.3       0.0       3.6       0.7
15 H  s              21.1       0.2       8.8       0.4       0.0       7.3
16 H  s               0.2       1.4       0.6       0.1       2.4       1.0
17 H  s               0.3       2.7       0.4       7.6      26.2       4.6
18 H  s               2.3       1.2       2.0      10.1      17.2       8.4
19 H  s               0.1       3.4       0.8      42.4       0.5       0.2

                     42        43        44        45        46        47   
                   0.12313   0.12583   0.13284   0.14930   0.18017   0.20349
                   0.00000   0.00000   0.00000   0.00000   0.00000   0.00000
                  --------  --------  --------  --------  --------  --------
 0 C  s               4.8       0.0       2.0       0.6       0.1       1.0
 0 C  pz              5.2       1.8       0.4       5.1       0.7       2.4
 0 C  px              0.4       1.5       9.7       1.3       2.2       6.0
 0 C  py              1.9       0.2       2.5       0.7       6.6       7.7
 0 C  dz2             0.2       0.3       0.0       0.5       0.0       0.5
 0 C  dxz             0.0       0.4       0.9       0.1       0.0       0.9
 0 C  dyz             0.1       0.0       0.0       0.1       0.0       0.4
 0 C  dx2y2           0.2       0.0       0.2       0.1       0.0       0.0
 0 C  dxy             0.4       0.0       0.1       0.0       1.7       2.6
 1 C  s               2.6       0.2       2.2       2.3       1.3       5.2
 1 C  pz              0.8       1.3       0.9       0.8      10.3       5.3
 1 C  px              3.0       1.2       0.0       1.2       0.2       0.2
 1 C  py              2.3       5.0       2.6       0.8       2.3       9.0
 1 C  dz2             0.0       0.5       0.0       0.0       0.3       1.0
 1 C  dxz             0.5       0.0       0.0       1.2       0.0       0.1
 1 C  dyz             0.1       0.5       0.2       0.0       0.5       1.7
 1 C  dx2y2           0.0       0.0       0.0       0.0       0.1       0.5
 1 C  dxy             0.0       0.0       0.5       0.1       0.7       0.3
 2 C  s               0.0       5.1       0.5       2.2       0.2       4.9
 2 C  pz              0.4       0.1       3.6       4.0       0.2       0.6
 2 C  px              1.0       2.5       1.3       5.0       8.1       1.4
 2 C  py              0.3       0.9       3.6       0.5       2.2       5.0
 2 C  dz2             0.4       0.0       0.2       0.0       0.1       0.6
 2 C  dxz             0.0       0.7       0.1       0.7       0.0       0.0
 2 C  dyz             0.2       0.0       0.0       0.1       0.0       0.7
 2 C  dx2y2           0.1       0.0       0.0       0.1       2.0       0.4
 2 C  dxy             0.0       0.1       0.3       0.0       0.7       0.3
 3 C  s               0.8       2.4       0.0       0.2       0.8       1.5
 3 C  pz              2.7       3.2       0.3       1.2       5.3       1.7
 3 C  px              1.4       0.2       1.0       4.4       1.9       0.6
[...]
 2 C  px              1.3       2.9       0.2       0.0       0.0       0.0
 2 C  py              0.0       0.5       0.1       0.0       0.0       0.0
 2 C  dz2             0.2       0.1       0.0       0.1       0.0       0.0
 2 C  dxz             2.8       5.2       0.4       0.0       0.1       0.1
 2 C  dyz             0.1       0.1       0.2       0.0       0.3       0.0
 2 C  dx2y2           6.6       6.9       0.7       0.0       0.7       0.0
 2 C  dxy             0.4       7.3       0.5       0.1       0.0       0.1
 3 C  s               0.2       0.1       0.0       0.0       0.0       0.4
 3 C  pz              0.3       0.0       0.0       0.1       0.0       0.0
 3 C  px              0.2       2.3       0.2       0.1       0.1       0.2
 3 C  py              0.1       0.5       0.1       0.0       0.0       0.0
 3 C  dz2             0.0       0.1       0.3       0.6       0.7       0.5
 3 C  dxz             0.3       4.4       0.3       2.4       0.5       0.0
 3 C  dyz             0.0       0.6       0.0       0.2       0.2       0.0
 3 C  dx2y2           0.0       6.7       0.2       0.1       0.0       0.9
 3 C  dxy             1.9       5.3       1.4       0.6       1.1       0.3
 4 C  s               0.2       1.6       0.1       0.2       0.1       1.0
 4 C  pz              0.2       0.1       0.0       0.3       0.1       1.6
 4 C  px              0.0       1.5       0.1       0.2       0.1       0.7
 4 C  py              0.1       0.0       0.1       0.0       0.8       0.8
 4 C  dz2             0.1       0.0       0.1       4.1       0.0       0.0
 4 C  dxz             0.0       0.9       0.1       1.9       3.6       3.8
 4 C  dyz             0.2       1.0       0.0       0.0       0.1       0.2
 4 C  dx2y2           0.3       2.0       0.7       1.4       5.3       1.8
 4 C  dxy             0.6       0.2       0.3       5.5       4.9       0.0
 5 O  s               0.0       0.0       0.0       1.2       0.0       0.4
 5 O  pz              0.0       0.1       0.0       0.3       0.1       0.3
 5 O  px              0.0       0.0       0.0       0.5       0.0       0.5
 5 O  py              0.0       0.0       0.0       0.0       0.2       0.0
 5 O  dz2             0.5       1.2       3.0       0.6       7.1       0.1
 5 O  dxz             0.5       0.0       0.1      10.3       2.1      18.1
 5 O  dyz            10.6       1.7       2.7       0.2       3.2       1.9
 5 O  dx2y2          26.0       9.3       0.6       5.4       9.3       2.8
 5 O  dxy            25.5       4.1       2.9       0.3       1.2       2.1
 6 O  s               0.1       0.0       0.0       0.6       0.0       7.7
 6 O  pz              0.4       0.0       0.2       0.9       0.0       0.8
 6 O  px              0.0       0.0       0.1       1.6       0.3       0.1
 6 O  py              0.0       0.2       0.5       0.0       0.5       0.2
 6 O  dz2             3.5       0.0      13.5      16.8      11.4       0.3
 6 O  dxz             0.1       1.5       4.0      16.9      12.7       0.7
 6 O  dyz             0.5       8.7      12.9       9.6      11.9      11.5
 6 O  dx2y2           0.4       0.3       3.5       8.8      15.0      18.9
 6 O  dxy             0.2       1.6      37.9       0.5       4.6      16.7
 7 C  s               0.1       0.0       0.0       0.6       0.0       0.5
 7 C  pz              0.1       0.0       0.1       0.0       0.0       0.1
 7 C  px              0.1       0.0       0.0       0.7       0.0       0.8
 7 C  py              0.1       0.0       0.3       0.1       0.0       0.0
 7 C  dz2             0.0       0.0       0.5       1.1       0.5       0.1
 7 C  dxz             0.4       0.0       1.3       0.6       0.0       1.4
 7 C  dyz             0.3       0.0       1.0       0.0       0.3       0.0
 7 C  dx2y2           0.0       0.0       2.3       1.5       0.0       1.4
 7 C  dxy             0.1       1.2       5.7       2.5       0.1       0.1
10 H  s               0.0       0.1       0.0       0.0       0.0       0.0

                    132       133       134       135   
                   3.11494   3.31516   3.48574   3.55562
                   0.00000   0.00000   0.00000   0.00000
                  --------  --------  --------  --------
 2 C  dx2y2           0.1       0.0       0.0       0.0
 3 C  s               0.0       0.2       0.1       0.1
 3 C  px              0.0       0.1       0.4       0.1
 3 C  dz2             0.1       0.0       0.6       0.0
 3 C  dxz             0.1       0.5       0.0       0.4
 3 C  dx2y2           0.2       0.1       0.7       0.1
 3 C  dxy             0.5       0.1       0.3       0.1
 4 C  s               0.0       3.6       0.1       6.2
 4 C  pz              0.1       0.1       3.0       2.9
 4 C  px              0.0       1.5       0.2       0.8
 4 C  py              0.3       0.1       1.0       0.4
 4 C  dz2             9.4       2.5       0.1       6.4
 4 C  dxz             0.7       0.1      13.6       0.1
 4 C  dyz             7.2       0.5       2.2       5.5
 4 C  dx2y2           2.3       3.0       1.3       1.3
 4 C  dxy             1.0       1.0       2.8       0.0
 5 O  s               0.0       1.6       1.1       4.0
 5 O  pz              0.2       0.6       0.8       2.2
 5 O  px              0.1       0.1       0.2       0.9
 5 O  py              0.7       0.2       0.3       0.2
 5 O  dz2            26.9       7.2      11.8      16.0
 5 O  dxz             0.4       0.7       3.1      24.9
 5 O  dyz            22.4      10.0      11.3       8.0
 5 O  dx2y2           2.0       1.0       3.9       0.4
 5 O  dxy             9.4       0.1       0.0       3.5
 6 O  s               0.0       0.0       0.7       0.4
 6 O  pz              0.0       0.3       0.4       0.1
 6 O  px              0.0       1.8       2.5       0.2
 6 O  py              0.0       0.5       0.6       0.0
 6 O  dz2             0.7      15.5       0.0       3.8
 6 O  dxz             3.6      11.0      21.1       1.8
 6 O  dyz             0.0       9.7       6.1       0.0
 6 O  dx2y2           4.9      17.4       0.2       3.8
 6 O  dxy             5.6       0.5       7.7       4.5
 7 C  s               0.0       1.0       0.3       0.0
 7 C  pz              0.0       0.2       0.0       0.0
 7 C  px              0.0       1.5       0.3       0.1
 7 C  dz2             0.2       0.6       0.4       0.0
 7 C  dxz             0.0       1.8       0.0       0.5
 7 C  dyz             0.2       0.1       0.0       0.0
 7 C  dx2y2           0.1       2.7       0.3       0.1
 7 C  dxy             0.4       0.2       0.2       0.0


                      *****************************
                      * MAYER POPULATION ANALYSIS *
                      *****************************

  NA   - Mulliken gross atomic population
  ZA   - Total nuclear charge
  QA   - Mulliken gross atomic charge
  VA   - Mayer's total valence
  BVA  - Mayer's bonded valence
  FA   - Mayer's free valence

  ATOM       NA         ZA         QA         VA         BVA        FA
  0 C      6.2975     6.0000    -0.2975     4.0232     4.0232     0.0000
  1 C      6.1424     6.0000    -0.1424     4.1338     4.1338    -0.0000
  2 C      6.2162     6.0000    -0.2162     4.1546     4.1546     0.0000
  3 C      6.1216     6.0000    -0.1216     3.9311     3.9311     0.0000
  4 C      5.8968     6.0000     0.1032     4.4203     4.4203     0.0000
  5 O      8.2134     8.0000    -0.2134     2.2758     2.2758     0.0000
  6 O      8.2445     8.0000    -0.2445     2.2549     2.2549     0.0000
  7 C      6.1075     6.0000    -0.1075     3.8824     3.8824    -0.0000
  8 H      0.8894     1.0000     0.1106     0.9557     0.9557    -0.0000
  9 H      0.8971     1.0000     0.1029     0.9569     0.9569    -0.0000
 10 H      0.8945     1.0000     0.1055     0.9494     0.9494     0.0000
 11 H      0.9166     1.0000     0.0834     0.9501     0.9501    -0.0000
 12 H      0.9112     1.0000     0.0888     0.9431     0.9431    -0.0000
 13 H      0.9016     1.0000     0.0984     0.9523     0.9523     0.0000
 14 H      0.9060     1.0000     0.0940     0.9497     0.9497     0.0000
 15 H      0.9079     1.0000     0.0921     0.9676     0.9676     0.0000
 16 H      0.8938     1.0000     0.1062     0.9740     0.9740    -0.0000
 17 H      0.8819     1.0000     0.1181     0.9605     0.9605    -0.0000
 18 H      0.8802     1.0000     0.1198     0.9701     0.9701     0.0000
 19 H      0.8799     1.0000     0.1201     0.9556     0.9556    -0.0000

  Mayer bond orders larger than 0.100000
B(  0-C ,  1-C ) :   1.1524 B(  0-C ,  8-H ) :   0.9516 B(  0-C ,  9-H ) :   0.9544 
B(  0-C , 10-H ) :   0.9515 B(  1-C ,  2-C ) :   1.1251 B(  1-C , 11-H ) :   0.9241 
B(  1-C , 12-H ) :   0.9251 B(  2-C ,  3-C ) :   1.1260 B(  2-C , 13-H ) :   0.9214 
B(  2-C , 14-H ) :   0.9219 B(  3-C ,  4-C ) :   1.0283 B(  3-C , 15-H ) :   0.8984 
B(  3-C , 16-H ) :   0.8958 B(  4-C ,  5-O ) :   2.0599 B(  4-C ,  6-O ) :   1.2060 
B(  6-O ,  7-C ) :   0.9400 B(  7-C , 17-H ) :   0.9554 B(  7-C , 18-H ) :   0.9482 
B(  7-C , 19-H ) :   0.9591 

-------
TIMINGS
-------

Total SCF time: 0 days 0 hours 0 min 7 sec 

Total time                  ....       7.892 sec
Sum of individual times     ....       7.416 sec  ( 94.0%)

SCF preparation             ....       0.183 sec  (  2.3%)
Fock matrix formation       ....       6.412 sec  ( 81.2%)
  Startup                   ....       0.055 sec  (  0.9% of F)
  Split-RI-J                ....       2.183 sec  ( 34.0% of F)
  XC integration            ....       3.675 sec  ( 57.3% of F)
    XC Preparation          ....       0.000 sec  (  0.0% of XC)
    Basis function eval.    ....       1.337 sec  ( 36.4% of XC)
    Density eval.           ....       0.454 sec  ( 12.4% of XC)
    XC-Functional eval.     ....       0.356 sec  (  9.7% of XC)
    XC-Potential eval.      ....       0.720 sec  ( 19.6% of XC)
Diagonalization             ....       0.000 sec  (  0.0%)
Density matrix formation    ....       0.183 sec  (  2.3%)
Total Energy calculation    ....       0.036 sec  (  0.5%)
Population analysis         ....       0.070 sec  (  0.9%)
Orbital Transformation      ....       0.044 sec  (  0.6%)
Orbital Orthonormalization  ....       0.000 sec  (  0.0%)
DIIS solution               ....       0.319 sec  (  4.0%)
  MO trafo                  ....       0.000 sec  (  0.0 % of DIIS)
  Orb grad                  ....       0.000 sec  (  0.0 % of DIIS)
  Energy W gradient         ....       0.000 sec  (  0.0 % of DIIS)
  DIIS error                ....       0.003 sec  (  0.9 % of DIIS)
  DIIS work                 ....       0.276 sec  ( 86.6 % of DIIS)
  Form Q                    ....       0.000 sec  (  0.0 % of DIIS)
  Form QpQm                 ....       0.000 sec  (  0.0 % of DIIS)
  Exp/Cayley                ....       0.000 sec  (  0.0 % of DIIS)
  Orb update                ....       0.000 sec  (  0.0 % of DIIS)
  Wake-sleep                ....       0.016 sec  (  5.1 % of DIIS)
SOSCF solution              ....       0.168 sec  (  2.1%)
  MO trafo                  ....       0.052 sec  ( 30.9 % of SOSCF)
  Orb grad                  ....       0.003 sec  (  1.8 % of SOSCF)
  Rot update                ....       0.077 sec  ( 46.0 % of SOSCF)
  Step                      ....       0.036 sec  ( 21.3 % of SOSCF)
Finished LeanSCF after   8.0 sec

Maximum memory used throughout the entire LEANSCF-calculation: 12.5 MB


-------------------------------------------------------------------------------
                          DFT DISPERSION CORRECTION                            
                                                                               
                                DFTD4 V3.4.0                                   
-------------------------------------------------------------------------------
The PBE functional is recognized
Active option DFTDOPT                   ...         5   

-------------------------   ----------------
Dispersion correction           -0.014921735
-------------------------   ----------------

------------------   -----------------
gCP correction             0.089746260
------------------   -----------------

-------------------------   --------------------
FINAL SINGLE POINT ENERGY      -385.451774891558
-------------------------   --------------------


------------------------------------------------------------------------------
                              ORCA PROPERTY CALCULATIONS
------------------------------------------------------------------------------

GBWName                                 ... sp.gbw
Number of atoms                         ...     20
Number of basis functions               ...    136
Max core memory                         ...   1024 MB

Electric properties:
Dipole moment                           ... YES
Quadrupole moment                       ...  NO
Static polarizability (Dipole/Dipole)   ...  NO
Static polarizability (Dipole/Quad.)    ...  NO
Static polarizability (Quad./Quad.)     ...  NO
Static polarizability (Velocity)        ...  NO

Atomic electric properties:
Dipole moment                           ...  NO
Quadrupole moment                       ...  NO
Static polarizability                   ...  NO

Choice of electric origin               ... Center of mass
Position of electric origin             ...    -0.000036    -0.000008     0.000007

General magnetic properties:
Magnetizability                         ...  NO

EPR properties:
g-Tensor (aka g-matrix)                 ...  NO
Zero-Field splitting spin-orbit         ...  NO
Zero-field splitting spin-spin          ...  NO
Hyperfine couplings                     ...  NO (   0 nuclei)
Quadrupole couplings                    ...  NO (   0 nuclei)
Contact density                         ...  NO (   0 nuclei)

NMR properties:
Chemical shifts                         ...  NO (   0 nuclei)
Spin-rotation constants                 ...  NO (   0 nuclei)
Spin-spin couplings                     ...  NO (   0 nuclei,    0 pairs)

Choice of magnetic origin               ... GIAO
Position of magnetic origin             ...     0.000000     0.000000     0.000000

Properties with geometric perturbations:
SCF Hessian                             ...  NO
IR spectrum                             ...  NO
VCD spectrum                            ...  NO
X-ray spectroscopy properties:
SCF XES/XAS/RIXS spectra                ...  NO


-------------
DIPOLE MOMENT
-------------

Method             : SCF
Type of density    : Electron Density
Multiplicity       :   1
Irrep              :   0
Energy             :  -385.5265994161383105 Eh
Relativity type    : 
Basis              : AO
                                X                 Y                 Z
Electronic contribution:      8.687177183       1.719140739      -1.261941340
Nuclear contribution   :     -8.702447338      -2.161648128       1.860672191
                        -----------------------------------------
Total Dipole Moment    :     -0.015270156      -0.442507389       0.598730851
                        -----------------------------------------
Magnitude (a.u.)       :      0.744664084
Magnitude (Debye)      :      1.892785680



--------------------
Rotational spectrum 
--------------------
 
Rotational constants in cm-1:             0.178501             0.028960             0.026738 
Rotational constants in MHz :          5351.318375           868.189329           801.587043 

Dipole components along the rotational axes: 
x,y,z [a.u.] :    -0.042567    -0.732533     0.126917 
x,y,z [Debye]:    -0.108196    -1.861951     0.322597 

 

Dipole moment calculation done in   0.0 sec 

Maximum memory used throughout the entire PROP-calculation: 7.9 MB

--------------------------------
SUGGESTED CITATIONS FOR THIS RUN
--------------------------------

Below you find a list of papers that are relevant to this ORCA run
We neither can nor want to force you to cite these papers, but we appreciate if you do
You receive ORCA, which is the product of decades of hard work by many enthusiastic individuals, for free
The only thing we kindly ask in return is that you cite our papers,
We deeply appreciate it, if you show your appreciation for ORCA by not just citing the generic ORCA reference.

Please note that relegating all ORCA citations to the supporting information does *not* help us.
SI sections are not indexed - citations you put there will not count into any citation statistics
But we need these citations in order to attract the funding resources that allow us to do what we are doing

Therefore, if you are a happy ORCA user, please consider citing a few of the papers listed below in the main body of your paper

In addition to the list printed below, the program has created the file sp.bibtex that contains the list in bibtex format
You can import this file easily into all common literature databanks and citation aid programs


List of essential papers. We consider these as the minimum necessary citations

  1. Neese,F.
     Software update: the ORCA program system, version 5.0
     WIRES Comput. Molec. Sci., 2022 12(1)e1606
     doi.org/10.1002/wcms.1606

List of papers to cite with high priority. The work reported in these papers was absolutely
necessary for this run to complete.
Our perspective: the developers of density functionals and basis sets usually get cited in chemistry papers
Good! But without the algorithms to do something with them, the functionals or basis sets would not do anything.
Hence, in our opinion, the algorithm design and method developments papers are equally worthy of getting cited

  1. Neese,F.
     An improvement of the resolution of the identity approximation for the formation of the Coulomb matrix
     J. Comp. Chem., 2003 24(14)1740-1747
     doi.org/10.1002/jcc.10318
  2. Neese,F.
     The SHARK Integral Generation and Digestion System
     J. Comp. Chem., 2022  1-16
     doi.org/10.1002/jcc.26942
  3. Caldeweyher,E.; Bannwarth,C.; Grimme,S.
     Extension of the D3 dispersion coefficient model
     J. Chem. Phys., 2017 147 034112-XXXX
     doi.org/10.1063/1.4993215
  4. Caldeweyher,E.; Ehlert,S.; Hansen,A.; Neugebauer,H.; Spicher,S.; Bannwarth,C.; Grimme,S.
     A generally applicable atomic-charge dependent London dispersion correction
     J. Chem. Phys., 2019 150 154122-XXXX
     doi.org/10.1063/1.5090222
  5. Caldeweyher,E.; Mewes,J.; Ehlert,S.; Grimme,S.
     Extension and evaluation of the D4 London-dispersion model for periodic systems
     Phys. Chem. Chem. Phys., 2020 22(16)8499-8512
     doi.org/10.1039/D0CP00502A

List of suggested additional citations. These are papers that are important in the 'surrounding' of 
of this run, or papers that preceded the highly important papers. If you like your results we are grateful for a citation.

  1. Neese,F.
     The ORCA program system
     WIRES Comput. Molec. Sci., 2012 2(1)73-78
     doi.org/10.1002/wcms.81
  2. Neese,F.
     Software update: the ORCA program system, version 4.0
     WIRES Comput. Molec. Sci., 2018 8(1)1-6
     doi.org/10.1002/wcms.1327
  3. Neese,F.; Wennmohs,F.; Becker,U.; Riplinger,C.
     The ORCA quantum chemistry program package
     J. Chem. Phys., 2020 152 Art. No. L224108
     doi.org/10.1063/5.0004608

List of optional additional citations

  1. Neese,F.
     Approximate second-order SCF convergence for spin unrestricted wavefunctions
     Chem. Phys. Lett., 2000 325(1-3)93-98
     doi.org/10.1016/s0009-2614(00)00662-x

Timings for individual modules:

Sum of individual times          ...        9.592 sec (=   0.160 min)
Startup calculation              ...        0.721 sec (=   0.012 min)   7.5 %
SCF iterations                   ...        8.772 sec (=   0.146 min)  91.4 %
Property calculations            ...        0.100 sec (=   0.002 min)   1.0 %
                             ****ORCA TERMINATED NORMALLY****
TOTAL RUN TIME: 0 days 0 hours 0 minutes 10 seconds 303 msec
