      -----------------------------------------------------------      
     |                   =====================                   |     
     |                           x T B                           |     
     |                   =====================                   |     
     |                         S. Grimme                         |     
     |          Mulliken Center for Theoretical Chemistry        |     
     |                    University of Bonn                     |     
      -----------------------------------------------------------      

   * xtb version 6.7.1 (edcfbbe) compiled by 'albert@albert-system' on 2024-07-22

   xtb is free software: you can redistribute it and/or modify it under
   the terms of the GNU Lesser General Public License as published by
   the Free Software Foundation, either version 3 of the License, or
   (at your option) any later version.
   
   xtb is distributed in the hope that it will be useful,
   but WITHOUT ANY WARRANTY; without even the implied warranty of
   MERCHANTABILITY or FITNESS FOR A PARTICULAR PURPOSE.  See the
   GNU Lesser General Public License for more details.
   
   Cite this work as:
   * C. Bannwarth, E. Caldeweyher, S. Ehlert, A. Hansen, P. Pracht,
     J. Seibert, S. Spicher, S. Grimme, WIREs Comput. Mol. Sci., 2020, 11,
     e01493. DOI: 10.1002/wcms.1493
   
   for GFN2-xTB:
   * C. Bannwarth, S. Ehlert and S. Grimme., J. Chem. Theory Comput., 2019,
     15, 1652-1671. DOI: 10.1021/acs.jctc.8b01176
   for GFN1-xTB:
   * S. Grimme, C. Bannwarth, P. Shushkov, J. Chem. Theory Comput., 2017,
     13, 1989-2009. DOI: 10.1021/acs.jctc.7b00118
   for GFN0-xTB:
   * P. Pracht, E. Caldeweyher, S. Ehlert, S. Grimme, ChemRxiv, 2019, preprint.
     DOI: 10.26434/chemrxiv.8326202.v1
   for GFN-FF:
   * S. Spicher and S. Grimme, Angew. Chem. Int. Ed., 2020, 59, 15665-15673.
     DOI: 10.1002/anie.202004239
   
   for ALPB and GBSA implicit solvation:
   * S. Ehlert, M. Stahn, S. Spicher, S. Grimme, J. Chem. Theory Comput.,
     2021, 17, 4250-4261. DOI: 10.1021/acs.jctc.1c00471
   
   for ddCOSMO and CPCM-X implicit solvation:
   * M. Stahn, S. Ehlert, S. Grimme, J. Phys. Chem. A,
     2023, XX, XXXX-XXXX. DOI: 10.1021/acs.jpca.3c04382
   
   for DFT-D4:
   * E. Caldeweyher, C. Bannwarth and S. Grimme, J. Chem. Phys., 2017,
     147, 034112. DOI: 10.1063/1.4993215
   * E. Caldeweyher, S. Ehlert, A. Hansen, H. Neugebauer, S. Spicher,
     C. Bannwarth and S. Grimme, J. Chem. Phys., 2019, 150, 154122.
     DOI: 10.1063/1.5090222
   * E. Caldeweyher, J.-M. Mewes, S. Ehlert and S. Grimme, Phys. Chem. Chem. Phys.
     2020, 22, 8499-8512. DOI: 10.1039/D0CP00502A
   
   for sTDA-xTB:
   * S. Grimme and C. Bannwarth, J. Chem. Phys., 2016, 145, 054103.
     DOI: 10.1063/1.4959605
   
   in the mass-spec context:
   * V. Asgeirsson, C. Bauer and S. Grimme, Chem. Sci., 2017, 8, 4879.
     DOI: 10.1039/c7sc00601b
   * J. Koopman and S. Grimme, ACS Omega 2019, 4, 12, 15120-15133.
     DOI: 10.1021/acsomega.9b02011
   
   for metadynamics refer to:
   * S. Grimme, J. Chem. Theory Comput., 2019, 155, 2847-2862
     DOI: 10.1021/acs.jctc.9b00143
   
   for SPH calculations refer to:
   * S. Spicher and S. Grimme, J. Chem. Theory Comput., 2021, 17, 1701-1714
     DOI: 10.1021/acs.jctc.0c01306
   
   for ONIOM refer to:
   * C. Plett, A. Katbashev, S. Ehlert, S. Grimme, M. Bursch,
     Phys. Chem. Chem. Phys., 2023, 25, 17860-17868. DOI: 10.1039/D3CP02178E
   
   for DIPRO refer to:
   * J. Kohn, N. Gildemeister, S. Grimme, D. Fazzi, A. Hansen,
     J. Chem. Phys., 2023, just accepted.
   
   for PTB refer to:
   * S. Grimme, M. Mueller, A. Hansen, J. Chem. Phys., 2023, 158, 124111.
     DOI: 10.1063/5.0137838
   
   with help from (in alphabetical order)
   P. Atkinson, C. Bannwarth, F. Bohle, G. Brandenburg, E. Caldeweyher
   M. Checinski, S. Dohm, S. Ehlert, S. Ehrlich, I. Gerasimov, C. Hölzer
   A. Katbashev, J. Kohn, J. Koopman, C. Lavigne, S. Lehtola, F. März, M. Müller,
   F. Musil, H. Neugebauer, J. Pisarek, C. Plett, P. Pracht, F. Pultar,
   J. Seibert, P. Shushkov, S. Spicher, M. Stahn, M. Steiner, T. Strunk,
   J. Stückrath, T. Rose, and J. Unsleber
   
 * started run on 2025/04/11 at 16:44:03.454     
   ID    Z sym.   atoms
    1    6 C      1-4, 7, 8
    2    8 O      5, 6
    3    1 H      9-20

           -------------------------------------------------
          |                Calculation Setup                |
           -------------------------------------------------

          program call               : /srv/scratch/z5358697/.xtb/bin/xtb xtb_rrho.coord --gfn2 --bhess vtight --chrg 0 --enso --norestart -I rrho-xcontrol-inp --parallel 1 --alpb water
          hostname                   : k061
          coordinate file            : xtb_rrho.coord
          omp threads                :                     1


           -------------------------------------------------
          |                 G F N 2 - x T B                 |
           -------------------------------------------------

        Reference                      10.1021/acs.jctc.8b01176
      * Hamiltonian:
        H0-scaling (s, p, d)           1.850000    2.230000    2.230000
        zeta-weighting                 0.500000
      * Dispersion:
        s8                             2.700000
        a1                             0.520000
        a2                             5.000000
        s9                             5.000000
      * Repulsion:
        kExp                           1.500000    1.000000
        rExp                           1.000000
      * Coulomb:
        alpha                          2.000000
        third order                    shell-resolved
        anisotropic                    true
        a3                             3.000000
        a5                             4.000000
        cn-shift                       1.200000
        cn-exp                         4.000000
        max-rad                        5.000000

      * Solvation model:               ALPB
        Solvent                        water
        Parameter file                 internal GFN2-xTB/ALPB
        Dielectric constant                8.0200E+01
        Reference state                gsolv [1 M gas/solution]
        Free energy shift                  1.0808E-03 Eh       6.7819E-01 kcal/mol
        Temperature                        2.9815E+02 K
        Density                            1.0000E+00 kg/L
        Solvent mass                       1.8000E+01 g/mol
        Interaction kernel             P16
        Born radius scaling (c1)           1.4744E+00
        Born radii integrator          GBOBC
        Born offset                        0.0000E+00 a0       0.0000E+00 AA
        H-bond correction              true
        Ion screening                  false
        Surface tension                    1.0000E-05 Eh       1.5569E+01 dyn/cm
        Grid points                               974 per atom

          ...................................................
          :                      SETUP                      :
          :.................................................:
          :  # basis functions                  44          :
          :  # atomic orbitals                  44          :
          :  # shells                           28          :
          :  # electrons                        48          :
          :  max. iterations                   250          :
          :  Hamiltonian                  GFN2-xTB          :
          :  restarted?                      false          :
          :  GBSA solvation                   true          :
          :  PC potential                    false          :
          :  electronic temp.          300.0000000     K    :
          :  accuracy                    1.0000000          :
          :  -> integral cutoff          0.2500000E+02      :
          :  -> integral neglect         0.1000000E-07      :
          :  -> SCF convergence          0.1000000E-05 Eh   :
          :  -> wf. convergence          0.1000000E-03 e    :
          :  Broyden damping             0.4000000          :
          :  net charge                          0          :
          :  unpaired electrons                  0          :
          ...................................................

 iter      E             dE          RMSdq      gap      omega  full diag
   1    -27.3605800 -0.273606E+02  0.407E+00    5.71       0.0  T
   2    -27.4218890 -0.613090E-01  0.202E+00    4.76       1.0  T
   3    -27.4237000 -0.181097E-02  0.104E+00    5.11       1.0  T
   4    -27.4253617 -0.166173E-02  0.163E-01    4.86       1.0  T
   5    -27.4255798 -0.218112E-03  0.678E-02    4.91       1.0  T
   6    -27.4255815 -0.172285E-05  0.225E-02    4.91       1.0  T
   7    -27.4255823 -0.750340E-06  0.366E-03    4.91       6.1  T
   8    -27.4255823 -0.192007E-07  0.203E-03    4.91      11.0  T
   9    -27.4255823 -0.626423E-08  0.319E-04    4.91      70.2  T
  10    -27.4255823 -0.287443E-09  0.173E-04    4.91     129.5  T

   *** convergence criteria satisfied after 10 iterations ***

         #    Occupation            Energy/Eh            Energy/eV
      -------------------------------------------------------------
         1        2.0000           -0.7446957             -20.2642
       ...           ...                  ...                  ...
        18        2.0000           -0.4656033             -12.6697
        19        2.0000           -0.4617187             -12.5640
        20        2.0000           -0.4514119             -12.2835
        21        2.0000           -0.4466920             -12.1551
        22        2.0000           -0.4423272             -12.0363
        23        2.0000           -0.4296344             -11.6909
        24        2.0000           -0.4220160             -11.4836 (HOMO)
        25                         -0.2415840              -6.5738 (LUMO)
        26                         -0.0290159              -0.7896
        27                          0.0850333               2.3139
        28                          0.1135436               3.0897
        29                          0.1162432               3.1631
       ...                                ...                  ...
        44                          0.5915064              16.0957
      -------------------------------------------------------------
                  HL-Gap            0.1804320 Eh            4.9098 eV
             Fermi-level           -0.3318000 Eh           -9.0287 eV

 SCC (total)                   0 d,  0 h,  0 min,  0.033 sec
 SCC setup                      ...        0 min,  0.002 sec (  5.751%)
 Dispersion                     ...        0 min,  0.000 sec (  0.515%)
 classical contributions        ...        0 min,  0.000 sec (  0.101%)
 integral evaluation            ...        0 min,  0.003 sec (  7.580%)
 iterations                     ...        0 min,  0.021 sec ( 61.962%)
 molecular gradient             ...        0 min,  0.008 sec ( 23.422%)
 printout                       ...        0 min,  0.000 sec (  0.613%)

         :::::::::::::::::::::::::::::::::::::::::::::::::::::
         ::                     SUMMARY                     ::
         :::::::::::::::::::::::::::::::::::::::::::::::::::::
         :: total energy             -27.121357462013 Eh    ::
         :: total w/o Gsasa/hb       -27.121376569985 Eh    ::
         :: gradient norm              0.032847215349 Eh/a0 ::
         :: HOMO-LUMO gap              4.909803927631 eV    ::
         ::.................................................::
         :: SCC energy               -27.425602481966 Eh    ::
         :: -> isotropic ES            0.059243832973 Eh    ::
         :: -> anisotropic ES          0.001396347660 Eh    ::
         :: -> anisotropic XC          0.008842808771 Eh    ::
         :: -> dispersion             -0.011212488647 Eh    ::
         :: -> Gsolv                  -0.008812940539 Eh    ::
         ::    -> Gelec               -0.008832048511 Eh    ::
         ::    -> Gsasa                0.001149784808 Eh    ::
         ::    -> Ghb                 -0.002211436534 Eh    ::
         ::    -> Gshift               0.001080759698 Eh    ::
         :: repulsion energy           0.304245019952 Eh    ::
         :: add. restraining           0.000000000000 Eh    ::
         :: total charge               0.000000000000 e     ::
         :::::::::::::::::::::::::::::::::::::::::::::::::::::

metadynamics with 1 initial structures loaded
           -------------------------------------------------
          |           Optimal kpush determination           |
           -------------------------------------------------
      ----------------------------------------------------------- 
     |                   =====================                   |
     |                        A N C O P T                        |
     |                   =====================                   |
     |               Approximate Normal Coordinate               |
     |                Rational Function Optimizer                |
      ----------------------------------------------------------- 
target rmsd / Å         0.100000
unbiased initial rmsd   0.286018
 
iter. min.        max.        rmsd       kpush
      ----------------------------------------------------------- 
     |                   =====================                   |
     |                        A N C O P T                        |
     |                   =====================                   |
     |               Approximate Normal Coordinate               |
     |                Rational Function Optimizer                |
      ----------------------------------------------------------- 
 1    0.000000    0.909091    0.009620   -0.454545
      ----------------------------------------------------------- 
     |                   =====================                   |
     |                        A N C O P T                        |
     |                   =====================                   |
     |               Approximate Normal Coordinate               |
     |                Rational Function Optimizer                |
      ----------------------------------------------------------- 
 2    0.000000    0.454545    0.012232   -0.227273
      ----------------------------------------------------------- 
     |                   =====================                   |
     |                        A N C O P T                        |
     |                   =====================                   |
     |               Approximate Normal Coordinate               |
     |                Rational Function Optimizer                |
      ----------------------------------------------------------- 
 3    0.000000    0.227273    0.015371   -0.113636
      ----------------------------------------------------------- 
     |                   =====================                   |
     |                        A N C O P T                        |
     |                   =====================                   |
     |               Approximate Normal Coordinate               |
     |                Rational Function Optimizer                |
      ----------------------------------------------------------- 
 4    0.000000    0.113636    0.018950   -0.056818
      ----------------------------------------------------------- 
     |                   =====================                   |
     |                        A N C O P T                        |
     |                   =====================                   |
     |               Approximate Normal Coordinate               |
     |                Rational Function Optimizer                |
      ----------------------------------------------------------- 
 5    0.000000    0.056818    0.023937   -0.028409
      ----------------------------------------------------------- 
     |                   =====================                   |
     |                        A N C O P T                        |
     |                   =====================                   |
     |               Approximate Normal Coordinate               |
     |                Rational Function Optimizer                |
      ----------------------------------------------------------- 
 6    0.000000    0.028409    0.030417   -0.014205
      ----------------------------------------------------------- 
     |                   =====================                   |
     |                        A N C O P T                        |
     |                   =====================                   |
     |               Approximate Normal Coordinate               |
     |                Rational Function Optimizer                |
      ----------------------------------------------------------- 
 7    0.000000    0.014205    0.038072   -0.007102
      ----------------------------------------------------------- 
     |                   =====================                   |
     |                        A N C O P T                        |
     |                   =====================                   |
     |               Approximate Normal Coordinate               |
     |                Rational Function Optimizer                |
      ----------------------------------------------------------- 
 8    0.000000    0.007102    0.045175   -0.003551
      ----------------------------------------------------------- 
     |                   =====================                   |
     |                        A N C O P T                        |
     |                   =====================                   |
     |               Approximate Normal Coordinate               |
     |                Rational Function Optimizer                |
      ----------------------------------------------------------- 
 9    0.000000    0.003551    0.051696   -0.001776
      ----------------------------------------------------------- 
     |                   =====================                   |
     |                        A N C O P T                        |
     |                   =====================                   |
     |               Approximate Normal Coordinate               |
     |                Rational Function Optimizer                |
      ----------------------------------------------------------- 
10    0.000000    0.001776    0.066150   -0.000888
final kpush: -0.000888
           -------------------------------------------------
          |            Biased Numerical Hessian             |
           -------------------------------------------------
kpush                :  -0.00089
alpha                :   1.00000
step length          :   0.00500
SCC accuracy         :   0.30000
Hessian scale factor :   1.00000
frozen atoms in %    :   0.00000    0
RMS gradient         :   0.00004
estimated CPU  time      0.02 min
estimated wall time      0.02 min

writing file <hessian>.

 projected vibrational frequencies (cm⁻¹)
eigval :       -0.00    -0.00    -0.00    -0.00     0.00     0.00
eigval :       26.71    54.33    67.87   111.63   151.80   208.44
eigval :      229.98   293.74   327.37   375.65   448.94   587.09
eigval :      682.12   776.48   818.48   881.60   897.75   924.25
eigval :      977.34  1052.45  1066.70  1088.61  1095.61  1133.01
eigval :     1136.40  1164.37  1206.01  1250.11  1258.97  1277.87
eigval :     1313.81  1351.51  1393.70  1410.62  1427.58  1429.75
eigval :     1470.62  1485.06  1493.91  1496.59  1497.73  1703.21
eigval :     2946.15  2957.71  2977.64  2991.25  2994.60  3000.83
eigval :     3034.93  3038.78  3039.80  3048.82  3049.40  3062.57
           -------------------------------------------------
          |                Property Printout                |
           -------------------------------------------------

    * Orbital Energies and Occupations

         #    Occupation            Energy/Eh            Energy/eV
      -------------------------------------------------------------
         1        2.0000           -0.7495475             -20.3962
       ...           ...                  ...                  ...
        12        2.0000           -0.5196019             -14.1391
        13        2.0000           -0.5148415             -14.0096
        14        2.0000           -0.5067361             -13.7890
        15        2.0000           -0.4950694             -13.4715
        16        2.0000           -0.4857544             -13.2180
        17        2.0000           -0.4688846             -12.7590
        18        2.0000           -0.4671277             -12.7112
        19        2.0000           -0.4603517             -12.5268
        20        2.0000           -0.4498863             -12.2420
        21        2.0000           -0.4464505             -12.1485
        22        2.0000           -0.4418993             -12.0247
        23        2.0000           -0.4297946             -11.6953
        24        2.0000           -0.4217980             -11.4777 (HOMO)
        25                         -0.2368556              -6.4452 (LUMO)
        26                         -0.0085796              -0.2335
        27                          0.0985715               2.6823
        28                          0.1142173               3.1080
        29                          0.1142769               3.1096
        30                          0.1356777               3.6920
        31                          0.1454940               3.9591
        32                          0.1553390               4.2270
        33                          0.1596267               4.3437
        34                          0.1627930               4.4298
        35                          0.1800247               4.8987
       ...                                ...                  ...
        44                          0.6197462              16.8642
      -------------------------------------------------------------
                  HL-Gap            0.1849425 Eh            5.0325 eV
             Fermi-level           -0.3293268 Eh           -8.9614 eV

     #   Z          covCN         q      C6AA      α(0)
     1   6 C        3.753    -0.118    22.826     6.813
     2   6 C        3.802    -0.054    21.539     6.608
     3   6 C        3.805    -0.102    22.444     6.744
     4   6 C        2.711     0.365    20.815     7.468
     5   8 O        0.856    -0.483    23.411     6.487
     6   8 O        1.703    -0.279    18.629     5.827
     7   6 C        3.693     0.068    19.607     6.336
     8   6 C        3.750    -0.127    22.999     6.839
     9   1 H        0.925     0.047     2.352     2.398
    10   1 H        0.925     0.046     2.374     2.410
    11   1 H        0.925     0.048     2.351     2.398
    12   1 H        0.924     0.040     2.449     2.447
    13   1 H        0.924     0.046     2.374     2.410
    14   1 H        0.924     0.091     1.866     2.136
    15   1 H        0.925     0.083     1.945     2.181
    16   1 H        0.924     0.081     1.964     2.191
    17   1 H        0.924     0.058     2.224     2.332
    18   1 H        0.925     0.053     2.282     2.362
    19   1 H        0.925     0.066     2.133     2.284
    20   1 H        0.925     0.071     2.078     2.254

 Mol. C6AA /au·bohr⁶  :       2996.166333
 Mol. C8AA /au·bohr⁸  :      63823.821353
 Mol. α(0) /au        :         80.925418


Wiberg/Mayer (AO) data.
largest (>0.10) Wiberg bond orders for each atom

 ---------------------------------------------------------------------------
     #   Z sym  total        # sym  WBO       # sym  WBO       # sym  WBO
 ---------------------------------------------------------------------------
     1   6 C    3.994 --     2 C    1.020    10 H    0.987    11 H    0.987
                             9 H    0.986
     2   6 C    3.993 --     1 C    1.020     3 C    1.003    12 H    0.978
                            13 H    0.977
     3   6 C    3.989 --     2 C    1.003     4 C    0.981    15 H    0.961
                            14 H    0.938
     4   6 C    3.904 --     5 O    1.699     6 O    1.159     3 C    0.981
     5   8 O    1.978 --     4 C    1.699     6 O    0.168
     6   8 O    2.308 --     4 C    1.159     7 C    0.919     5 O    0.168
     7   6 C    3.911 --     8 C    1.014    17 H    0.970    16 H    0.969
                             6 O    0.919
     8   6 C    3.989 --     7 C    1.014    18 H    0.986    19 H    0.985
                            20 H    0.980
     9   1 H    0.997 --     1 C    0.986
    10   1 H    0.998 --     1 C    0.987
    11   1 H    0.998 --     1 C    0.987
    12   1 H    0.998 --     2 C    0.978
    13   1 H    0.998 --     2 C    0.977
    14   1 H    0.992 --     3 C    0.938
    15   1 H    0.993 --     3 C    0.961
    16   1 H    0.993 --     7 C    0.969
    17   1 H    0.997 --     7 C    0.970
    18   1 H    0.997 --     8 C    0.986
    19   1 H    0.996 --     8 C    0.985
    20   1 H    0.994 --     8 C    0.980
 ---------------------------------------------------------------------------

Topologies differ in total number of bonds
Writing topology from bond orders to xtbtopo.mol

molecular dipole:
                 x           y           z       tot (Debye)
 q only:        0.239      -1.037       0.061
   full:        0.257      -1.060      -0.004       2.773
molecular quadrupole (traceless):
                xx          xy          yy          xz          yz          zz
 q only:       10.241       1.533      -7.921       0.617       0.716      -2.320
  q+dip:        7.563       0.965      -7.471       0.420       0.151      -0.092
   full:        8.164       1.290      -8.277       0.424       0.332       0.113

           -------------------------------------------------
          |                Geometry Summary                 |
           -------------------------------------------------

      molecular mass/u    :      116.1585142
   center of mass at/Å    :       -0.0014800       0.0058368       0.0141638
  moments of inertia/u·Å² :        0.8836881E+02   0.5896633E+03   0.6115159E+03
rotational constants/cm⁻¹ :        0.1907645E+00   0.2858857E-01   0.2756696E-01

 * 18 selected distances

     #   Z          #   Z                                           value/Å
     1   6 C        2   6 C                                       1.5231014
     2   6 C        3   6 C                                       1.5273349 (max)
     4   6 C        5   8 O                                       1.2127002
     4   6 C        6   8 O                                       1.3295872
     6   8 O        7   6 C                                       1.4379583
     7   6 C        8   6 C                                       1.5210397
     1   6 C        9   1 H                                       1.0864148
     1   6 C       10   1 H                                       1.0870805
     1   6 C       11   1 H                                       1.0871085
     2   6 C       12   1 H                                       1.0916407
     2   6 C       13   1 H                                       1.0914701
     3   6 C       14   1 H                                       1.0931582
     3   6 C       15   1 H                                       1.0901613
     7   6 C       16   1 H                                       1.0903027
     7   6 C       17   1 H                                       1.0942283
     8   6 C       18   1 H                                       1.0877667
     8   6 C       19   1 H                                       1.0866214
     8   6 C       20   1 H                                       1.0850655 (min)

 * 3 distinct bonds (by element types)

   Z      Z             #   av. dist./Å        max./Å        min./Å
   1 H    6 C          12     1.0892515     1.0942283     1.0850655
   6 C    6 C           3     1.5238254     1.5273349     1.5210397
   6 C    8 O           3     1.3267486     1.4379583     1.2127002

           -------------------------------------------------
          |               Frequency Printout                |
           -------------------------------------------------
 projected vibrational frequencies (cm⁻¹)
eigval :       -0.00    -0.00    -0.00    -0.00     0.00     0.00
eigval :       26.71    54.33    67.87   111.63   151.80   208.44
eigval :      229.98   293.74   327.37   375.65   448.94   587.09
eigval :      682.12   776.48   818.48   881.60   897.75   924.25
eigval :      977.34  1052.45  1066.70  1088.61  1095.61  1133.01
eigval :     1136.40  1164.37  1206.01  1250.11  1258.97  1277.87
eigval :     1313.81  1351.51  1393.70  1410.62  1427.58  1429.75
eigval :     1470.62  1485.06  1493.91  1496.59  1497.73  1703.21
eigval :     2946.15  2957.71  2977.64  2991.25  2994.60  3000.83
eigval :     3034.93  3038.78  3039.80  3048.82  3049.40  3062.57
 reduced masses (amu)
   1: 10.74   2: 11.99   3: 11.57   4: 10.95   5: 11.45   6: 10.38   7:  8.59   8:  8.76
   9:  9.72  10:  9.73  11:  9.19  12:  3.52  13:  1.81  14:  9.39  15: 10.92  16: 10.49
  17: 10.30  18:  9.89  19: 11.62  20:  2.96  21:  3.43  22:  4.82  23:  9.00  24:  8.17
  25:  7.85  26:  8.72  27:  4.51  28:  8.77  29:  7.64  30:  8.94  31:  8.39  32:  8.17
  33:  4.68  34:  2.81  35:  2.73  36:  4.58  37:  3.44  38:  5.39  39:  3.11  40:  3.21
  41:  2.00  42:  2.01  43:  1.51  44:  1.57  45:  1.67  46:  1.53  47:  1.80  48: 13.32
  49:  1.72  50:  1.80  51:  1.94  52:  1.74  53:  1.52  54:  1.67  55:  1.96  56:  1.77
  57:  1.80  58:  1.42  59:  1.62  60:  1.75
 IR intensities (km·mol⁻¹)
   1:  0.00   2:  0.64   3:  0.44   4:  0.18   5:  1.56   6:  1.29   7:  0.75   8:  2.11
   9:  1.08  10:  2.72  11:  4.53  12:  3.39  13:  0.15  14: 17.91  15:  4.81  16:  2.26
  17:  2.77  18: 18.35  19: 11.38  20: 30.62  21:  9.36  22:  9.30  23:  9.29  24:  5.69
  25:  5.63  26: 23.43  27: 22.79  28: 38.93  29: 17.73  30: 68.97  31:270.61  32:166.12
  33:  0.43  34:  7.38  35: 25.00  36: 77.22  37:  6.78  38: 38.46  39:  5.60  40:  1.37
  41: 19.91  42:  1.54  43:  6.16  44:  2.31  45:  2.17  46:  2.52  47:  0.10  48:647.53
  49: 30.76  50:  2.60  51: 58.97  52: 14.88  53: 22.60  54: 42.27  55: 74.35  56: 72.69
  57: 29.68  58: 41.89  59: 27.88  60: 23.35
 Raman intensities (Ä⁴*amu⁻¹)
   1:  0.00   2:  0.00   3:  0.00   4:  0.00   5:  0.00   6:  0.00   7:  0.00   8:  0.00
   9:  0.00  10:  0.00  11:  0.00  12:  0.00  13:  0.00  14:  0.00  15:  0.00  16:  0.00
  17:  0.00  18:  0.00  19:  0.00  20:  0.00  21:  0.00  22:  0.00  23:  0.00  24:  0.00
  25:  0.00  26:  0.00  27:  0.00  28:  0.00  29:  0.00  30:  0.00  31:  0.00  32:  0.00
  33:  0.00  34:  0.00  35:  0.00  36:  0.00  37:  0.00  38:  0.00  39:  0.00  40:  0.00
  41:  0.00  42:  0.00  43:  0.00  44:  0.00  45:  0.00  46:  0.00  47:  0.00  48:  0.00
  49:  0.00  50:  0.00  51:  0.00  52:  0.00  53:  0.00  54:  0.00  55:  0.00  56:  0.00
  57:  0.00  58:  0.00  59:  0.00  60:  0.00
 output can be read by thermo (or use thermo option).
 writing <g98.out> molden fake output.
 recommended (thermochemical) frequency scaling factor: 1.0
           -------------------------------------------------
          |             Thermodynamic Functions             |
           -------------------------------------------------

Molecule has no symmetry elements
It seems to be the C1 point group
c1  symmetry found (for desy threshold:  0.10E+00) used in thermo

          ...................................................
          :                      SETUP                      :
          :.................................................:
          :  # frequencies                          54      :
          :  # imaginary freq.                       0      :
          :  linear?                             false      :
          :  only rotor calc.                    false      :
          :  symmetry                               c1      :
          :  rotational number                       1      :
          :  scaling factor                  1.0000000      :
          :  rotor cutoff                    0.0000000 cm⁻¹ :
          :  imag. cutoff                 -100.0000000 cm⁻¹ :
          :.................................................:

    mode    ω/cm⁻¹     T·S(HO)/kcal·mol⁻¹    T·S(FR)/kcal·mol⁻¹   T·S(vib)
   ------------------------------------------------------------------------
       1     26.71    -1.80672 (100.00%)    -1.24184 (  0.00%)    -1.80672
       2     54.33    -1.38737 (100.00%)    -1.03174 (  0.00%)    -1.38737
       3     67.87    -1.25647 (100.00%)    -0.96586 (  0.00%)    -1.25647
       4    111.63    -0.96613 (100.00%)    -0.81852 (  0.00%)    -0.96613
       5    151.80    -0.78996 (100.00%)    -0.72748 (  0.00%)    -0.78996
       6    208.44    -0.61338 (100.00%)    -0.63357 (  0.00%)    -0.61338
       7    229.98    -0.56026 (100.00%)    -0.60445 (  0.00%)    -0.56026
       8    293.74    -0.43301 (100.00%)    -0.53196 (  0.00%)    -0.43301
   ------------------------------------------------------------------------

   temp. (K)  partition function   enthalpy   heat capacity  entropy
                                   cal/mol     cal/K/mol   cal/K/mol   J/K/mol
 298.15  VIB  0.400E+04             4574.187     28.459     31.827
         ROT  0.431E+06              888.752      2.981     28.764
         INT  0.173E+10             5462.939     31.439     60.591
         TR   0.121E+28             1481.254      4.968     40.146
         TOT                        6944.1932    36.4076   100.7372   421.4845

       T/K    H(0)-H(T)+PV         H(T)/Eh          T*S/Eh         G(T)/Eh
   ------------------------------------------------------------------------
    298.15    0.110663E-01    0.182358E+00    0.478635E-01    0.134494E+00
   ------------------------------------------------------------------------

         :::::::::::::::::::::::::::::::::::::::::::::::::::::
         ::                  THERMODYNAMIC                  ::
         :::::::::::::::::::::::::::::::::::::::::::::::::::::
         :: total free energy         -26.989105217720 Eh   ::
         ::.................................................::
         :: total energy              -27.123599481174 Eh   ::
         :: zero point energy           0.171291489033 Eh   ::
         :: G(RRHO) w/o ZPVE           -0.036797225580 Eh   ::
         :: G(RRHO) contrib.            0.134494263453 Eh   ::
         :::::::::::::::::::::::::::::::::::::::::::::::::::::

optimized geometry written to: xtbopt.coord


           -------------------------------------------------
          | TOTAL ENERGY              -27.123599481174 Eh   |
          | TOTAL ENTHALPY            -26.941241715896 Eh   |
          | TOTAL FREE ENERGY         -26.989105217720 Eh   |
          | GRADIENT NORM               0.000036138720 Eh/α |
          | HOMO-LUMO GAP               5.032540820521 eV   |
           -------------------------------------------------

------------------------------------------------------------------------
 * finished run on 2025/04/11 at 16:44:07.188     
------------------------------------------------------------------------
 total:
 * wall-time:     0 d,  0 h,  0 min,  3.733 sec
 *  cpu-time:     0 d,  0 h,  0 min,  3.540 sec
 * ratio c/w:     0.948 speedup
 SCF:
 * wall-time:     0 d,  0 h,  0 min,  0.034 sec
 *  cpu-time:     0 d,  0 h,  0 min,  0.020 sec
 * ratio c/w:     0.602 speedup
 analytical hessian:
 * wall-time:     0 d,  0 h,  0 min,  1.231 sec
 *  cpu-time:     0 d,  0 h,  0 min,  1.219 sec
 * ratio c/w:     0.991 speedup

