20
 energy: -27.122245246177 gnorm: 0.032848401656 xtb: 6.7.1 (edcfbbe)
C           -3.62734516077050       -0.65087432844519        0.25495627034717
C           -2.33273397300940        0.15095427255062        0.34208058803059
C           -1.17298409768946       -0.59127183105502       -0.31582314758179
C            0.12539241816646        0.16227321599663       -0.26235829898453
O            0.22679381144352        1.37422413479778       -0.16207871939332
O            1.18313516696499       -0.66414703872162       -0.37523075586540
C            2.51063091097839       -0.05134330546828       -0.38589994921532
C            2.98134795367579        0.26079346576811        1.01718941887017
H           -4.45223392761236       -0.11910131921325        0.73936279819163
H           -3.90833203665482       -0.82982140260724       -0.78923163732472
H           -3.52162095776414       -1.62550930301183        0.74461489438095
H           -2.08322965134164        0.34773847540035        1.39177257990048
H           -2.46371495456712        1.12516919608879       -0.14094243020650
H           -1.38654826850096       -0.76110693346120       -1.38107519190665
H           -1.02859537605590       -1.58070128901624        0.12937773159343
H            3.14271327702974       -0.80597554858008       -0.85761762052950
H            2.48299118727341        0.83971656099217       -1.01839194568409
H            2.34032201349731        1.00395794724824        1.49855486432401
H            3.00155005788089       -0.64420631106458        1.63143168821181
H            3.99771179558822        0.66458087137082        0.96775811709102
20
 energy: -27.123294657306 gnorm: 0.013004981114 xtb: 6.7.1 (edcfbbe)
C           -3.62095529911191       -0.65058668600954        0.25295936573915
C           -2.32750232144587        0.14748998539822        0.34101695564728
C           -1.16972665782746       -0.59807235280981       -0.31735079652114
C            0.12387337337347        0.16548222901842       -0.26402234665199
O            0.22202754459713        1.37024181795118       -0.16254946494173
O            1.17754061989530       -0.65060804914772       -0.37554960831839
C            2.50023197790595       -0.05468962370743       -0.38320316690634
C            2.98294521744346        0.25986824789151        1.01799889133695
H           -4.43453193935971       -0.11259083838540        0.73603566350266
H           -3.89656072501999       -0.82454095539950       -0.78662537198383
H           -3.51185508044679       -1.61694922550570        0.74405537460581
H           -2.08138938093686        0.34057577967236        1.38848721700873
H           -2.45280724050436        1.11798479387749       -0.14473506142589
H           -1.38945605330799       -0.76414078529338       -1.37814924319335
H           -1.01773025215594       -1.57948178413113        0.13671701898975
H            3.12608520398799       -0.81093306569835       -0.85974764512683
H            2.46359820508040        0.84690844277674       -1.00042987988072
H            2.33714403836309        0.99980353655260        1.48775656065238
H            2.99084628785736       -0.64196522478607        1.62745982005150
H            3.99347267014516        0.66155328730449        0.96832497166548
20
 energy: -27.123505049294 gnorm: 0.004011774344 xtb: 6.7.1 (edcfbbe)
C           -3.61793509078378       -0.64933889698463        0.25145630974226
C           -2.32186153687084        0.14474017820393        0.34113715500462
C           -1.16577576842218       -0.60514159753422       -0.31742917727437
C            0.12402630220852        0.16856934163633       -0.26562432868231
O            0.21720529677455        1.37230848935185       -0.16680352653301
O            1.17495743662060       -0.64091335100588       -0.37282028208800
C            2.49132305046279       -0.05430259906334       -0.38471295395919
C            2.97981503422855        0.25695882680332        1.01948596198983
H           -4.42562998941735       -0.10659773381675        0.73330305880582
H           -3.88954579476138       -0.82105625311673       -0.78635169195752
H           -3.50825678387770       -1.61183738683986        0.74340617598517
H           -2.07616428067597        0.33544645907019        1.38731990202621
H           -2.43960235058727        1.11363661767160       -0.14683452386615
H           -1.39047872067527       -0.77357110057847       -1.37418864237102
H           -1.00636103411948       -1.57917639283397        0.14594815989755
H            3.11404008808104       -0.80923110625091       -0.86550456655798
H            2.45445822498226        0.85595909247877       -0.99061335380660
H            2.33327582676531        0.99798294135510        1.48309048477218
H            2.97997224250287       -0.64366926611519        1.62678561287275
H            3.98778803609715        0.65458326713785        0.96739948024922
20
 energy: -27.123534668147 gnorm: 0.001622225941 xtb: 6.7.1 (edcfbbe)
C           -3.61815783421596       -0.64805659694524        0.25126832096801
C           -2.31994641482719        0.14341490029453        0.34203289861899
C           -1.16449882789258       -0.60840407756578       -0.31629490091541
C            0.12390404625120        0.16937070961594       -0.26980417084069
O            0.21327398421270        1.37447226381246       -0.17437482385402
O            1.17515320292246       -0.63811519782355       -0.37341636979747
C            2.48896601723596       -0.05235423588922       -0.38586746376296
C            2.97859257401883        0.25536340239240        1.02044441198108
H           -4.42505062189175       -0.10318141639076        0.73230327955489
H           -3.88850737199429       -0.81923592492747       -0.78709091839309
H           -3.51026444433644       -1.61071017708625        0.74360380011045
H           -2.07411268343777        0.33323592355111        1.38830805404166
H           -2.43434837855603        1.11253524856262       -0.14627092941141
H           -1.39159785036303       -0.78199378475877       -1.37125870864840
H           -1.00059186654700       -1.57901403078682        0.15213669141216
H            3.11299946458970       -0.80424071845834       -0.86915902212966
H            2.45453923728967        0.86126613657114       -0.98724865997893
H            2.33262106310453        0.99739928313893        1.48370073017465
H            2.97467482800432       -0.64654925528520        1.62592433988177
H            3.98760206496511        0.65014707754726        0.96951269523783
20
 energy: -27.123560239710 gnorm: 0.003315023976 xtb: 6.7.1 (edcfbbe)
C           -3.61929412505834       -0.64443986512635        0.25041138095042
C           -2.31663536038485        0.14048482322159        0.34448778773118
C           -1.16216434399603       -0.61542328821693       -0.31153026707323
C            0.12337101834144        0.17008414175368       -0.27936236578557
O            0.20368191059105        1.37845259113295       -0.19876955395724
O            1.17736451178570       -0.63292362542036       -0.37602106299053
C            2.48664836343970       -0.04530406139446       -0.38868134405189
C            2.97644045738866        0.25131846934971        1.02245067139665
H           -4.42537264329700       -0.09513037993787        0.72912967438590
H           -3.88771638737904       -0.81470687680849       -0.78938293905006
H           -3.51797612073153       -1.60833346391533        0.74342086236549
H           -2.07176819290461        0.32828716853765        1.39166619567489
H           -2.42430855625948        1.11075013685193       -0.14361331748752
H           -1.39438499867128       -0.80458659355253       -1.36267271383193
H           -0.98899557002466       -1.57843972896113        0.16919157153574
H            3.11517984129147       -0.78907510994680       -0.87874584803479
H            2.45485652884389        0.87485171058366       -0.98077119154318
H            2.33354931833427        0.99523132174989        1.48823579332239
H            2.96390549655896       -0.65477688200564        1.62248437390988
H            3.98886904066410        0.63902904167385        0.97652154678286
20
 energy: -27.123570600548 gnorm: 0.002434149236 xtb: 6.7.1 (edcfbbe)
C           -3.61944663134828       -0.64349049802249        0.24994908032700
C           -2.31625899250112        0.13989586825477        0.34527857716839
C           -1.16191753290619       -0.61679300001484       -0.30964496585621
C            0.12294291667068        0.16980670680291       -0.28273990964336
O            0.20213830375573        1.37818607566244       -0.20576819183206
O            1.17813573195271       -0.63243900051202       -0.37709437883453
C            2.48726467577879       -0.04285250003657       -0.38870537689023
C            2.97652247321742        0.25051779172284        1.02279650951091
H           -4.42543366886267       -0.09341551919711        0.72795259001127
H           -3.88752586185680       -0.81348479332519       -0.78999213087835
H           -3.52008709911686       -1.60760320713996        0.74292439888502
H           -2.07239782483444        0.32746475741977        1.39278379492867
H           -2.42289680740599        1.11035866701354       -0.14270823637143
H           -1.39540664046292       -0.80983450141562       -1.35991535570292
H           -0.98758031090206       -1.57839786015727        0.17356771763702
H            3.11659698497968       -0.78492572489265       -0.88057992777968
H            2.45353013045251        0.87807075855633       -0.97929311091787
H            2.33474103548100        0.99426294545357        1.49025485137535
H            2.96271620186021       -0.65681383427961        1.62089503593617
H            3.98961310458103        0.63683639767615        0.97848828317630
20
 energy: -27.123587433661 gnorm: 0.000759901520 xtb: 6.7.1 (edcfbbe)
C           -3.61991814713983       -0.64039708485775        0.24759298813125
C           -2.31497424267746        0.13813777921664        0.34738839396945
C           -1.16084976801246       -0.62196437274352       -0.30292437452692
C            0.12123176756538        0.16869593830827       -0.28952980892509
O            0.19686024888269        1.37759900138018       -0.22968503820260
O            1.18010674825170       -0.63070745500952       -0.37810091214676
C            2.48855872248484       -0.03453023175059       -0.38896057769194
C            2.97735190019404        0.24757766237080        1.02346288556851
H           -4.42533305146100       -0.08761349070614        0.72315538380523
H           -3.88600782985356       -0.80914586209917       -0.79289921838849
H           -3.52648925491685       -1.60495305860908        0.74050503453735
H           -2.07497183271038        0.32485215085648        1.39597518466752
H           -2.41715448451126        1.10912061982460       -0.14060516849788
H           -1.39764699897216       -0.82792586093302       -1.35034116620857
H           -0.98276097810235       -1.57817717842366        0.18973914532013
H            3.11948863039279       -0.77085524650057       -0.88805076639620
H            2.44679005078617        0.88970783660659       -0.97342858088039
H            2.33926797732902        0.99053040400443        1.49678553831055
H            2.95935947282710       -0.66396602856955        1.61481039989452
H            3.99234125817602        0.62936400720358        0.98355991190977
20
 energy: -27.123590366804 gnorm: 0.000554982838 xtb: 6.7.1 (edcfbbe)
C           -3.62072040655475       -0.63890623240174        0.24609854674585
C           -2.31429964789900        0.13709826723318        0.34838620408373
C           -1.16007694720403       -0.62510016129822       -0.29962529959084
C            0.12023335540320        0.16832544857991       -0.29334976816742
O            0.19399979424763        1.37750986974921       -0.23981472759380
O            1.18049475253837       -0.62966071680625       -0.37658070291031
C            2.48802977610548       -0.03094316303843       -0.38881821306204
C            2.97865003695904        0.24611388370427        1.02383926504059
H           -4.42574614343889       -0.08452562026873        0.72028315015988
H           -3.88489970337149       -0.80675932391284       -0.79491368736447
H           -3.52960253850015       -1.60354946621512        0.73898467646589
H           -2.07600762644985        0.32384505528934        1.39726998617500
H           -2.41330293132658        1.10792386562640       -0.14053469196220
H           -1.39856809649183       -0.83645277042363       -1.34539826433429
H           -0.97937521320214       -1.57821006449463        0.19793567709262
H            3.11882287946000       -0.76419071934633       -0.89224698367328
H            2.44232140639524        0.89548405336293       -0.96942755391804
H            2.34185591094816        0.98836395320759        1.49996379392726
H            2.95936176458232       -0.66738633894428        1.61198417529751
H            3.99407976633170        0.62636970996634        0.98441367183783
20
 energy: -27.123592307027 gnorm: 0.000314227098 xtb: 6.7.1 (edcfbbe)
C           -3.62167090338329       -0.63830502075715        0.24466288922948
C           -2.31466518680976        0.13686905085268        0.34834693853117
C           -1.15996794155411       -0.62658979881331       -0.29780628262014
C            0.11949914666166        0.16778217080679       -0.29239993502557
O            0.19240814974710        1.37731767959652       -0.24347218060505
O            1.18027976115433       -0.62949664437153       -0.37316813766001
C            2.48726526789911       -0.02965315624275       -0.38844972247249
C            2.98095548104602        0.24547571086706        1.02365012364259
H           -4.42665537974020       -0.08326302317164        0.71807552372450
H           -3.88461334557586       -0.80571258712188       -0.79671484732613
H           -3.53151862251539       -1.60300251213317        0.73756711932369
H           -2.07760174202519        0.32404967327974        1.39738723473347
H           -2.41196378812614        1.10734990148911       -0.14152943399651
H           -1.39818526749728       -0.84010419064668       -1.34298863396505
H           -0.97838516438032       -1.57812690997061        0.20196224572588
H            3.11735691327244       -0.76117157044035       -0.89485966049958
H            2.43898953488913        0.89788079260667       -0.96692028679579
H            2.34453299664891        0.98660285201107        1.50210320555819
H            2.96316823983579       -0.66888570982221        1.61038987865917
H            3.99602203898547        0.62633282155062        0.98261321608761
20
 energy: -27.123594145777 gnorm: 0.000413359813 xtb: 6.7.1 (edcfbbe)
C           -3.62294504895912       -0.63796950958303        0.24317180375942
C           -2.31571979917543        0.13685763717520        0.34782967013568
C           -1.16032207377470       -0.62754238376532       -0.29626234895402
C            0.11872205729630        0.16745464515838       -0.29157106413207
O            0.19092706405540        1.37727841467819       -0.24592239617947
O            1.17997318160135       -0.62943772718775       -0.36870584385309
C            2.48646927468364       -0.02892522194499       -0.38747810557816
C            2.98448218700147        0.24495160303008        1.02353418900789
H           -4.42809267042903       -0.08261451173573        0.71597884229139
H           -3.88506231838888       -0.80520729559596       -0.79846776061974
H           -3.53344909991080       -1.60274486564341        0.73611815542547
H           -2.07983648160925        0.32494453412929        1.39695266303031
H           -2.41197225967865        1.10682930118721       -0.14319761442484
H           -1.39798447812242       -0.84272204316075       -1.34119541138714
H           -0.97855002473214       -1.57803671845741        0.20525205740970
H            3.11558366789492       -0.75905206242500       -0.89692243856194
H            2.43582851305445        0.89944065306624       -0.96429523597744
H            2.34814034606961        0.98424844221887        1.50505007781273
H            2.97036869958416       -0.67027774860637        1.60909526705788
H            3.99868945207154        0.62787438703124        0.97948474798687
20
 energy: -27.123595868962 gnorm: 0.000303590163 xtb: 6.7.1 (edcfbbe)
C           -3.62454809385673       -0.63772314768809        0.24121139660934
C           -2.31746298531897        0.13704015802341        0.34699582651202
C           -1.16107032751766       -0.62820484558467       -0.29423767533413
C            0.11776123361403        0.16721330029287       -0.29010649542392
O            0.18924725466207        1.37725206659716       -0.24883355135822
O            1.17959041948950       -0.62931617854710       -0.36328194926715
C            2.48571338905016       -0.02812707138169       -0.38600198102556
C            2.98929923773385        0.24432067146406        1.02328041170072
H           -4.43015051647412       -0.08232104651445        0.71322610939457
H           -3.88590967038704       -0.80515790648882       -0.80060409709233
H           -3.53567743458287       -1.60245935041142        0.73436482975611
H           -2.08329386869999        0.32649639536550        1.39628027507102
H           -2.41298259022181        1.10638195470330       -0.14544520721073
H           -1.39757861063789       -0.84547201362104       -1.33911080818487
H           -0.97969447168520       -1.57780396867230        0.20921126031363
H            3.11354816854291       -0.75708227659220       -0.89885420111941
H            2.43222438492932        0.90102398090809       -0.96134606387034
H            2.35309356654113        0.98075760851893        1.50932255431840
H            2.98101097416827       -0.67202392887024        1.60725470473824
H            4.00213012918347        0.63055512806767        0.97512391572208
20
 energy: -27.123596476139 gnorm: 0.000103021852 xtb: 6.7.1 (edcfbbe)
C           -3.62553533944490       -0.63774876362704        0.23988756726272
C           -2.31870635799888        0.13725518414279        0.34654249407355
C           -1.16151817275349       -0.62839007759137       -0.29258297044448
C            0.11719169569302        0.16741815521787       -0.28920551265930
O            0.18811852956882        1.37751504686864       -0.25031227965911
O            1.17931355373631       -0.62890289870562       -0.36024822412954
C            2.48530383848008       -0.02764406713395       -0.38517791211287
C            2.99224878731267        0.24384173499787        1.02300996177961
H           -4.43169674693409       -0.08229598155589        0.71092986678611
H           -3.88599553878327       -0.80560746130722       -0.80210139512296
H           -3.53707109190029       -1.60232482153752        0.73346539234271
H           -2.08589577222439        0.32767310477605        1.39596302122002
H           -2.41382565526299        1.10620286777001       -0.14682280506187
H           -1.39712737238183       -0.84713631352935       -1.33740900011303
H           -0.98032366893172       -1.57740366808282        0.21217017363290
H            3.11222349731298       -0.75619229918707       -0.89986743573707
H            2.43054371191732        0.90184999701029       -0.95989345545282
H            2.35612316516133        0.97831142232460        1.51206011930842
H            2.98772960535097       -0.67331779642818        1.60574669635861
H            4.00414952061479        0.63224616514691        0.97229495197785
20
 energy: -27.123596675280 gnorm: 0.000058720860 xtb: 6.7.1 (edcfbbe)
C           -3.62591997473748       -0.63782505869103        0.23915098197607
C           -2.31929945685092        0.13741530462795        0.34649160347172
C           -1.16163026497292       -0.62831954114473       -0.29153214029380
C            0.11698188311380        0.16773873467361       -0.28868884686156
O            0.18768392411004        1.37784929783703       -0.25062256803013
O            1.17915356587745       -0.62854330283048       -0.35927419374643
C            2.48518888721015       -0.02741991079909       -0.38502411586208
C            2.99342426243874        0.24350940396720        1.02276062410209
H           -4.43256744307232       -0.08236683806303        0.70934022792277
H           -3.88560455918267       -0.80625621896686       -0.80293700672304
H           -3.53763770895385       -1.60214550787777        0.73322515826858
H           -2.08730739559859        0.32837388356814        1.39600213244751
H           -2.41430689349553        1.10611631756013       -0.14737545572448
H           -1.39678515636535       -0.84803100464406       -1.33630181045285
H           -0.98042224297393       -1.57691823869081        0.21404462189168
H            3.11163002988542       -0.75593770383724       -0.90043088808996
H            2.43008730067379        0.90223546828639       -0.95950494876040
H            2.35725264006918        0.97705555996054        1.51308646712771
H            2.99041328933243       -0.67405325839424        1.60485013962575
H            4.00491550202499        0.63287214302733        0.97118927196028
20
 energy: -27.123596864098 gnorm: 0.000117797676 xtb: 6.7.1 (edcfbbe)
C           -3.62616274689015       -0.63799567492997        0.23848475479875
C           -2.31984936658028        0.13767423605663        0.34642853852025
C           -1.16162676108321       -0.62813933210785       -0.29038757334604
C            0.11688418476715        0.16814045883119       -0.28796046281243
O            0.18745418273624        1.37823247364168       -0.25007210389025
O            1.17902499520174       -0.62813618634558       -0.35892873751365
C            2.48516340846247       -0.02724921991348       -0.38516578502344
C            2.99415779796107        0.24316290067067        1.02240436710359
H           -4.43341516069952       -0.08241996020950        0.70750255097566
H           -3.88481039304328       -0.80719067041558       -0.80373482629054
H           -3.53813566977768       -1.60197874372407        0.73328651599731
H           -2.08871840408336        0.32906118568527        1.39604357010484
H           -2.41473391004362        1.10619657608729       -0.14784503198710
H           -1.39626718625820       -0.84888264924205       -1.33506729291705
H           -0.98033877793887       -1.57627514221850        0.21604527075948
H            3.11119899598972       -0.75583288433273       -0.90103392433799
H            2.43001096017766        0.90251958785413       -0.95948938780177
H            2.35787512763275        0.97598156684461        1.51365316120297
H            2.99219236859435       -0.67475997980204        1.60390953379478
H            4.00534654340745        0.63324098713886        0.97037611691211
20
 energy: -27.123597057859 gnorm: 0.000207273889 xtb: 6.7.1 (edcfbbe)
C           -3.62633126237359       -0.63852461917011        0.23758011686750
C           -2.32076002471468        0.13834725964409        0.34630187661215
C           -1.16159951446063       -0.62721050781553       -0.28893937746809
C            0.11704553618666        0.16877061896494       -0.28619227963744
O            0.18803953629217        1.37873456642878       -0.24677787812303
O            1.17875841149722       -0.62794479969432       -0.35904522660769
C            2.48515593885681       -0.02756461815604       -0.38563915567963
C            2.99479961074861        0.24278057903051        1.02166986793142
H           -4.43476340196461       -0.08301337541298        0.70463296854451
H           -3.88331510470418       -0.80949223228304       -0.80477053591064
H           -3.53816044190801       -1.60172283183913        0.73388376868721
H           -2.09077770354455        0.33063466781997        1.39600320927673
H           -2.41593321335327        1.10644094120497       -0.14873800477814
H           -1.39515625353620       -0.84891021759490       -1.33364715325709
H           -0.98056495057347       -1.57495554483329        0.21829135413153
H            3.11065133681960       -0.75652912970084       -0.90162765496227
H            2.43032527016978        0.90215997880581       -0.96010578576110
H            2.35804614485774        0.97466577946710        1.51368521261501
H            2.99429051748926       -0.67538788118490        1.60275986834348
H            4.00549975674780        0.63407089588790        0.96912406342503
20
 energy: -27.123597281529 gnorm: 0.000134922935 xtb: 6.7.1 (edcfbbe)
C           -3.62643679365073       -0.63860116520934        0.23690414809702
C           -2.32113043420356        0.13864388084440        0.34619326994180
C           -1.16143359504535       -0.62722444027157       -0.28770794111767
C            0.11706292778513        0.16905352593372       -0.28507799683558
O            0.18804850385257        1.37901942753476       -0.24449882244318
O            1.17875440942431       -0.62758363561397       -0.35956764607543
C            2.48516724607220       -0.02731353401620       -0.38619985428256
C            2.99507132047593        0.24238071025871        1.02117691880675
H           -4.43553521123989       -0.08280980920557        0.70244999735306
H           -3.88224250247407       -0.81083484446542       -0.80552258094128
H           -3.53852256550758       -1.60120043693120        0.73439050813279
H           -2.09201528294181        0.33169243543593        1.39594570572033
H           -2.41621633069037        1.10638980917287       -0.14953789723379
H           -1.39438564072023       -0.85010730722382       -1.33231744302195
H           -0.98041124093784       -1.57442912639813        0.22060001770066
H            3.11050202100038       -0.75612250923041       -0.90263490119706
H            2.43024698438749        0.90266621379958       -0.96026251268267
H            2.35820257897630        0.97387885229876        1.51363512183931
H            2.99485990404317       -0.67608375472939        1.60181928951749
H            4.00566388992639        0.63393523758528        0.96866187297143
20
 energy: -27.123597874529 gnorm: 0.000108574221 xtb: 6.7.1 (edcfbbe)
C           -3.62690432175657       -0.63857135123624        0.23525248300896
C           -2.32197656575587        0.13918329054474        0.34558040963217
C           -1.16085552828514       -0.62782614817650       -0.28435239125912
C            0.11714645146054        0.16924109957194       -0.28195526341778
O            0.18791726737256        1.37911421584611       -0.23748988999967
O            1.17902857798409       -0.62676964105145       -0.36146559368518
C            2.48521037892245       -0.02611812630432       -0.38789035766578
C            2.99561330597696        0.24137455531735        1.01979987699132
H           -4.43740883221389       -0.08144489816801        0.69675574582530
H           -3.87970630972569       -0.81407972774981       -0.80735550019824
H           -3.54021501434541       -1.59960120223929        0.73599658921416
H           -2.09501953751795        0.33450447243191        1.39536885710762
H           -2.41619560977508        1.10591315357969       -0.15232421498569
H           -1.39207100962453       -0.85420946380969       -1.32858601354440
H           -0.97992045523508       -1.57335860986165        0.22710734025289
H            3.11043488604154       -0.75392501414518       -0.90586139657136
H            2.42976395594763        0.90483079120158       -0.96031674611695
H            2.35881495316114        0.97218759253697        1.51341792744918
H            2.99536831672925       -0.67798679539439        1.59905836332803
H            4.00622527917148        0.63289133667525        0.96770902888400
20
 energy: -27.123598448912 gnorm: 0.000204970748 xtb: 6.7.1 (edcfbbe)
C           -3.62763223355416       -0.63840327588302        0.23324278417696
C           -2.32304031704402        0.13978022283929        0.34443531981260
C           -1.16025972807548       -0.62887003465238       -0.28046619803476
C            0.11719857381348        0.16897332754395       -0.27789078839674
O            0.18756568797938        1.37869023733313       -0.22829191137017
O            1.17941675982356       -0.62609898254027       -0.36335209941510
C            2.48511571917147       -0.02447353359870       -0.38968821098517
C            2.99665108600057        0.24026652385199        1.01815792938878
H           -4.43939221585982       -0.07953230837130        0.69040395100799
H           -3.87748828103692       -0.81772086905721       -0.80943747383541
H           -3.54238837027084       -1.59757480478354        0.73778309723151
H           -2.09853189914581        0.33832841961499        1.39415357935035
H           -2.41622980930982        1.10503459061559       -0.15651506659042
H           -1.38894578884890       -0.85933723721374       -1.32432547448343
H           -0.97976926705122       -1.57246636978009        0.23470427904121
H            3.11024898220971       -0.75071781000329       -0.90987827292555
H            2.42853940899008        0.90771789051516       -0.95992975085854
H            2.36028673764729        0.97027342416527        1.51355894963867
H            2.99660147497082       -0.68019416754586        1.59569900377227
H            4.00730366812306        0.63167428651902        0.96608560772444
20
 energy: -27.123598973865 gnorm: 0.000227293184 xtb: 6.7.1 (edcfbbe)
C           -3.62868899154152       -0.63822620267610        0.23118933179468
C           -2.32440448081871        0.14040568987672        0.34266668158127
C           -1.15976244840805       -0.63000466171125       -0.27644680830870
C            0.11731105071005        0.16839327563989       -0.27315725378085
O            0.18722666393262        1.37790628287476       -0.21802802239418
O            1.17986163544111       -0.62564256959122       -0.36475120568526
C            2.48494145202876       -0.02267458273115       -0.39129619626317