
                                 *****************
                                 * O   R   C   A *
                                 *****************

                                            #,                                       
                                            ###                                      
                                            ####                                     
                                            #####                                    
                                            ######                                   
                                           ########,                                 
                                     ,,################,,,,,                         
                               ,,#################################,,                 
                          ,,##########################################,,             
                       ,#########################################, ''#####,          
                    ,#############################################,,   '####,        
                  ,##################################################,,,,####,       
                ,###########''''           ''''###############################       
              ,#####''   ,,,,##########,,,,          '''####'''          '####       
            ,##' ,,,,###########################,,,                        '##       
           ' ,,###''''                  '''############,,,                           
         ,,##''                                '''############,,,,        ,,,,,,###''
      ,#''                                            '''#######################'''  
     '                                                          ''''####''''         
             ,#######,   #######,   ,#######,      ##                                
            ,#'     '#,  ##    ##  ,#'     '#,    #''#        ,####,   ,####,        
            ##       ##  ##   ,#'  ##            #'  '#       #'       #'  '#        
            ##       ##  #######   ##           ,######,      #####,   #    #        
            '#,     ,#'  ##    ##  '#,     ,#' ,#      #,     #,   #   #,  ,#        
             '#######'   ##     ##  '#######'  #'      '#     '####' # '####'        



                #########################################################
                #                        -***-                          #
                #          Department of theory and spectroscopy        #
                #                                                       #
                #                      Frank Neese                      #
                #                                                       #
                #     Directorship, Architecture, Infrastructure        #
                #                    SHARK, DRIVERS                     #
                #        Core code/Algorithms in most modules           #
                #                                                       #
                #        Max Planck Institute fuer Kohlenforschung      #
                #                Kaiser Wilhelm Platz 1                 #
                #                 D-45470 Muelheim/Ruhr                 #
                #                      Germany                          #
                #                                                       #
                #                  All rights reserved                  #
                #                        -***-                          #
                #########################################################


                         Program Version 6.0.0  -   RELEASE  -


 With contributions from (in alphabetic order):
   Daniel Aravena         : Magnetic Suceptibility
   Michael Atanasov       : Ab Initio Ligand Field Theory (pilot matlab implementation)
   Alexander A. Auer      : GIAO ZORA, VPT2 properties, NMR spectrum
   Ute Becker             : All parallelization in ORCA, NUMFREQ, NUMCALC
   Giovanni Bistoni       : ED, misc. LED, open-shell LED, HFLD
   Martin Brehm           : Molecular dynamics
   Dmytro Bykov           : pre 5.0 version of the SCF Hessian
   Marcos Casanova-Páez   : Triplet and SCS-CIS(D). UHF-(DLPNO)-IP/EA/STEOM-CCSD. UHF-CVS-IP/STEOM-CCSD
   Vijay G. Chilkuri      : MRCI spin determinant printing, contributions to CSF-ICE
   Pauline Colinet        : FMM embedding
   Dipayan Datta          : RHF DLPNO-CCSD density
   Achintya Kumar Dutta   : EOM-CC, STEOM-CC
   Nicolas Foglia         : Exact transition moments, OPA infrastructure, MCD improvements
   Dmitry Ganyushin       : Spin-Orbit,Spin-Spin,Magnetic field MRCI
   Miquel Garcia          : C-PCM and meta-GGA Hessian, CCSD/C-PCM, Gaussian charge scheme
   Tiago L. C. Gouveia    : GS-ROHF, GS-ROCIS
   Yang Guo               : DLPNO-NEVPT2, F12-NEVPT2, CIM, IAO-localization
   Andreas Hansen         : Spin unrestricted coupled pair/coupled cluster methods
   Ingolf Harden          : AUTO-CI MPn and infrastructure 
   Benjamin Helmich-Paris : MC-RPA, TRAH-(SCF,CASSCF), AVAS, COSX integrals, SCF dyn. polar.
   Lee Huntington         : MR-EOM, pCC
   Robert Izsak           : Overlap fitted RIJCOSX, COSX-SCS-MP3, EOM
   Riya Kayal             : Wick's Theorem for AUTO-CI, AUTO-CI UHF-CCSDT
   Emily Kempfer          : AUTO-CI, RHF CISDT and CCSDT
   Christian Kollmar      : KDIIS, OOCD, Brueckner-CCSD(T), CCSD density, CASPT2, CASPT2-K, improved NEVPT2
   Axel Koslowski         : Symmetry handling
   Simone Kossmann        : Meta GGA functionals, TD-DFT gradient, OOMP2, (MP2 Hessian; deprecated post 5.0)
   Lucas Lang             : DCDCAS
   Marvin Lechner         : AUTO-CI (C++ implementation), FIC-MRCC
   Spencer Leger          : CASSCF response
   Dagmar Lenk            : GEPOL surface, SMD, ORCA-2-JSON
   Dimitrios Liakos       : Extrapolation schemes; Compound Job, initial MDCI parallelization
   Dimitrios Manganas     : Further ROCIS development; embedding schemes. LFT, Crystal Embedding
   Dimitrios Pantazis     : SARC Basis sets
   Anastasios Papadopoulos: AUTO-CI, single reference methods and gradients
   Taras Petrenko         : pre 6.0 DFT Hessian and TD-DFT gradient, (ASA, deprecated), ECA, 1-Electron XAS/XES, NRVS
   Peter Pinski           : DLPNO-MP2, DLPNO-MP2 Gradient
   Christoph Reimann      : Effective Core Potentials
   Marius Retegan         : Local ZFS, SOC
   Christoph Riplinger    : Optimizer, TS searches, QM/MM, DLPNO-CCSD(T), (RO)-DLPNO pert. Triples
   Michael Roemelt        : Original ROCIS implementation
   Masaaki Saitow         : Open-shell DLPNO-CCSD energy and density
   Barbara Sandhoefer     : DKH picture change effects
   Kantharuban Sivalingam : CASSCF convergence/infrastructure, NEVPT2 and variants, FIC-MRCI
   Bernardo de Souza      : ESD, SOC TD-DFT
   Georgi Stoychev        : AutoAux, RI-MP2 NMR, DLPNO-MP2 response, X2C
   Van Anh Tran           : RI-MP2 g-tensors
   Willem Van den Heuvel  : Paramagnetic NMR
   Zikuan Wang            : NOTCH, Electric field optimization 
   Frank Wennmohs         : Technical directorship and infrastructure
   Hang Xu                : AUTO-CI-Response properties 


 We gratefully acknowledge several colleagues who have allowed us to
 interface, adapt or use parts of their codes:
   Stefan Grimme, W. Hujo, H. Kruse, P. Pracht,  : VdW corrections, initial TS optimization,
                  C. Bannwarth, S. Ehlert,         DFT functionals, gCP, sTDA/sTD-DF
                  L. Wittmann, M. Mueller
   Ed Valeev, F. Pavosevic, A. Kumar             : LibInt (2-el integral package), F12 methods
   Garnet Chan, S. Sharma, J. Yang, R. Olivares  : DMRG
   Ulf Ekstrom                                   : XCFun DFT Library
   Mihaly Kallay                                 : mrcc  (arbitrary order and MRCC methods)
   Frank Weinhold                                : gennbo (NPA and NBO analysis)
   Simon Mueller                                 : openCOSMO-RS
   Christopher J. Cramer and Donald G. Truhlar   : smd solvation model
   Lars Goerigk                                  : TD-DFT with DH, B97 family of functionals
   V. Asgeirsson, H. Jonsson                     : NEB implementation
   FAccTs GmbH                                   : IRC, NEB, NEB-TS, DLPNO-Multilevel, CI-OPT
                                                   MM, QMMM, 2- and 3-layer-ONIOM, Crystal-QMMM,
                                                   LR-CPCM, SF, NACMEs, symmetry and pop. for TD-DFT,
                                                   nearIR, NL-DFT gradient (VV10), updates on ESD,
                                                   ML-optimized integration grids, MBIS, APM,
                                                   GOAT, DOCKER, SOLVATOR, interface openCOSMO-RS
   S Lehtola, MJT Oliveira, MAL Marques          : LibXC Library
   Liviu Ungur et al                             : ANISO software


 Your calculation uses the libint2 library for the computation of 2-el integrals
 For citations please refer to: http://libint.valeyev.net

 Your ORCA version has been built with support for libXC version: 6.2.2
 For citations please refer to: https://libxc.gitlab.io

 This ORCA versions uses:
   CBLAS   interface :  Fast vector & matrix operations
   LAPACKE interface :  Fast linear algebra routines
   SCALAPACK package :  Parallel linear algebra routines
   Shared memory     :  Shared parallel matrices
   BLAS/LAPACK       :  OpenBLAS 0.3.27  USE64BITINT DYNAMIC_ARCH NO_AFFINITY SkylakeX SINGLE_THREADED
        Core in use  :  SkylakeX
   Copyright (c) 2011-2014, The OpenBLAS Project


Your calculation utilizes the geometrical counterpoise correction gCP
Please cite in your paper:
H.Kruse, S. Grimme J.Chem.Phys., 136, (2012), 154101 
   

Your calculation utilizes the atom-pairwise dispersion correction
based on EEQ partial charges (D4)


================================================================================

----- Orbital basis set information -----
Your calculation utilizes the basis: def2-mTZVPP
   Stefan Grimme, Andreas Hansen, Sebastian Ehlert, and Jan-Michael Mewes 
   J. Chem. Phys. 154, 064103 (2021). DOI: 10.1063/5.0040021

----- AuxJ basis set information -----
Your calculation utilizes the auxiliary basis: def2/J
   F. Weigend, Phys. Chem. Chem. Phys. 8, 1057 (2006).

================================================================================
                                        WARNINGS
                       Please study these warnings very carefully!
================================================================================

Using LibXC functional ID 497 : Re-regularized SCAN exchange by Furness et al
[ 1]  J. W. Furness, A. D. Kaplan, J. Ning, J. P. Perdew, and J. Sun.,  J. Phys. Chem. Lett. 11, 8208-8215 (2020)
[ 2]  J. W. Furness, A. D. Kaplan, J. Ning, J. P. Perdew, and J. Sun.,  J. Phys. Chem. Lett. 11, 9248-9248 (2020)
Using LibXC functional ID 498 : Re-regularized SCAN correlation by Furness et al
[ 1]  J. W. Furness, A. D. Kaplan, J. Ning, J. P. Perdew, and J. Sun.,  J. Phys. Chem. Lett. 11, 8208-8215 (2020)
[ 2]  J. W. Furness, A. D. Kaplan, J. Ning, J. P. Perdew, and J. Sun.,  J. Phys. Chem. Lett. 11, 9248-9248 (2020)
Using LibXC functional ID 497 : Re-regularized SCAN exchange by Furness et al
[ 1]  J. W. Furness, A. D. Kaplan, J. Ning, J. P. Perdew, and J. Sun.,  J. Phys. Chem. Lett. 11, 8208-8215 (2020)
[ 2]  J. W. Furness, A. D. Kaplan, J. Ning, J. P. Perdew, and J. Sun.,  J. Phys. Chem. Lett. 11, 9248-9248 (2020)
Using LibXC functional ID 498 : Re-regularized SCAN correlation by Furness et al
[ 1]  J. W. Furness, A. D. Kaplan, J. Ning, J. P. Perdew, and J. Sun.,  J. Phys. Chem. Lett. 11, 8208-8215 (2020)
[ 2]  J. W. Furness, A. D. Kaplan, J. Ning, J. P. Perdew, and J. Sun.,  J. Phys. Chem. Lett. 11, 9248-9248 (2020)

================================================================================
                                       INPUT FILE
================================================================================
NAME = sp_gas.inp
|  1> ! r2scan-3c def2/J RI DEFGRID2 scfconv6 printgap
|  2> %output
|  3>     printlevel normal
|  4> end
|  5> * xyz 0 1
|  6> C -4.537149315 -1.0399567613 0.3456390585
|  7> C -3.8429407351 -2.2209232141 0.1213411045
|  8> C -2.480143309 -2.1901025256 -0.1085898983
|  9> C -1.7853697345 -0.9821960919 -0.1133565954
| 10> C -2.4866837601 0.2067709921 0.1149153785
| 11> C -3.8615886776 0.1654788873 0.340376467
| 12> C -1.7896622165 1.4984852584 0.1191222658
| 13> O -2.3963554285 2.5551960834 0.2864994597
| 14> C -0.3298128876 1.4665719062 -0.0740782343
| 15> C 0.3368535812 2.6757704735 0.0172213585
| 16> C 1.7189905146 2.73050619 -0.1406422747
| 17> C 2.4276249107 1.5871165314 -0.3903818531
| 18> C 1.7927445129 0.3265261153 -0.4982047786
| 19> C 0.3735557813 0.2650667878 -0.3306488968
| 20> C -0.3326249504 -0.9965751236 -0.3775441002
| 21> O 0.2189316439 -2.086111453 -0.6182286514
| 22> N 2.4861700329 -0.7798695379 -0.8068057276
| 23> C 3.9085461049 -0.9744742412 -0.6913406446
| 24> C 4.3051471937 -1.3824490208 0.7412717032
| 25> O 4.0888217795 -0.3615032445 1.6878834106
| 26> H -5.6007675372 -1.0611187011 0.5235939109
| 27> H -4.3654877373 -3.1646580417 0.1245789597
| 28> H -1.923252268 -3.097619274 -0.2892582016
| 29> H -4.3753664099 1.1000521 0.5108333005
| 30> H -0.2406521169 3.5658713123 0.2140699889
| 31> H 2.227765772 3.6788502228 -0.0678854722
| 32> H 3.4939285325 1.651309683 -0.5212975006
| 33> H 1.9259054998 -1.6318493032 -0.8083862145
| 34> H 4.4458160058 -0.0731449754 -0.9869995356
| 35> H 4.187832888 -1.7834181208 -1.3677696708
| 36> H 5.351809551 -1.7068983066 0.7473997118
| 37> H 3.6771801178 -2.2167588779 1.0637214629
| 38> H 4.7465374339 0.3364408109 1.5638236617
| 39> *
| 40> 
| 41>                          ****END OF INPUT****
================================================================================

                       ****************************
                       * Single Point Calculation *
                       ****************************

---------------------------------
CARTESIAN COORDINATES (ANGSTROEM)
---------------------------------
  C     -4.537149   -1.039957    0.345639
  C     -3.842941   -2.220923    0.121341
  C     -2.480143   -2.190103   -0.108590
  C     -1.785370   -0.982196   -0.113357
  C     -2.486684    0.206771    0.114915
  C     -3.861589    0.165479    0.340376
  C     -1.789662    1.498485    0.119122
  O     -2.396355    2.555196    0.286499
  C     -0.329813    1.466572   -0.074078
  C      0.336854    2.675770    0.017221
  C      1.718991    2.730506   -0.140642
  C      2.427625    1.587117   -0.390382
  C      1.792745    0.326526   -0.498205
  C      0.373556    0.265067   -0.330649
  C     -0.332625   -0.996575   -0.377544
  O      0.218932   -2.086111   -0.618229
  N      2.486170   -0.779870   -0.806806
  C      3.908546   -0.974474   -0.691341
  C      4.305147   -1.382449    0.741272
  O      4.088822   -0.361503    1.687883
  H     -5.600768   -1.061119    0.523594
  H     -4.365488   -3.164658    0.124579
  H     -1.923252   -3.097619   -0.289258
  H     -4.375366    1.100052    0.510833
  H     -0.240652    3.565871    0.214070
  H      2.227766    3.678850   -0.067885
  H      3.493929    1.651310   -0.521298
  H      1.925905   -1.631849   -0.808386
  H      4.445816   -0.073145   -0.987000
  H      4.187833   -1.783418   -1.367770
  H      5.351810   -1.706898    0.747400
  H      3.677180   -2.216759    1.063721
  H      4.746537    0.336441    1.563824

----------------------------
CARTESIAN COORDINATES (A.U.)
----------------------------
  NO LB      ZA    FRAG     MASS         X           Y           Z
   0 C     6.0000    0    12.011   -8.573970   -1.965233    0.653163
   1 C     6.0000    0    12.011   -7.262106   -4.196937    0.229301
   2 C     6.0000    0    12.011   -4.686792   -4.138694   -0.205205
   3 C     6.0000    0    12.011   -3.373860   -1.856082   -0.214213
   4 C     6.0000    0    12.011   -4.699151    0.390741    0.217159
   5 C     6.0000    0    12.011   -7.297345    0.312710    0.643218
   6 C     6.0000    0    12.011   -3.381971    2.831727    0.225108
   7 O     8.0000    0    15.999   -4.528455    4.828621    0.541406
   8 C     6.0000    0    12.011   -0.623256    2.771419   -0.139988
   9 C     6.0000    0    12.011    0.636561    5.056473    0.032544
  10 C     6.0000    0    12.011    3.248421    5.159909   -0.265775
  11 C     6.0000    0    12.011    4.587546    2.999216   -0.737715
  12 C     6.0000    0    12.011    3.387796    0.617045   -0.941471
  13 C     6.0000    0    12.011    0.705918    0.500904   -0.624836
  14 C     6.0000    0    12.011   -0.628570   -1.883254   -0.713455
  15 O     8.0000    0    15.999    0.413721   -3.942179   -1.168283
  16 N     7.0000    0    14.007    4.698180   -1.473740   -1.524642
  17 C     6.0000    0    12.011    7.386082   -1.841489   -1.306444
  18 C     6.0000    0    12.011    8.135549   -2.612450    1.400801
  19 O     8.0000    0    15.999    7.726753   -0.683142    3.189637
  20 H     1.0000    0     1.008  -10.583917   -2.005224    0.989449
  21 H     1.0000    0     1.008   -8.249576   -5.980337    0.235420
  22 H     1.0000    0     1.008   -3.634420   -5.853652   -0.546619
  23 H     1.0000    0     1.008   -8.268244    2.078797    0.965335
  24 H     1.0000    0     1.008   -0.454767    6.738520    0.404534
  25 H     1.0000    0     1.008    4.209867    6.952019   -0.128285
  26 H     1.0000    0     1.008    6.602568    3.120523   -0.985110
  27 H     1.0000    0     1.008    3.639434   -3.083748   -1.527629
  28 H     1.0000    0     1.008    8.401375   -0.138224   -1.865159
  29 H     1.0000    0     1.008    7.913857   -3.370172   -2.584710
  30 H     1.0000    0     1.008   10.113454   -3.225570    1.412381
  31 H     1.0000    0     1.008    6.948863   -4.189067    2.010142
  32 H     1.0000    0     1.008    8.969656    0.635781    2.955198

--------------------------------
INTERNAL COORDINATES (ANGSTROEM)
--------------------------------
 C      0   0   0     0.000000000000     0.00000000     0.00000000
 C      1   0   0     1.388134318866     0.00000000     0.00000000
 C      2   1   0     1.382401897233   120.06072393     0.00000000
 C      3   2   1     1.393474432417   120.75813232     0.26708779
 C      4   3   2     1.399139801238   119.08745913   359.82978886
 C      1   2   3     1.381841153168   119.80456474   359.90007556
 C      5   4   3     1.467781480979   120.68274166   179.92978781
 O      7   5   4     1.229930707884   121.48301339   178.24386438
 C      7   5   4     1.472923948606   116.82211701   357.69935341
 C      9   7   5     1.383813922255   116.73707988   184.09371597
 C     10   9   7     1.392199492895   120.34143378   179.41076740
 C     11  10   9     1.368163906756   120.13526822     0.14107339
 C     12  11  10     1.415551871157   121.72403022     0.10824320
 C      9   7   5     1.415687302616   122.31607769     3.59922539
 C     14   9   7     1.446592789463   120.23398274   358.39312176
 O     15  14   9     1.244681944508   123.59942703   178.84448282
 N     13  12  11     1.341709670134   121.33679824   176.75341690
 C     17  13  12     1.440262776766   127.11268398    19.38350079
 C     18  17  13     1.541464882343   111.36835366    83.63005318
 O     19  18  17     1.408971499911   113.14886363   293.31560729
 H      1   2   3     1.078609975749   120.20650313   179.89391323
 H      2   1   3     1.078749868153   120.10217619   180.08834393
 H      3   2   1     1.079979312760   121.15981728   180.26215153
 H      6   1   2     1.080023231320   121.44576883   179.93760826
 H     10   9   7     1.079139341263   118.35701103   359.50814948
 H     11  10   9     1.078657600631   119.68182484   179.96792120
 H     12  11  10     1.076226315111   119.04701837   179.26432874
 H     17  13  12     1.019690328222   113.91498072   177.08058292
 H     18  17  13     1.090168597799   110.68663856   320.76404804
 H     18  17  13     1.090847163925   107.65800536   202.22310060
 H     19  18  17     1.095813388189   109.22679446   169.20419037
 H     19  18  17     1.092881253201   109.17296249    50.43009603
 H     20  19  18     0.967009104305   109.41250031   287.85683455

---------------------------
INTERNAL COORDINATES (A.U.)
---------------------------
 C      0   0   0     0.000000000000     0.00000000     0.00000000
 C      1   0   0     2.623193699755     0.00000000     0.00000000
 C      2   1   0     2.612360992783   120.06072393     0.00000000
 C      3   2   1     2.633285051889   120.75813232     0.26708779
 C      4   3   2     2.643991047408   119.08745913   359.82978886
 C      1   2   3     2.611301340070   119.80456474   359.90007556
 C      5   4   3     2.773705023493   120.68274166   179.92978781
 O      7   5   4     2.324232201601   121.48301339   178.24386438
 C      7   5   4     2.783422878959   116.82211701   357.69935341
 C      9   7   5     2.615029333370   116.73707988   184.09371597
 C     10   9   7     2.630875765355   120.34143378   179.41076740
 C     11  10   9     2.585455090084   120.13526822     0.14107339
 C     12  11  10     2.675005364847   121.72403022     0.10824320
 C      9   7   5     2.675261293213   122.31607769     3.59922539
 C     14   9   7     2.733664199391   120.23398274   358.39312176
 O     15  14   9     2.352107998957   123.59942703   178.84448282
 N     13  12  11     2.535463827787   121.33679824   176.75341690
 C     17  13  12     2.721702208968   127.11268398    19.38350079
 C     18  17  13     2.912946472685   111.36835366    83.63005318
 O     19  18  17     2.662570265331   113.14886363   293.31560729
 H      1   2   3     2.038277459481   120.20650313   179.89391323
 H      2   1   3     2.038541817812   120.10217619   180.08834393
 H      3   2   1     2.040865131417   121.15981728   180.26215153
 H      6   1   2     2.040948125467   121.44576883   179.93760826
 H     10   9   7     2.039277815327   118.35701103   359.50814948
 H     11  10   9     2.038367457466   119.68182484   179.96792120
 H     12  11  10     2.033772993678   119.04701837   179.26432874
 H     17  13  12     1.926935461748   113.91498072   177.08058292
 H     18  17  13     2.060120089642   110.68663856   320.76404804
 H     18  17  13     2.061402393782   107.65800536   202.22310060
 H     19  18  17     2.070787197562   109.22679446   169.20419037
 H     19  18  17     2.065246265447   109.17296249    50.43009603
 H     20  19  18     1.827382376144   109.41250031   287.85683455

---------------------
BASIS SET INFORMATION
---------------------
There are 4 groups of distinct atoms

 Group   1 Type C   : 11s6p1d contracted to 5s3p1d pattern {62111/411/1}
 Group   2 Type O   : 11s6p2d contracted to 5s3p2d pattern {62111/411/11}
 Group   3 Type N   : 11s6p2d contracted to 5s3p2d pattern {62111/411/11}
 Group   4 Type H   : 4s1p contracted to 2s1p pattern {31/1}

Atom   0C    basis set group =>   1
Atom   1C    basis set group =>   1
Atom   2C    basis set group =>   1
Atom   3C    basis set group =>   1
Atom   4C    basis set group =>   1
Atom   5C    basis set group =>   1
Atom   6C    basis set group =>   1
Atom   7O    basis set group =>   2
Atom   8C    basis set group =>   1
Atom   9C    basis set group =>   1
Atom  10C    basis set group =>   1
Atom  11C    basis set group =>   1
Atom  12C    basis set group =>   1
Atom  13C    basis set group =>   1
Atom  14C    basis set group =>   1
Atom  15O    basis set group =>   2
Atom  16N    basis set group =>   3
Atom  17C    basis set group =>   1
Atom  18C    basis set group =>   1
Atom  19O    basis set group =>   2
Atom  20H    basis set group =>   4
Atom  21H    basis set group =>   4
Atom  22H    basis set group =>   4
Atom  23H    basis set group =>   4
Atom  24H    basis set group =>   4
Atom  25H    basis set group =>   4
Atom  26H    basis set group =>   4
Atom  27H    basis set group =>   4
Atom  28H    basis set group =>   4
Atom  29H    basis set group =>   4
Atom  30H    basis set group =>   4
Atom  31H    basis set group =>   4
Atom  32H    basis set group =>   4
---------------------------------
AUXILIARY/J BASIS SET INFORMATION
---------------------------------
There are 4 groups of distinct atoms

 Group   1 Type C   : 12s5p4d2f1g contracted to 6s4p3d1f1g pattern {711111/2111/211/2/1}
 Group   2 Type O   : 12s5p4d2f1g contracted to 6s4p3d1f1g pattern {711111/2111/211/2/1}
 Group   3 Type N   : 12s5p4d2f1g contracted to 6s4p3d1f1g pattern {711111/2111/211/2/1}
 Group   4 Type H   : 5s2p1d contracted to 3s1p1d pattern {311/2/1}

Atom   0C    basis set group =>   1
Atom   1C    basis set group =>   1
Atom   2C    basis set group =>   1
Atom   3C    basis set group =>   1
Atom   4C    basis set group =>   1
Atom   5C    basis set group =>   1
Atom   6C    basis set group =>   1
Atom   7O    basis set group =>   2
Atom   8C    basis set group =>   1
Atom   9C    basis set group =>   1
Atom  10C    basis set group =>   1
Atom  11C    basis set group =>   1
Atom  12C    basis set group =>   1
Atom  13C    basis set group =>   1
Atom  14C    basis set group =>   1
Atom  15O    basis set group =>   2
Atom  16N    basis set group =>   3
Atom  17C    basis set group =>   1
Atom  18C    basis set group =>   1
Atom  19O    basis set group =>   2
Atom  20H    basis set group =>   4
Atom  21H    basis set group =>   4
Atom  22H    basis set group =>   4
Atom  23H    basis set group =>   4
Atom  24H    basis set group =>   4
Atom  25H    basis set group =>   4
Atom  26H    basis set group =>   4
Atom  27H    basis set group =>   4
Atom  28H    basis set group =>   4
Atom  29H    basis set group =>   4
Atom  30H    basis set group =>   4
Atom  31H    basis set group =>   4
Atom  32H    basis set group =>   4

Checking for AutoStart:
The File: sp_gas.gbw exists
Trying to determine its content:
     ... Fine, the file contains calculation information
     ... Fine, the calculation information was read
     ... Fine, the file contains a basis set
     ... Fine, the basis set was read
     ... Fine, the file contains a geometry
     ... Fine, the geometry was read
     ... Fine, the file contains a set of orbitals
     ... Fine, the orbitals can be read
     => possible old guess file was deleted
     => GBW file was renamed to GES file
     => GES file is set as startup file
     => Guess is set to MORead
     ... now leaving AutoStart

------------------------------------------------------------------------------
                             ORCA STARTUP CALCULATIONS
                           -- RI-GTO INTEGRALS CHOSEN --
------------------------------------------------------------------------------
------------------------------------------------------------------------------
                   ___                                                        
                  /   \      - P O W E R E D   B Y -                         
                 /     \                                                     
                 |  |  |   _    _      __       _____    __    __             
                 |  |  |  | |  | |    /  \     |  _  \  |  |  /  |          
                  \  \/   | |  | |   /    \    | | | |  |  | /  /          
                 / \  \   | |__| |  /  /\  \   | |_| |  |  |/  /          
                |  |  |   |  __  | /  /__\  \  |    /   |      \           
                |  |  |   | |  | | |   __   |  |    \   |  |\   \          
                \     /   | |  | | |  |  |  |  | |\  \  |  | \   \       
                 \___/    |_|  |_| |__|  |__|  |_| \__\ |__|  \__/        
                                                                              
                      - O R C A' S   B I G   F R I E N D -                    
                                      &                                       
                       - I N T E G R A L  F E E D E R -                       
                                                                              
 v1 FN, 2020, v2 2021, v3 2022-2024                                           
------------------------------------------------------------------------------


----------------------
SHARK INTEGRAL PACKAGE
----------------------

Number of atoms                             ...     33
Number of basis functions                   ...    465
Number of shells                            ...    223
Maximum angular momentum                    ...      2
Integral batch strategy                     ... SHARK/LIBINT Hybrid
RI-J (if used) integral strategy            ... SPLIT-RIJ (Revised 2003 algorithm where possible)
Printlevel                                  ...      1
Contraction scheme used                     ... SEGMENTED contraction
Prescreening option                         ... SCHWARTZ
   Thresh                                   ... 1.000e-10
   Tcut                                     ... 1.000e-11
   Tpresel                                  ... 1.000e-11 
Coulomb Range Separation                    ... NOT USED
Exchange Range Separation                   ... NOT USED
Multipole approximations                    ... NOT USED
Finite Nucleus Model                        ... NOT USED
CABS basis                                  ... NOT available
Auxiliary Coulomb fitting basis             ... AVAILABLE
   # of basis functions in Aux-J            ...   1123
   # of shells in Aux-J                     ...    365
   Maximum angular momentum in Aux-J        ...      4
Auxiliary J/K fitting basis                 ... NOT available
Auxiliary Correlation fitting basis         ... NOT available
Auxiliary 'external' fitting basis          ... NOT available

Checking pre-screening integrals            ... done (  0.0 sec) Dimension = 223
Check shell pair data                       ... done (  0.0 sec)
Shell pair information
Shell pair cut-off parameter TPreSel        ...   1.0e-11
Total number of shell pairs                 ...     24976
Shell pairs after pre-screening             ...     18112
Total number of primitive shell pairs       ...     92714
Primitive shell pairs kept                  ...     42846
          la=0 lb=0:   5433 shell pairs
          la=1 lb=0:   6881 shell pairs
          la=1 lb=1:   2169 shell pairs
          la=2 lb=0:   2081 shell pairs
          la=2 lb=1:   1330 shell pairs
          la=2 lb=2:    218 shell pairs

Calculating one electron integrals          ... done (  0.1 sec)
Calculating RI/J V-Matrix + Cholesky decomp.... done (  0.3 sec)
Calculating Nuclear repulsion               ... done (  0.0 sec) ENN=   1476.801063503911 Eh

Diagonalization of the overlap matrix:
Smallest eigenvalue                        ... 6.371e-06
Time for diagonalization                   ...    0.029 sec
Threshold for overlap eigenvalues          ... 1.000e-07
Number of eigenvalues below threshold      ... 0
Time for construction of square roots      ...    0.047 sec
Total time needed                          ...    0.107 sec

-------------------
DFT GRID GENERATION
-------------------

General Integration Accuracy     IntAcc      ... 4.388
Radial Grid Type                 RadialGrid  ... OptM3 with GC (2021)
Angular Grid (max. ang.)         AngularGrid ... 4 (Lebedev-302)
Angular grid pruning method      GridPruning ... 4 (adaptive)
Weight generation scheme         WeightScheme... mBecke (2022)
Basis function cutoff            BFCut       ... 1.0000e-10
Integration weight cutoff        WCut        ... 1.0000e-14
Partially contracted basis set               ... off
Rotationally invariant grid construction     ... off
Angular grids for H and He will be reduced by one unit
Diffuse basis detected: some atoms will have their outermost
                        angular grid increased by 1.

Total number of grid points                  ...   161795
Total number of batches                      ...     2548
Average number of points per batch           ...       63
Average number of grid points per atom       ...     4903
Initializing property integral containers    ... done (  0.0 sec)

SHARK setup successfully completed in   3.8 seconds

Maximum memory used throughout the entire STARTUP-calculation: 83.9 MB
-------------------------------------------------------------------------------
                                 ORCA GUESS
                   Start orbitals & Density for SCF / CASSCF
-------------------------------------------------------------------------------

------------
SCF SETTINGS
------------
Hamiltonian:
 Density Functional     Method          .... DFT(GTOs)
  Functional kind                       .... Exchange
  Functional name                       .... Re-regularized SCAN exchange by Furness et al
  Functional family                     .... MGGA
  Functional refs                              
    [ 0] J. W. Furness, A. D. Kaplan, J. Ning, J. P. Perdew, and J. Sun.,  J. Phys. Chem. Lett. 11, 8208-8215 (2020), doi: 10.1021/acs.jpclett.0c02405
    [ 1] J. W. Furness, A. D. Kaplan, J. Ning, J. P. Perdew, and J. Sun.,  J. Phys. Chem. Lett. 11, 9248-9248 (2020), doi: 10.1021/acs.jpclett.0c03077
  Functional external parameters        .... 6
    Parameter  0 _c1        =  6.670000e-01 : c1 parameter        
    Parameter  1 _c2        =  8.000000e-01 : c2 parameter        
    Parameter  2 _d         =  1.240000e+00 : d parameter         
    Parameter  3 _k1        =  6.500000e-02 : k1 parameter        
    Parameter  4 _eta       =  1.000000e-03 : eta parameter       
    Parameter  5 _dp2       =  3.610000e-01 : dp2 parameter       
  Functional kind                       .... Correlation
  Functional name                       .... Re-regularized SCAN correlation by Furness et al
  Functional family                     .... MGGA
  Functional refs                              
    [ 0] J. W. Furness, A. D. Kaplan, J. Ning, J. P. Perdew, and J. Sun.,  J. Phys. Chem. Lett. 11, 8208-8215 (2020), doi: 10.1021/acs.jpclett.0c02405
    [ 1] J. W. Furness, A. D. Kaplan, J. Ning, J. P. Perdew, and J. Sun.,  J. Phys. Chem. Lett. 11, 9248-9248 (2020), doi: 10.1021/acs.jpclett.0c03077
  Functional external parameters        .... 1
    Parameter  0 _eta       =  1.000000e-03 : Regularization parameter
 Gradients option       PostSCFGGA      .... off
 RI-approximation to the Coulomb term is turned on
   Number of AuxJ basis functions       .... 1123


General Settings:
 Integral files         IntName         .... sp_gas
 Hartree-Fock type      HFTyp           .... RHF
 Total Charge           Charge          ....    0
 Multiplicity           Mult            ....    1
 Number of Electrons    NEL             ....  140
 Basis Dimension        Dim             ....  465
 Nuclear Repulsion      ENuc            ....   1476.8010635039 Eh

Convergence Acceleration:
 AO-DIIS                CNVDIIS         .... on
   Start iteration      DIISMaxIt       ....    12
   Startup error        DIISStart       ....  0.200000
   # of expansion vecs  DIISMaxEq       ....     5
   Bias factor          DIISBfac        ....   1.050
   Max. coefficient     DIISMaxC        ....  10.000
 MO-DIIS                CNVKDIIS        .... off
 Trust-Rad. Augm. Hess. CNVTRAH         .... auto
   Auto Start mean grad. ratio tolernc. ....  1.125000
   Auto Start start iteration           ....     1
   Auto Start num. interpolation iter.  ....    10
   Max. Number of Micro iterations      ....    24
   Max. Number of Macro iterations      .... Maxiter - #DIIS iter
   Number of Davidson start vectors     ....     2
   Converg. threshold    (grad. norm)   ....   3.330e-04
   Grad. Scal. Fac. for Micro threshold ....   0.100
   Minimum threshold for Micro iter.    ....   1.000e-02
   NR start threshold (gradient norm)   ....   1.000e-04
   Initial trust radius                 ....   0.400
   Minimum AH scaling param. (alpha)    ....   1.000
   Maximum AH scaling param. (alpha)    .... 1000.000
   Quad. conv. algorithm                .... NR
   White noise on init. David. guess    .... on
   Maximum white noise                  ....   0.010
   Pseudo random numbers                .... off
   Inactive MOs                         .... canonical
   Orbital update algorithm             .... Taylor
   Preconditioner                       .... Diag
   Full preconditioner red. dimension   ....   250
   COSX micro iterations for RIJONX calc.... off
 SOSCF                  CNVSOSCF        .... on
   Start iteration      SOSCFMaxIt      ....   150
   Startup grad/error   SOSCFStart      ....  0.003300
   Hessian update       SOSCFHessUp     .... L-BFGS
 Level Shifting         CNVShift        .... on
   Level shift para.    LevelShift      ....    0.2500
   Turn off err/grad.   ShiftErr        ....    0.0010
 Zerner damping         CNVZerner       .... off
 Static damping         CNVDamp         .... on
   Fraction old density DampFac         ....    0.7000
   Max. Damping (<1)    DampMax         ....    0.9800
   Min. Damping (>=0)   DampMin         ....    0.0000
   Turn off err/grad.   DampErr         ....    0.1000

SCF Procedure:
 Maximum # iterations   MaxIter         ....   125
 SCF integral mode      SCFMode         .... Direct
   Integral package                     .... SHARK and LIBINT hybrid scheme
 Reset frequency        DirectResetFreq ....    20
 Integral Threshold     Thresh          ....  1.000e-10 Eh
 Primitive CutOff       TCut            ....  1.000e-11 Eh

Convergence Tolerance:
 Convergence Check Mode ConvCheckMode   .... Total+1el-Energy
 Convergence forced     ConvForced      .... 0
 Energy Change          TolE            ....  1.000e-06 Eh
 1-El. energy change                    ....  1.000e-03 Eh
 Orbital Gradient       TolG            ....  3.330e-04
 Orbital Rotation angle TolX            ....  3.330e-04
 DIIS Error             TolErr          ....  1.000e-06

---------------------
INITIAL GUESS: MOREAD
---------------------
Guess MOs are being read from file: sp_gas.ges
Input Geometry matches current geometry (good)
Atom 0: N(Shells)= 9 and 6 - projection required
Input basis set needs projection
NBasis(read)= 306
NBasis(calc)= 465
Basis set overlap was calculated
Using GuessMode=FMatrix for the initial guess
C*T matrix was formed
Effective Fockian was calculated
Effective Fockian was diagonalized
Initial density was built
                      ------------------
                      INITIAL GUESS DONE (   0.1 sec)
                      ------------------
             **** ENERGY FILE WAS UPDATED (sp_gas.en.tmp) ****
Finished Guess after   0.6 sec
Maximum memory used throughout the entire GUESS-calculation: 47.6 MB

-------------------------------------------------------------------------------------------
                                      ORCA LEAN-SCF
                              memory conserving SCF solver
-------------------------------------------------------------------------------------------

----------------------------------------D-I-I-S--------------------------------------------
Iteration    Energy (Eh)           Delta-E    RMSDP     MaxDP     DIISErr   Damp  Time(sec)
-------------------------------------------------------------------------------------------
               ***  Starting incremental Fock matrix formation  ***
    1    -897.3643844740788609     0.00e+00  2.42e-02  1.69e+00  6.27e-01  0.700  12.7
Warning: op=0 Small HOMO/LUMO gap (   0.067) - skipping pre-diagonalization
         Will do a full diagonalization
    2    -897.4890100660702501    -1.25e-01  1.76e-02  1.17e+00  4.40e-01  0.700  10.4
    3    -897.5769708537102360    -8.80e-02  1.23e-02  8.09e-01  3.09e-01  0.700   9.8
    4    -897.6386470276431737    -6.17e-02  8.61e-03  5.61e-01  2.16e-01  0.700  10.0
                               ***Turning on AO-DIIS***
    5    -897.6818859106795117    -4.32e-02  6.01e-03  3.88e-01  1.51e-01  0.700  10.3
    6    -897.7121822808051093    -3.03e-02  4.21e-03  2.72e-01  1.06e-01  0.700  10.1
    7    -897.7334165846943961    -2.12e-02  2.94e-03  1.90e-01  7.42e-02  0.700   9.8
    8    -897.7482911375439016    -1.49e-02  6.84e-03  4.40e-01  5.20e-02  0.000   9.6
                              *** Initializing SOSCF ***
---------------------------------------S-O-S-C-F--------------------------------------
Iteration    Energy (Eh)           Delta-E    RMSDP     MaxDP     MaxGrad    Time(sec)
--------------------------------------------------------------------------------------
    9    -897.7830341971005055    -3.47e-02  4.43e-05  3.28e-03  3.20e-04    10.1
               *** Restarting incremental Fock matrix formation ***
   10    -897.7830338179176124     3.79e-07  1.34e-04  8.36e-03  2.10e-04    12.5
   11    -897.7830294937195958     4.32e-06  6.97e-05  4.50e-03  5.94e-04     8.2
   12    -897.7830346277826266    -5.13e-06  3.30e-05  2.38e-03  1.40e-05     8.1
                  *** Gradient check signals convergence ***

               *****************************************************
               *                     SUCCESS                       *
               *           SCF CONVERGED AFTER  12 CYCLES          *
               *****************************************************

             **** ENERGY FILE WAS UPDATED (sp_gas.en.tmp) ****

----------------
TOTAL SCF ENERGY
----------------

Total Energy       :       -897.78303462778263 Eh          -24429.91837 eV

Components:
Nuclear Repulsion  :       1476.80106350391065 Eh           40185.79994 eV
Electronic Energy  :      -2374.58409813169328 Eh          -64615.71831 eV
One Electron Energy:      -4153.91771123728449 Eh         -113033.84745 eV
Two Electron Energy:       1779.33361310559121 Eh           48418.12914 eV

Virial components:
Potential Energy   :      -1792.09725983794715 Eh          -48765.44563 eV
Kinetic Energy     :        894.31422521016464 Eh           24335.52726 eV
Virial Ratio       :          2.00387873671226

DFT components:
N(Alpha)           :       70.000024186821 electrons
N(Beta)            :       70.000024186821 electrons
N(Total)           :      140.000048373642 electrons
E(X)               :     -119.555490059647 Eh       
E(C)               :       -4.618574039576 Eh       
E(XC)              :     -124.174064099223 Eh       

---------------
SCF CONVERGENCE
---------------

  Last Energy change         ...    5.1341e-06  Tolerance :   1.0000e-06
  Last MAX-Density change    ...    2.3810e-03  Tolerance :   1.0000e-05
  Last RMS-Density change    ...    3.3011e-05  Tolerance :   1.0000e-06
  Last DIIS Error            ...    3.2021e-04  Tolerance :   1.0000e-06
  Last Orbital Gradient      ...    1.3951e-05  Tolerance :   3.3300e-04
  Last Orbital Rotation      ...    6.5069e-05  Tolerance :   3.3300e-04


----------------
ORBITAL ENERGIES
----------------

  NO   OCC          E(Eh)            E(eV) 
   0   2.0000     -18.966525      -516.1054 
   1   2.0000     -18.938884      -515.3532 
   2   2.0000     -18.933765      -515.2139 
   3   2.0000     -14.186659      -386.0386 
   4   2.0000     -10.121138      -275.4102 
   5   2.0000     -10.118042      -275.3259 
   6   2.0000     -10.101382      -274.8726 
   7   2.0000     -10.095068      -274.7008 
   8   2.0000     -10.085668      -274.4450 
   9   2.0000     -10.056079      -273.6398 
  10   2.0000     -10.054803      -273.6051 
  11   2.0000     -10.053682      -273.5746 
  12   2.0000     -10.053290      -273.5639 
  13   2.0000     -10.051992      -273.5286 
  14   2.0000     -10.051073      -273.5036 
  15   2.0000     -10.050092      -273.4769 
  16   2.0000     -10.048850      -273.4431 
  17   2.0000     -10.047313      -273.4013 
  18   2.0000     -10.046591      -273.3816 
  19   2.0000     -10.037634      -273.1379 
  20   2.0000      -1.004907       -27.3449 
  21   2.0000      -1.002717       -27.2853 
  22   2.0000      -0.997952       -27.1556 
  23   2.0000      -0.926434       -25.2096 
  24   2.0000      -0.847651       -23.0658 
  25   2.0000      -0.831346       -22.6221 
  26   2.0000      -0.771495       -20.9934 
  27   2.0000      -0.748780       -20.3753 
  28   2.0000      -0.734115       -19.9763 
  29   2.0000      -0.729138       -19.8408 
  30   2.0000      -0.697480       -18.9794 
  31   2.0000      -0.648217       -17.6389 
  32   2.0000      -0.633380       -17.2351 
  33   2.0000      -0.615339       -16.7442 
  34   2.0000      -0.602596       -16.3975 
  35   2.0000      -0.568915       -15.4810 
  36   2.0000      -0.550075       -14.9683 
  37   2.0000      -0.522036       -14.2053 
  38   2.0000      -0.518025       -14.0962 
  39   2.0000      -0.499320       -13.5872 
  40   2.0000      -0.480117       -13.0646 
  41   2.0000      -0.459156       -12.4943 
  42   2.0000      -0.456240       -12.4149 
  43   2.0000      -0.444901       -12.1064 
  44   2.0000      -0.442140       -12.0313 
  45   2.0000      -0.439131       -11.9494 
  46   2.0000      -0.422171       -11.4879 
  47   2.0000      -0.415065       -11.2945 
  48   2.0000      -0.411726       -11.2036 
  49   2.0000      -0.404250       -11.0002 
  50   2.0000      -0.399913       -10.8822 
  51   2.0000      -0.393707       -10.7133 
  52   2.0000      -0.383209       -10.4277 
  53   2.0000      -0.370828       -10.0907 
  54   2.0000      -0.366237        -9.9658 
  55   2.0000      -0.362651        -9.8682 
  56   2.0000      -0.349620        -9.5137 
  57   2.0000      -0.343577        -9.3492 
  58   2.0000      -0.333962        -9.0876 
  59   2.0000      -0.328988        -8.9522 
  60   2.0000      -0.320368        -8.7176 
  61   2.0000      -0.314893        -8.5687 
  62   2.0000      -0.294802        -8.0220 
  63   2.0000      -0.261628        -7.1193 
  64   2.0000      -0.257139        -6.9971 
  65   2.0000      -0.248126        -6.7518 
  66   2.0000      -0.247216        -6.7271 
  67   2.0000      -0.231081        -6.2880 
  68   2.0000      -0.218726        -5.9518 
  69   2.0000      -0.191992        -5.2244 
  70   0.0000      -0.125554        -3.4165 
  71   0.0000      -0.076191        -2.0733 
  72   0.0000      -0.046729        -1.2716 
  73   0.0000      -0.025829        -0.7028 
  74   0.0000       0.024844         0.6760 
  75   0.0000       0.035212         0.9582 
  76   0.0000       0.040673         1.1068 
  77   0.0000       0.070614         1.9215 
  78   0.0000       0.079180         2.1546 
  79   0.0000       0.087316         2.3760 
  80   0.0000       0.098895         2.6911 
*Only the first 10 virtual orbitals were printed.

                    ********************************
                    * MULLIKEN POPULATION ANALYSIS *
                    ********************************

-----------------------
MULLIKEN ATOMIC CHARGES
-----------------------
   0 C :   -0.132146
   1 C :   -0.128494
   2 C :   -0.226442
   3 C :    0.183984
   4 C :    0.137373
   5 C :   -0.217412
   6 C :    0.035517
   7 O :   -0.356291
   8 C :    0.201101
   9 C :   -0.251682
  10 C :   -0.142598
  11 C :   -0.363230
  12 C :    0.395604
  13 C :   -0.148548
  14 C :    0.037173
  15 O :   -0.446424
  16 N :   -0.048026
  17 C :   -0.354656
  18 C :   -0.111519
  19 O :   -0.394193
  20 H :    0.148671
  21 H :    0.148308
  22 H :    0.182224
  23 H :    0.181800
  24 H :    0.184849
  25 H :    0.145928
  26 H :    0.129940
  27 H :    0.318981
  28 H :    0.156866
  29 H :    0.158870
  30 H :    0.135725
  31 H :    0.141326
  32 H :    0.297423
Sum of atomic charges:   -0.0000000

--------------------------------
MULLIKEN REDUCED ORBITAL CHARGES
--------------------------------
  0 C s       :     3.199639  s :     3.199639
      pz      :     0.969938  p :     2.894910
      px      :     1.020919
      py      :     0.904054
      dz2     :     0.003288  d :     0.037596
      dxz     :     0.002745
      dyz     :     0.006512
      dx2y2   :     0.013380
      dxy     :     0.011671

  1 C s       :     3.198803  s :     3.198803
      pz      :     0.962314  p :     2.892002
      px      :     0.942552
      py      :     0.987136
      dz2     :     0.003514  d :     0.037688
      dxz     :     0.005588
      dyz     :     0.003634
      dx2y2   :     0.011907
      dxy     :     0.013045

  2 C s       :     3.234470  s :     3.234470
      pz      :     0.944138  p :     2.955104
      px      :     0.970111
      py      :     1.040855
      dz2     :     0.003331  d :     0.036869
      dxz     :     0.005546
      dyz     :     0.003641
      dx2y2   :     0.011204
      dxy     :     0.013148

  3 C s       :     3.196447  s :     3.196447
      pz      :     0.980866  p :     2.574299
      px      :     0.735440
      py      :     0.857993
      dz2     :     0.003914  d :     0.045269
      dxz     :     0.004756
      dyz     :     0.007123
      dx2y2   :     0.015853
      dxy     :     0.013623

  4 C s       :     3.240221  s :     3.240221
      pz      :     0.982603  p :     2.577066
      px      :     0.850156
      py      :     0.744306
      dz2     :     0.004133  d :     0.045341
      dxz     :     0.006166
      dyz     :     0.005080
      dx2y2   :     0.014212
      dxy     :     0.015750

  5 C s       :     3.236944  s :     3.236944
      pz      :     0.937451  p :     2.943457
      px      :     0.975534
      py      :     1.030472
      dz2     :     0.003301  d :     0.037011
      dxz     :     0.005336
      dyz     :     0.003946
      dx2y2   :     0.012487
      dxy     :     0.011941

  6 C s       :     3.370038  s :     3.370038
      pz      :     0.786353  p :     2.502194
      px      :     0.902227
      py      :     0.813613
      dz2     :     0.005213  d :     0.092252
      dxz     :     0.009104
      dyz     :     0.014148
      dx2y2   :     0.037247
      dxy     :     0.026540

  7 O s       :     3.862072  s :     3.862072
      pz      :     1.368090  p :     4.469548
      px      :     1.697900
      py      :     1.403558
      dz2     :     0.005537  d :     0.024670
      dxz     :     0.004847
      dyz     :     0.008370
      dx2y2   :     0.001425
      dxy     :     0.004491

  8 C s       :     3.213174  s :     3.213174
      pz      :     0.981992  p :     2.539804
      px      :     0.689801
      py      :     0.868012
      dz2     :     0.004137  d :     0.045921
      dxz     :     0.004203
      dyz     :     0.008573
      dx2y2   :     0.015687
      dxy     :     0.013320

  9 C s       :     3.223497  s :     3.223497
      pz      :     0.970436  p :     2.991509
      px      :     0.978044
      py      :     1.043029
      dz2     :     0.003278  d :     0.036676
      dxz     :     0.005422
      dyz     :     0.003658
      dx2y2   :     0.011488
      dxy     :     0.012830

 10 C s       :     3.214168  s :     3.214168
      pz      :     0.954002  p :     2.889275
      px      :     0.955042
      py      :     0.980230
      dz2     :     0.003642  d :     0.039155
      dxz     :     0.006491
      dyz     :     0.003950
      dx2y2   :     0.011977
      dxy     :     0.013095

 11 C s       :     3.272346  s :     3.272346
      pz      :     1.040300  p :     3.055244
      px      :     1.053626
      py      :     0.961319
      dz2     :     0.003517  d :     0.035640
      dxz     :     0.002602
      dyz     :     0.005982
      dx2y2   :     0.012813
      dxy     :     0.010727

 12 C s       :     3.080231  s :     3.080231
      pz      :     0.891963  p :     2.458525
      px      :     0.744890
      py      :     0.821672
      dz2     :     0.006179  d :     0.065641
      dxz     :     0.009200
      dyz     :     0.013035
      dx2y2   :     0.018169
      dxy     :     0.019059

 13 C s       :     3.435794  s :     3.435794
      pz      :     1.068173  p :     2.670415
      px      :     0.824674
      py      :     0.777568
      dz2     :     0.004120  d :     0.042339
      dxz     :     0.005277
      dyz     :     0.004981
      dx2y2   :     0.014445
      dxy     :     0.013517

 14 C s       :     3.416154  s :     3.416154
      pz      :     0.792162  p :     2.455864
      px      :     0.854967
      py      :     0.808735
      dz2     :     0.005924  d :     0.090809
      dxz     :     0.008776
      dyz     :     0.016340
      dx2y2   :     0.034212
      dxy     :     0.025556

 15 O s       :     3.848910  s :     3.848910
      pz      :     1.444649  p :     4.564576
      px      :     1.725212
      py      :     1.394715
      dz2     :     0.006854  d :     0.032938
      dxz     :     0.004247
      dyz     :     0.008609
      dx2y2   :     0.009687
      dxy     :     0.003541

 16 N s       :     3.290429  s :     3.290429
      pz      :     1.589367  p :     3.667120
      px      :     0.980361
      py      :     1.097392
      dz2     :     0.011902  d :     0.090477
      dxz     :     0.014575
      dyz     :     0.015590
      dx2y2   :     0.024776
      dxy     :     0.023634

 17 C s       :     3.342832  s :     3.342832
      pz      :     0.995357  p :     2.964091
      px      :     0.848418
      py      :     1.120317
      dz2     :     0.009059  d :     0.047732
      dxz     :     0.012098
      dyz     :     0.007494
      dx2y2   :     0.010871
      dxy     :     0.008211

 18 C s       :     3.277548  s :     3.277548
      pz      :     0.831244  p :     2.775330
      px      :     1.074741
      py      :     0.869344
      dz2     :     0.017736  d :     0.058641
      dxz     :     0.006807
      dyz     :     0.014864
      dx2y2   :     0.008328
      dxy     :     0.010906

 19 O s       :     3.760726  s :     3.760726
      pz      :     1.649706  p :     4.623544
      px      :     1.660397
      py      :     1.313441
      dz2     :    -0.001477  d :     0.009923
      dxz     :     0.004699
      dyz     :     0.002349
      dx2y2   :     0.001638
      dxy     :     0.002715

 20 H s       :     0.831813  s :     0.831813
      pz      :     0.004210  p :     0.019516
      px      :     0.012176
      py      :     0.003130

 21 H s       :     0.832203  s :     0.832203
      pz      :     0.003937  p :     0.019489
      px      :     0.005305
      py      :     0.010247

 22 H s       :     0.797750  s :     0.797750
      pz      :     0.004002  p :     0.020026
      px      :     0.006421
      py      :     0.009602

 23 H s       :     0.798258  s :     0.798258
      pz      :     0.003885  p :     0.019942
      px      :     0.004996
      py      :     0.011061

 24 H s       :     0.794918  s :     0.794918
      pz      :     0.004261  p :     0.020233
      px      :     0.006677
      py      :     0.009295

 25 H s       :     0.834595  s :     0.834595
      pz      :     0.003933  p :     0.019477
      px      :     0.005186
      py      :     0.010357

 26 H s       :     0.849574  s :     0.849574
      pz      :     0.004693  p :     0.020487
      px      :     0.012356
      py      :     0.003438

 27 H s       :     0.643743  s :     0.643743
      pz      :     0.008645  p :     0.037276
      px      :     0.013137
      py      :     0.015493

 28 H s       :     0.825061  s :     0.825061
      pz      :     0.004226  p :     0.018073
      px      :     0.004872
      py      :     0.008976

 29 H s       :     0.823493  s :     0.823493
      pz      :     0.006731  p :     0.017638
      px      :     0.003263
      py      :     0.007644

 30 H s       :     0.847119  s :     0.847119
      pz      :     0.002906  p :     0.017156
      px      :     0.010501
      py      :     0.003749

 31 H s       :     0.841395  s :     0.841395
      pz      :     0.003550  p :     0.017279
      px      :     0.005963
      py      :     0.007766

 32 H s       :     0.659516  s :     0.659516
      pz      :     0.010396  p :     0.043061
      px      :     0.016564
      py      :     0.016100


------------------------
MULLIKEN OVERLAP CHARGES
------------------------
B(  0-C ,  1-C ) :   0.5498 B(  0-C ,  2-C ) :   0.0973 B(  0-C ,  3-C ) :  -0.2851 
B(  0-C ,  4-C ) :   0.0698 B(  0-C ,  5-C ) :   0.4528 B(  0-C , 20-H ) :   0.8118 
B(  0-C , 21-H ) :  -0.0635 B(  0-C , 23-H ) :  -0.1155 B(  1-C ,  2-C ) :   0.3452 
B(  1-C ,  3-C ) :   0.1222 B(  1-C ,  4-C ) :  -0.2689 B(  1-C ,  5-C ) :   0.0655 
B(  1-C , 20-H ) :  -0.0643 B(  1-C , 21-H ) :   0.8119 B(  1-C , 22-H ) :  -0.1174 
B(  2-C ,  3-C ) :   0.6890 B(  2-C ,  4-C ) :  -0.3258 B(  2-C ,  5-C ) :  -0.3211 
B(  2-C ,  6-C ) :   0.1216 B(  2-C , 13-C ) :   0.1461 B(  2-C , 14-C ) :  -0.4383 
B(  2-C , 15-O ) :   0.1206 B(  2-C , 21-H ) :  -0.0604 B(  2-C , 22-H ) :   0.8429 
B(  3-C ,  4-C ) :  -2.5296 B(  3-C ,  5-C ) :  -0.3163 B(  3-C ,  6-C ) :   1.5230 
B(  3-C ,  7-O ) :  -0.0613 B(  3-C ,  8-C ) :  -1.8798 B(  3-C , 12-C ) :   0.1811 
B(  3-C , 13-C ) :   1.7280 B(  3-C , 14-C ) :  -1.8345 B(  3-C , 15-O ) :  -0.4294 
B(  4-C ,  5-C ) :   0.8020 B(  4-C ,  6-C ) :  -2.2165 B(  4-C ,  7-O ) :  -0.4132 
B(  4-C ,  8-C ) :   1.6899 B(  4-C ,  9-C ) :   0.1835 B(  4-C , 13-C ) :  -2.2414 
B(  4-C , 14-C ) :   1.6300 B(  5-C ,  6-C ) :  -0.5643 B(  5-C ,  7-O ) :   0.1284 
B(  5-C ,  8-C ) :   0.1891 B(  5-C , 14-C ) :   0.1613 B(  5-C , 20-H ) :  -0.0595 
B(  5-C , 23-H ) :   0.8465 B(  6-C ,  7-O ) :   1.3721 B(  6-C ,  8-C ) :  -2.0693 
B(  6-C ,  9-C ) :  -0.6027 B(  6-C , 10-C ) :   0.1030 B(  6-C , 11-C ) :  -0.0603 
B(  6-C , 12-C ) :   0.2535 B(  6-C , 13-C ) :   1.5294 B(  6-C , 14-C ) :  -1.3792 
B(  7-O ,  8-C ) :  -0.4120 B(  7-O ,  9-C ) :   0.1208 B(  7-O , 13-C ) :  -0.0770 
B(  8-C ,  9-C ) :   0.6339 B(  8-C , 10-C ) :   0.2603 B(  8-C , 11-C ) :  -0.6291 
B(  8-C , 13-C ) :  -3.1187 B(  8-C , 14-C ) :   1.0510 B(  9-C , 11-C ) :   0.3391 
B(  9-C , 12-C ) :  -0.7730 B(  9-C , 14-C ) :   0.2401 B(  9-C , 24-H ) :   0.8725 
B(  9-C , 25-H ) :  -0.0620 B( 10-C , 11-C ) :   0.1559 B( 10-C , 12-C ) :   0.4481 
B( 10-C , 13-C ) :  -0.5329 B( 10-C , 24-H ) :  -0.1326 B( 10-C , 25-H ) :   0.8204 
B( 11-C , 12-C ) :  -0.2948 B( 11-C , 13-C ) :   0.2215 B( 11-C , 14-C ) :   0.1039 
B( 11-C , 16-N ) :  -0.1467 B( 11-C , 17-C ) :  -0.0669 B( 11-C , 19-O ) :   0.0940 
B( 11-C , 25-H ) :  -0.0736 B( 11-C , 26-H ) :   0.7545 B( 12-C , 13-C ) :  -1.1283 
B( 12-C , 14-C ) :  -1.1441 B( 12-C , 15-O ) :   0.1385 B( 12-C , 16-N ) :   0.5211 
B( 12-C , 17-C ) :  -0.1208 B( 12-C , 26-H ) :  -0.0635 B( 13-C , 14-C ) :  -1.7704 
B( 13-C , 15-O ) :  -0.3077 B( 13-C , 17-C ) :   0.0666 B( 13-C , 27-H ) :  -0.0828 
B( 14-C , 15-O ) :   1.1408 B( 15-O , 16-N ) :  -0.2039 B( 15-O , 27-H ) :   0.0978 
B( 16-N , 17-C ) :   0.1513 B( 16-N , 18-C ) :  -0.1053 B( 16-N , 27-H ) :   0.6792 
B( 16-N , 28-H ) :  -0.0685 B( 16-N , 29-H ) :  -0.0836 B( 17-C , 18-C ) :   0.3571 
B( 17-C , 19-O ) :  -0.2348 B( 17-C , 27-H ) :  -0.0745 B( 17-C , 28-H ) :   0.8685 
B( 17-C , 29-H ) :   0.7922 B( 17-C , 30-H ) :  -0.1805 B( 18-C , 19-O ) :   0.4987 
B( 18-C , 28-H ) :  -0.0942 B( 18-C , 29-H ) :  -0.0587 B( 18-C , 30-H ) :   0.8885 
B( 18-C , 31-H ) :   0.8125 B( 18-C , 32-H ) :  -0.1058 B( 19-O , 30-H ) :  -0.0833 
B( 19-O , 31-H ) :  -0.1072 B( 19-O , 32-H ) :   0.5946 B( 30-H , 31-H ) :  -0.0551 



                     *******************************
                     * LOEWDIN POPULATION ANALYSIS *
                     *******************************

----------------------
LOEWDIN ATOMIC CHARGES
----------------------
   0 C :   -0.144308
   1 C :   -0.141164
   2 C :   -0.102466
   3 C :   -0.024852
   4 C :   -0.035287
   5 C :   -0.097595
   6 C :    0.269251
   7 O :   -0.481870
   8 C :   -0.023931
   9 C :   -0.122198
  10 C :   -0.130702
  11 C :   -0.133911
  12 C :    0.207099
  13 C :   -0.034830
  14 C :    0.270461
  15 O :   -0.542808
  16 N :   -0.667659
  17 C :   -0.031506
  18 C :    0.027587
  19 O :   -0.588857
  20 H :    0.170278
  21 H :    0.170144
  22 H :    0.192710
  23 H :    0.191600
  24 H :    0.193520
  25 H :    0.170897
  26 H :    0.169147
  27 H :    0.295690
  28 H :    0.177611
  29 H :    0.189026
  30 H :    0.159555
  31 H :    0.183594
  32 H :    0.265774

-------------------------------
LOEWDIN REDUCED ORBITAL CHARGES
-------------------------------
  0 C s       :     2.904595  s :     2.904595
      pz      :     0.959317  p :     3.157531
      px      :     1.099636
      py      :     1.098578
      dz2     :     0.005637  d :     0.082181
      dxz     :     0.004384
      dyz     :     0.012243
      dx2y2   :     0.032442
      dxy     :     0.027476

  1 C s       :     2.904903  s :     2.904903
      pz      :     0.955101  p :     3.153957
      px      :     1.097626
      py      :     1.101230
      dz2     :     0.006077  d :     0.082303
      dxz     :     0.010357
      dyz     :     0.006246
      dx2y2   :     0.028239
      dxy     :     0.031383

  2 C s       :     2.895021  s :     2.895021
      pz      :     0.942475  p :     3.127042
      px      :     1.085278
      py      :     1.099288
      dz2     :     0.005625  d :     0.080403
      dxz     :     0.010054
      dyz     :     0.006489
      dx2y2   :     0.026929
      dxy     :     0.031306

  3 C s       :     2.847479  s :     2.847479
      pz      :     0.965050  p :     3.081841
      px      :     1.031420
      py      :     1.085371
      dz2     :     0.007491  d :     0.095531
      dxz     :     0.008109
      dyz     :     0.013087
      dx2y2   :     0.035422
      dxy     :     0.031423

  4 C s       :     2.847969  s :     2.847969
      pz      :     0.973033  p :     3.091081
      px      :     1.080185
      py      :     1.037863
      dz2     :     0.008000  d :     0.096238
      dxz     :     0.011298
      dyz     :     0.008914
      dx2y2   :     0.032414
      dxy     :     0.035611

  5 C s       :     2.895763  s :     2.895763
      pz      :     0.935149  p :     3.121261
      px      :     1.078277
      py      :     1.107835
      dz2     :     0.005608  d :     0.080570
      dxz     :     0.009920
      dyz     :     0.006730
      dx2y2   :     0.029375
      dxy     :     0.028936

  6 C s       :     2.782865  s :     2.782865
      pz      :     0.752386  p :     2.747933
      px      :     0.997963
      py      :     0.997584
      dz2     :     0.012824  d :     0.199952
      dxz     :     0.016066
      dyz     :     0.025388
      dx2y2   :     0.084407
      dxy     :     0.061268

  7 O s       :     3.560786  s :     3.560786
      pz      :     1.372114  p :     4.666168
      px      :     1.718358
      py      :     1.575696
      dz2     :     0.030202  d :     0.254916
      dxz     :     0.020714
      dyz     :     0.037385
      dx2y2   :     0.084007
      dxy     :     0.082609

  8 C s       :     2.847836  s :     2.847836
      pz      :     0.964015  p :     3.079310
      px      :     1.034275
      py      :     1.081020
      dz2     :     0.007906  d :     0.096785
      dxz     :     0.007204
      dyz     :     0.015891
      dx2y2   :     0.035070
      dxy     :     0.030714

  9 C s       :     2.891655  s :     2.891655
      pz      :     0.971632  p :     3.150289
      px      :     1.080274
      py      :     1.098382
      dz2     :     0.005557  d :     0.080254
      dxz     :     0.009804
      dyz     :     0.006487
      dx2y2   :     0.027553
      dxy     :     0.030853

 10 C s       :     2.900301  s :     2.900301
      pz      :     0.945261  p :     3.145014
      px      :     1.100384
      py      :     1.099369
      dz2     :     0.006298  d :     0.085387
      dxz     :     0.012177
      dyz     :     0.006948
      dx2y2   :     0.028438
      dxy     :     0.031527

 11 C s       :     2.888143  s :     2.888143
      pz      :     1.016742  p :     3.168292
      px      :     1.098152
      py      :     1.053398
      dz2     :     0.005885  d :     0.077476
      dxz     :     0.004321
      dyz     :     0.010798
      dx2y2   :     0.030907
      dxy     :     0.025565

 12 C s       :     2.771437  s :     2.771437
      pz      :     0.857473  p :     2.881684
      px      :     1.021911
      py      :     1.002300
      dz2     :     0.011770  d :     0.139781
      dxz     :     0.017733
      dyz     :     0.025091
      dx2y2   :     0.042740
      dxy     :     0.042446

 13 C s       :     2.833782  s :     2.833782
      pz      :     1.057745  p :     3.112517
      px      :     1.022868
      py      :     1.031905
      dz2     :     0.007509  d :     0.088531
      dxz     :     0.009188
      dyz     :     0.008806
      dx2y2   :     0.031824
      dxy     :     0.031203

 14 C s       :     2.779053  s :     2.779053
      pz      :     0.775187  p :     2.753333
      px      :     0.985725
      py      :     0.992420
      dz2     :     0.013540  d :     0.197153
      dxz     :     0.016229
      dyz     :     0.030710
      dx2y2   :     0.078153
      dxy     :     0.058521

 15 O s       :     3.561094  s :     3.561094
      pz      :     1.441119  p :     4.698816
      px      :     1.697025
      py      :     1.560672
      dz2     :     0.036474  d :     0.282899
      dxz     :     0.023448
      dyz     :     0.041786
      dx2y2   :     0.094026
      dxy     :     0.087165

 16 N s       :     3.099529  s :     3.099529
      pz      :     1.547099  p :     4.004896
      px      :     1.203597
      py      :     1.254200
      dz2     :     0.062644  d :     0.563233
      dxz     :     0.093947
      dyz     :     0.062937
      dx2y2   :     0.154896
      dxy     :     0.188809

 17 C s       :     2.856804  s :     2.856804
      pz      :     1.034201  p :     3.066635
      px      :     0.944454
      py      :     1.087980
      dz2     :     0.019751  d :     0.108068
      dxz     :     0.025916
      dyz     :     0.017104
      dx2y2   :     0.024517
      dxy     :     0.020780

 18 C s       :     2.876166  s :     2.876166
      pz      :     0.946012  p :     2.965124
      px      :     1.073480
      py      :     0.945632
      dz2     :     0.041379  d :     0.131123
      dxz     :     0.012957
      dyz     :     0.032711
      dx2y2   :     0.018675
      dxy     :     0.025402

 19 O s       :     3.521525  s :     3.521525
      pz      :     1.677106  p :     4.796023
      px      :     1.684123
      py      :     1.434793
      dz2     :     0.068679  d :     0.271310
      dxz     :     0.032258
      dyz     :     0.058880
      dx2y2   :     0.042048
      dxy     :     0.069446

 20 H s       :     0.784860  s :     0.784860
      pz      :     0.009192  p :     0.044862
      px      :     0.028574
      py      :     0.007096

 21 H s       :     0.785063  s :     0.785063
      pz      :     0.008532  p :     0.044794
      px      :     0.012195
      py      :     0.024067

 22 H s       :     0.760283  s :     0.760283
      pz      :     0.008918  p :     0.047007
      px      :     0.015210
      py      :     0.022879

 23 H s       :     0.761670  s :     0.761670
      pz      :     0.008612  p :     0.046730
      px      :     0.011453
      py      :     0.026665

 24 H s       :     0.758751  s :     0.758751
      pz      :     0.009658  p :     0.047730
      px      :     0.015997
      py      :     0.022075

 25 H s       :     0.784653  s :     0.784653
      pz      :     0.008432  p :     0.044451
      px      :     0.011985
      py      :     0.024034

 26 H s       :     0.784683  s :     0.784683
      pz      :     0.010554  p :     0.046170
      px      :     0.028307
      py      :     0.007309

 27 H s       :     0.597433  s :     0.597433
      pz      :     0.021851  p :     0.106877
      px      :     0.039058
      py      :     0.045968

 28 H s       :     0.781004  s :     0.781004
      pz      :     0.009757  p :     0.041385
      px      :     0.009911
      py      :     0.021717

 29 H s       :     0.770125  s :     0.770125
      pz      :     0.016473  p :     0.040849
      px      :     0.006501
      py      :     0.017874

 30 H s       :     0.799332  s :     0.799332
      pz      :     0.007150  p :     0.041113
      px      :     0.025334
      py      :     0.008629

 31 H s       :     0.777187  s :     0.777187
      pz      :     0.008551  p :     0.039220
      px      :     0.014132
      py      :     0.016537

 32 H s       :     0.611849  s :     0.611849
      pz      :     0.028121  p :     0.122377
      px      :     0.048612
      py      :     0.045644


---------------------------------
LOEWDIN BOND ORDERS (THRESH 0.050000)
---------------------------------
B(  0-C ,  1-C ) :   1.4742 B(  0-C ,  2-C ) :   0.0901 B(  0-C ,  3-C ) :   0.1100 
B(  0-C ,  4-C ) :   0.0904 B(  0-C ,  5-C ) :   1.5236 B(  0-C , 20-H ) :   0.8725 
B(  0-C , 21-H ) :   0.0534 B(  0-C , 23-H ) :   0.0523 B(  1-C ,  2-C ) :   1.5211 
B(  1-C ,  3-C ) :   0.0902 B(  1-C ,  4-C ) :   0.1102 B(  1-C ,  5-C ) :   0.0907 
B(  1-C , 20-H ) :   0.0534 B(  1-C , 21-H ) :   0.8725 B(  1-C , 22-H ) :   0.0524 
B(  2-C ,  3-C ) :   1.3916 B(  2-C ,  4-C ) :   0.0845 B(  2-C ,  5-C ) :   0.1191 
B(  2-C , 14-C ) :   0.0865 B(  2-C , 15-O ) :   0.0815 B(  2-C , 21-H ) :   0.0554 
B(  2-C , 22-H ) :   0.8458 B(  3-C ,  4-C ) :   1.3237 B(  3-C ,  5-C ) :   0.0846 
B(  3-C ,  6-C ) :   0.0816 B(  3-C , 13-C ) :   0.0815 B(  3-C , 14-C ) :   0.9742 
B(  3-C , 15-O ) :   0.2036 B(  3-C , 22-H ) :   0.0513 B(  4-C ,  5-C ) :   1.3902 
B(  4-C ,  6-C ) :   0.9868 B(  4-C ,  7-O ) :   0.2035 B(  4-C ,  8-C ) :   0.0821 
B(  4-C , 14-C ) :   0.0768 B(  4-C , 23-H ) :   0.0518 B(  5-C ,  6-C ) :   0.0893 
B(  5-C ,  7-O ) :   0.0810 B(  5-C , 20-H ) :   0.0554 B(  5-C , 23-H ) :   0.8490 
B(  6-C ,  7-O ) :   2.2303 B(  6-C ,  8-C ) :   0.9798 B(  6-C ,  9-C ) :   0.1003 
B(  6-C , 13-C ) :   0.0738 B(  7-O ,  8-C ) :   0.2024 B(  7-O ,  9-C ) :   0.1053 
B(  8-C ,  9-C ) :   1.4385 B(  8-C , 10-C ) :   0.0908 B(  8-C , 11-C ) :   0.1101 
B(  8-C , 12-C ) :   0.0809 B(  8-C , 13-C ) :   1.2710 B(  8-C , 14-C ) :   0.0827 
B(  8-C , 24-H ) :   0.0522 B(  9-C , 10-C ) :   1.4284 B(  9-C , 11-C ) :   0.0927 
B(  9-C , 12-C ) :   0.0710 B(  9-C , 13-C ) :   0.0924 B(  9-C , 24-H ) :   0.8442 
B(  9-C , 25-H ) :   0.0533 B( 10-C , 11-C ) :   1.5736 B( 10-C , 12-C ) :   0.0890 
B( 10-C , 13-C ) :   0.0816 B( 10-C , 24-H ) :   0.0510 B( 10-C , 25-H ) :   0.8689 
B( 10-C , 26-H ) :   0.0558 B( 11-C , 12-C ) :   1.2098 B( 11-C , 13-C ) :   0.0829 
B( 11-C , 16-N ) :   0.2076 B( 11-C , 25-H ) :   0.0573 B( 11-C , 26-H ) :   0.8572 
B( 12-C , 13-C ) :   1.1421 B( 12-C , 14-C ) :   0.0781 B( 12-C , 15-O ) :   0.0518 
B( 12-C , 16-N ) :   1.5618 B( 12-C , 17-C ) :   0.0769 B( 13-C , 14-C ) :   1.0666 
B( 13-C , 15-O ) :   0.2081 B( 13-C , 16-N ) :   0.2105 B( 14-C , 15-O ) :   2.1039 
B( 14-C , 16-N ) :   0.0584 B( 15-O , 16-N ) :   0.2011 B( 15-O , 27-H ) :   0.1006 
B( 16-N , 17-C ) :   1.3315 B( 16-N , 18-C ) :   0.1489 B( 16-N , 27-H ) :   0.7911 
B( 16-N , 28-H ) :   0.0907 B( 16-N , 29-H ) :   0.0992 B( 17-C , 18-C ) :   0.9667 
B( 17-C , 19-O ) :   0.1548 B( 17-C , 28-H ) :   0.8202 B( 17-C , 29-H ) :   0.8161 
B( 18-C , 19-O ) :   1.4525 B( 18-C , 30-H ) :   0.8317 B( 18-C , 31-H ) :   0.8224 
B( 19-O , 30-H ) :   0.1039 B( 19-O , 31-H ) :   0.0986 B( 19-O , 32-H ) :   0.9750 


------------------------------------------
LOEWDIN REDUCED ORBITAL POPULATIONS PER MO
-------------------------------------------
THRESHOLD FOR PRINTING IS 0.1%%
                      0         1         2         3         4         5   
                 -18.96652 -18.93888 -18.93377 -14.18666 -10.12114 -10.11804
                   2.00000   2.00000   2.00000   2.00000   2.00000   2.00000
                  --------  --------  --------  --------  --------  --------
 6 C  s               0.0       0.0       0.0       0.0       0.0      99.2
 7 O  s               0.0       0.0      99.9       0.0       0.0       0.0
 7 O  py              0.0       0.0       0.0       0.0       0.0       0.2
 7 O  dxy             0.0       0.0       0.0       0.0       0.0       0.2
14 C  s               0.0       0.0       0.0       0.0      99.2       0.0
15 O  s               0.0      99.9       0.0       0.0       0.0       0.0
15 O  py              0.0       0.0       0.0       0.0       0.2       0.0
15 O  dxy             0.0       0.0       0.0       0.0       0.2       0.0
16 N  s               0.0       0.0       0.0      99.8       0.0       0.0
19 O  s              99.9       0.0       0.0       0.0       0.0       0.0

                      6         7         8         9        10        11   
                 -10.10138 -10.09507 -10.08567 -10.05608 -10.05480 -10.05368
                   2.00000   2.00000   2.00000   2.00000   2.00000   2.00000
                  --------  --------  --------  --------  --------  --------
 2 C  py              0.0       0.0       0.0       0.1       0.0       0.0
 3 C  s               0.0       0.0       0.0      98.8       0.0       0.7
 4 C  s               0.0       0.0       0.0       0.7       0.0      98.7
 5 C  s               0.0       0.0       0.0       0.0       0.0       0.1
 5 C  px              0.0       0.0       0.0       0.0       0.0       0.1
 6 C  px              0.0       0.0       0.0       0.0       0.1       0.0
 8 C  s               0.0       0.0       0.0       0.0      98.1       0.0
 9 C  py              0.0       0.0       0.0       0.0       0.1       0.0
12 C  s              99.2       0.0       0.0       0.0       0.0       0.0
13 C  s               0.0       0.0       0.0       0.0       1.4       0.0
13 C  px              0.1       0.0       0.0       0.0       0.0       0.0
16 N  px              0.0       0.0       0.1       0.0       0.0       0.0
16 N  dx2y2           0.0       0.0       0.2       0.0       0.0       0.0
16 N  dxy             0.2       0.0       0.0       0.0       0.0       0.0
17 C  s               0.0       0.0      99.4       0.0       0.0       0.0
18 C  s               0.0      99.4       0.0       0.0       0.0       0.0
19 O  dyz             0.0       0.2       0.0       0.0       0.0       0.0

                     12        13        14        15        16        17   
                 -10.05329 -10.05199 -10.05107 -10.05009 -10.04885 -10.04731
                   2.00000   2.00000   2.00000   2.00000   2.00000   2.00000
                  --------  --------  --------  --------  --------  --------
 0 C  s               0.0       0.0       5.5      93.4       0.0       0.7
 0 C  py              0.0       0.0       0.1       0.0       0.0       0.1
 1 C  s               0.0       0.0      93.8       5.5       0.0       0.0
 2 C  s               0.0       0.0       0.3       0.0       0.0       0.0
 2 C  px              0.0       0.0       0.1       0.0       0.0       0.0
 4 C  s               0.0       0.0       0.0       0.0       0.0       0.1
 4 C  px              0.0       0.0       0.0       0.0       0.0       0.1
 5 C  s               0.0       0.0       0.0       0.7       0.0      98.7
 8 C  s               1.4       0.0       0.0       0.0       0.0       0.0
 9 C  px              0.0       0.1       0.0       0.0       0.0       0.0
10 C  s               0.0      98.8       0.0       0.0       0.8       0.0
10 C  py              0.0       0.0       0.0       0.0       0.1       0.0
11 C  s               0.0       0.8       0.0       0.0      98.8       0.0
11 C  py              0.0       0.1       0.0       0.0       0.0       0.0
12 C  px              0.1       0.0       0.0       0.0       0.0       0.0
13 C  s              98.2       0.0       0.0       0.0       0.0       0.0

                     18        19        20        21        22        23   
                 -10.04659 -10.03763  -1.00491  -1.00272  -0.99795  -0.92643
                   2.00000   2.00000   2.00000   2.00000   2.00000   2.00000
                  --------  --------  --------  --------  --------  --------
 1 C  s               0.3       0.0       0.0       0.0       0.0       0.0
 1 C  px              0.1       0.0       0.0       0.0       0.0       0.0
 2 C  s              99.2       0.0       0.1       0.2       0.0       0.0
 2 C  px              0.0       0.0       0.1       0.3       0.0       0.0
 3 C  s               0.1       0.0       0.3       1.2       0.0       0.0
 3 C  px              0.0       0.0       0.4       1.3       0.2       0.0
 3 C  py              0.1       0.0       0.0       0.1       0.3       0.0
 4 C  s               0.0       0.0       0.1       0.3       1.2       0.0
 4 C  px              0.0       0.0       0.0       0.1       0.1       0.0
 4 C  py              0.0       0.0       0.0       0.0       2.1       0.0
 5 C  s               0.0       0.0       0.0       0.1       0.2       0.0
 5 C  px              0.0       0.0       0.0       0.1       0.3       0.0
 5 C  py              0.0       0.0       0.0       0.0       0.2       0.0
 6 C  s               0.0       0.0       0.2       1.2      16.3       0.0
 6 C  pz              0.0       0.0       0.0       0.0       0.2       0.0
 6 C  px              0.0       0.0       0.0       0.1       2.8       0.1
 6 C  py              0.0       0.0       0.0       0.3       8.5       0.0
 6 C  dz2             0.0       0.0       0.0       0.0       0.5       0.0
 6 C  dx2y2           0.0       0.0       0.0       0.0       0.2       0.0
 6 C  dxy             0.0       0.0       0.0       0.0       0.7       0.0
 7 O  s               0.0       0.0       0.4       2.7      49.1       0.0
 7 O  pz              0.0       0.0       0.0       0.0       0.1       0.0
 7 O  px              0.0       0.0       0.0       0.1       1.4       0.0
 7 O  py              0.0       0.0       0.0       0.2       4.2       0.0
 7 O  dz2             0.0       0.0       0.0       0.0       0.2       0.0
 7 O  dx2y2           0.0       0.0       0.0       0.0       0.1       0.0
 7 O  dxy             0.0       0.0       0.0       0.0       0.3       0.0
 8 C  s               0.0       0.0       0.1       0.3       1.1       0.3
 8 C  px              0.0       0.0       0.0       0.0       1.9       0.3
 8 C  py              0.0       0.1       0.0       0.1       0.2       0.0
 9 C  s               0.0      99.5       0.0       0.1       0.2       0.2
 9 C  px              0.0       0.0       0.0       0.0       0.5       0.1
10 C  s               0.0       0.0       0.0       0.0       0.0       0.4
10 C  px              0.0       0.1       0.0       0.0       0.0       0.0
10 C  py              0.0       0.0       0.0       0.0       0.0       0.3
11 C  s               0.0       0.0       0.1       0.0       0.0       2.3
11 C  px              0.0       0.0       0.0       0.0       0.0       0.2
11 C  py              0.0       0.0       0.1       0.0       0.0       1.7
12 C  s               0.0       0.0       0.5       0.3       0.0      13.9
12 C  pz              0.0       0.0       0.0       0.0       0.0       0.3
12 C  px              0.0       0.0       0.0       0.3       0.0       2.0
12 C  py              0.0       0.0       0.2       0.2       0.0       3.5
12 C  dz2             0.0       0.0       0.0       0.0       0.0       0.2
12 C  dxy             0.0       0.0       0.0       0.0       0.0       0.2
13 C  s               0.0       0.0       0.5       1.3       0.0       1.6
13 C  px              0.0       0.0       0.0       0.1       0.1       2.1
13 C  py              0.0       0.0       0.4       1.3       0.4       0.0
14 C  s               0.0       0.0       3.5      12.6       0.8       0.2
14 C  pz              0.0       0.0       0.1       0.3       0.0       0.0
14 C  px              0.0       0.0       0.5       1.7       0.2       0.3
14 C  py              0.0       0.0       1.6       6.1       0.8       1.1
[...]
19 O  py             13.8       0.0       0.0       0.0       0.0       0.0
19 O  dz2             8.6       0.0       0.0       0.0       0.0       0.0
19 O  dxz             0.6       0.0       0.0       0.0       0.0       0.0
19 O  dyz             4.6       0.0       0.0       0.0       0.0       0.0
19 O  dx2y2           0.1       0.0       0.0       0.0       0.0       0.0
19 O  dxy            26.5       0.0       0.0       0.0       0.0       0.0
31 H  s               0.1       0.0       0.0       0.0       0.0       0.0
32 H  s              13.6       0.0       0.0       0.0       0.0       0.0
32 H  pz              0.3       0.0       0.0       0.0       0.0       0.0
32 H  px              7.3       0.0       0.0       0.0       0.0       0.0
32 H  py              8.5       0.0       0.0       0.0       0.0       0.0

                    450       451       452       453       454       455   
                  22.00453  22.06430  22.13777  22.14854  22.18073  22.20767
                   0.00000   0.00000   0.00000   0.00000   0.00000   0.00000
                  --------  --------  --------  --------  --------  --------
 0 C  s               3.5       1.1       6.0       0.6      34.3       2.4
 1 C  s               0.0       3.1       4.7       0.0      33.0       4.7
 2 C  s               5.6       3.1       6.9       0.5       0.1      18.4
 3 C  s               5.2       1.4       0.1       0.1      15.3       8.0
 4 C  s               0.4       3.8       0.2       0.6      13.7       9.4
 5 C  s               2.0       4.3       7.7       0.0       0.0      17.6
 6 C  s               0.6       3.8      22.6       0.8       1.2      11.5
 8 C  s               0.1      13.7       1.1       2.4       0.8       4.3
 9 C  s               1.3      16.6       8.1       1.4       0.0       1.1
10 C  s               1.0       0.1       6.3       2.6       0.0       1.9
11 C  s               0.3       4.9       5.3       0.1       0.0       2.6
12 C  s               0.3       8.7       7.9       0.0       0.0       0.0
13 C  s               3.9      14.6       5.2       3.4       0.4       0.7
14 C  s               0.2       0.1      15.2       1.5       0.5      16.8
17 C  s               6.1       4.2       0.7      82.3       0.0       0.0
18 C  s              68.8      15.7       1.6       3.0       0.0       0.0

                    456       457       458       459       460       461   
                  22.22697  22.26755  22.36160  22.37417  22.39501  32.09238
                   0.00000   0.00000   0.00000   0.00000   0.00000   0.00000
                  --------  --------  --------  --------  --------  --------
 0 C  s               1.5       0.4       0.9       7.0       0.9       0.0
 1 C  s               0.6       0.3       0.8       7.2       1.2       0.0
 2 C  s               3.8       1.3       0.9      19.3       4.0       0.0
 3 C  s               1.4       0.8       8.7       8.4       2.7       0.0
 4 C  s               1.6       0.1      11.0       8.3       1.2       0.0
 4 C  px              0.0       0.0       0.0       0.1       0.0       0.0
 5 C  s               5.2       0.8       1.5      20.1       2.3       0.0
 6 C  s               0.2       5.6      27.4       4.4       3.5       0.0
 8 C  s              14.6       8.1       3.1       3.3      10.1       0.0
 8 C  px              0.0       0.0       0.1       0.0       0.1       0.0
 9 C  s              10.7      14.2       1.2       2.3      15.6       0.0
10 C  s              15.3      19.0       0.3       1.7       7.5       0.0
11 C  s              39.1       3.9       0.1       2.3       7.0       0.0
12 C  s               0.7      34.7       0.3       4.1      33.7       0.0
13 C  s               2.6       5.8       6.0       4.0       7.4       0.0
13 C  px              0.0       0.0       0.1       0.0       0.1       0.0
14 C  s               0.2       3.1      36.6       7.1       2.0       0.0
16 N  s               0.0       0.1       0.0       0.0       0.0      99.7
17 C  s               2.0       1.2       0.5       0.0       0.1       0.0
18 C  s               0.0       0.0       0.0       0.0       0.2       0.0

                    462       463       464   
                  43.62303  43.73215  43.85625
                   0.00000   0.00000   0.00000
                  --------  --------  --------
 7 O  s               0.4      78.0      21.4
15 O  s               1.0      20.8      78.0
19 O  s              98.5       1.0       0.4


                      *****************************
                      * MAYER POPULATION ANALYSIS *
                      *****************************

  NA   - Mulliken gross atomic population
  ZA   - Total nuclear charge
  QA   - Mulliken gross atomic charge
  VA   - Mayer's total valence
  BVA  - Mayer's bonded valence
  FA   - Mayer's free valence

  ATOM       NA         ZA         QA         VA         BVA        FA
  0 C      6.1321     6.0000    -0.1321     3.6957     3.6957     0.0000
  1 C      6.1285     6.0000    -0.1285     3.6860     3.6860    -0.0000
  2 C      6.2264     6.0000    -0.2264     3.8115     3.8115    -0.0000
  3 C      5.8160     6.0000     0.1840     3.6107     3.6107    -0.0000
  4 C      5.8626     6.0000     0.1374     3.5037     3.5037     0.0000
  5 C      6.2174     6.0000    -0.2174     3.8057     3.8057    -0.0000
  6 C      5.9645     6.0000     0.0355     3.6022     3.6022     0.0000
  7 O      8.3563     8.0000    -0.3563     2.0357     2.0357     0.0000
  8 C      5.7989     6.0000     0.2011     3.2401     3.2401    -0.0000
  9 C      6.2517     6.0000    -0.2517     3.8533     3.8533    -0.0000
 10 C      6.1426     6.0000    -0.1426     3.7201     3.7201     0.0000
 11 C      6.3632     6.0000    -0.3632     3.6823     3.6823     0.0000
 12 C      5.6044     6.0000     0.3956     3.4896     3.4896     0.0000
 13 C      6.1485     6.0000    -0.1485     3.5943     3.5943     0.0000
 14 C      5.9628     6.0000     0.0372     3.5445     3.5445     0.0000
 15 O      8.4464     8.0000    -0.4464     1.9681     1.9681    -0.0000
 16 N      7.0480     7.0000    -0.0480     3.0401     3.0401     0.0000
 17 C      6.3547     6.0000    -0.3547     3.7028     3.7028     0.0000
 18 C      6.1115     6.0000    -0.1115     3.7547     3.7547    -0.0000
 19 O      8.3942     8.0000    -0.3942     1.8355     1.8355     0.0000
 20 H      0.8513     1.0000     0.1487     0.9684     0.9684    -0.0000
 21 H      0.8517     1.0000     0.1483     0.9683     0.9683    -0.0000
 22 H      0.8178     1.0000     0.1822     0.9544     0.9544    -0.0000
 23 H      0.8182     1.0000     0.1818     0.9549     0.9549    -0.0000
 24 H      0.8152     1.0000     0.1848     0.9534     0.9534    -0.0000
 25 H      0.8541     1.0000     0.1459     0.9694     0.9694    -0.0000
 26 H      0.8701     1.0000     0.1299     0.9748     0.9748    -0.0000
 27 H      0.6810     1.0000     0.3190     0.9143     0.9143     0.0000
 28 H      0.8431     1.0000     0.1569     0.9557     0.9557    -0.0000
 29 H      0.8411     1.0000     0.1589     0.9590     0.9590     0.0000
 30 H      0.8643     1.0000     0.1357     0.9552     0.9552     0.0000
 31 H      0.8587     1.0000     0.1413     0.9572     0.9572     0.0000
 32 H      0.7026     1.0000     0.2974     0.9096     0.9096     0.0000

  Mayer bond orders larger than 0.100000
B(  0-C ,  1-C ) :   1.3223 B(  0-C ,  5-C ) :   1.3587 B(  0-C , 20-H ) :   0.9555 
B(  1-C ,  2-C ) :   1.3510 B(  1-C , 21-H ) :   0.9556 B(  2-C ,  3-C ) :   1.3538 
B(  2-C , 15-O ) :   0.1030 B(  2-C , 22-H ) :   0.9591 B(  3-C ,  4-C ) :   1.5177 
B(  3-C , 14-C ) :   0.9239 B(  3-C , 15-O ) :  -0.1993 B(  4-C ,  5-C ) :   1.3489 
B(  4-C ,  6-C ) :   0.8585 B(  4-C ,  7-O ) :  -0.2217 B(  5-C ,  7-O ) :   0.1088 
B(  5-C , 23-H ) :   0.9631 B(  6-C ,  7-O ) :   2.0939 B(  6-C ,  8-C ) :   0.8665 
B(  7-O ,  8-C ) :  -0.2136 B(  7-O ,  9-C ) :   0.1244 B(  8-C ,  9-C ) :   1.4118 
B(  8-C , 13-C ) :   1.2629 B(  9-C , 10-C ) :   1.2507 B(  9-C , 24-H ) :   0.9649 
B( 10-C , 11-C ) :   1.4111 B( 10-C , 25-H ) :   0.9628 B( 11-C , 12-C ) :   1.0862 
B( 11-C , 26-H ) :   0.9490 B( 12-C , 13-C ) :   1.2641 B( 12-C , 14-C ) :  -0.1083 
B( 12-C , 16-N ) :   1.2561 B( 13-C , 14-C ) :   0.9684 B( 13-C , 15-O ) :  -0.1063 
B( 14-C , 15-O ) :   1.8686 B( 16-N , 17-C ) :   0.8177 B( 16-N , 27-H ) :   0.8257 
B( 17-C , 18-C ) :   0.8987 B( 17-C , 28-H ) :   0.9846 B( 17-C , 29-H ) :   0.9634 
B( 18-C , 19-O ) :   0.9675 B( 18-C , 30-H ) :   0.9798 B( 18-C , 31-H ) :   0.9640 
B( 19-O , 32-H ) :   0.8947 

-------
TIMINGS
-------

Total SCF time: 0 days 0 hours 2 min 2 sec 

Total time                  ....     122.607 sec
Sum of individual times     ....     121.770 sec  ( 99.3%)

SCF preparation             ....       0.394 sec  (  0.3%)
Fock matrix formation       ....     118.474 sec  ( 96.6%)
  Startup                   ....       0.109 sec  (  0.1% of F)
  Split-RI-J                ....      37.867 sec  ( 32.0% of F)
  XC integration            ....      79.439 sec  ( 67.1% of F)
    XC Preparation          ....       0.000 sec  (  0.0% of XC)
    Basis function eval.    ....      14.949 sec  ( 18.8% of XC)
    Density eval.           ....      31.153 sec  ( 39.2% of XC)
    XC-Functional eval.     ....       5.377 sec  (  6.8% of XC)
    XC-Potential eval.      ....      26.017 sec  ( 32.8% of XC)
Diagonalization             ....       0.000 sec  (  0.0%)
Density matrix formation    ....       0.459 sec  (  0.4%)
Total Energy calculation    ....       0.069 sec  (  0.1%)
Population analysis         ....       0.450 sec  (  0.4%)
Orbital Transformation      ....       0.196 sec  (  0.2%)
Orbital Orthonormalization  ....       0.000 sec  (  0.0%)
DIIS solution               ....       1.364 sec  (  1.1%)
  MO trafo                  ....       0.000 sec  (  0.0 % of DIIS)
  Orb grad                  ....       0.000 sec  (  0.0 % of DIIS)
  Energy W gradient         ....       0.000 sec  (  0.0 % of DIIS)
  DIIS error                ....       0.098 sec  (  7.2 % of DIIS)
  DIIS work                 ....       1.133 sec  ( 83.1 % of DIIS)
  Form Q                    ....       0.000 sec  (  0.0 % of DIIS)
  Form QpQm                 ....       0.000 sec  (  0.0 % of DIIS)
  Exp/Cayley                ....       0.000 sec  (  0.0 % of DIIS)
  Orb update                ....       0.000 sec  (  0.0 % of DIIS)
  Wake-sleep                ....       0.027 sec  (  2.0 % of DIIS)
SOSCF solution              ....       0.365 sec  (  0.3%)
  MO trafo                  ....       0.156 sec  ( 42.8 % of SOSCF)
  Orb grad                  ....       0.004 sec  (  1.2 % of SOSCF)
  Rot update                ....       0.060 sec  ( 16.4 % of SOSCF)
  Step                      ....       0.145 sec  ( 39.6 % of SOSCF)
Finished LeanSCF after 122.7 sec

Maximum memory used throughout the entire LEANSCF-calculation: 61.1 MB


-------------------------------------------------------------------------------
                          DFT DISPERSION CORRECTION                            
                                                                               
                                DFTD4 V3.4.0                                   
-------------------------------------------------------------------------------
The R2SCAN3C composite method is recognized
Using three-body term ABC
Active option DFTDOPT                   ...         5   

-------------------------   ----------------
Dispersion correction           -0.015849496
-------------------------   ----------------

------------------   -----------------
gCP correction             0.016332870
------------------   -----------------

-------------------------   --------------------
FINAL SINGLE POINT ENERGY      -897.782551253152
-------------------------   --------------------


------------------------------------------------------------------------------
                              ORCA PROPERTY CALCULATIONS
------------------------------------------------------------------------------

GBWName                                 ... sp_gas.gbw
Number of atoms                         ...     33
Number of basis functions               ...    465
Max core memory                         ...   1024 MB

Electric properties:
Dipole moment                           ... YES
Quadrupole moment                       ...  NO
Static polarizability (Dipole/Dipole)   ...  NO
Static polarizability (Dipole/Quad.)    ...  NO
Static polarizability (Quad./Quad.)     ...  NO
Static polarizability (Velocity)        ...  NO

Atomic electric properties:
Dipole moment                           ...  NO
Quadrupole moment                       ...  NO
Static polarizability                   ...  NO

Choice of electric origin               ... Center of mass
Position of electric origin             ...     0.000009    -0.000005    -0.000005

General magnetic properties:
Magnetizability                         ...  NO

EPR properties:
g-Tensor (aka g-matrix)                 ...  NO
Zero-Field splitting spin-orbit         ...  NO
Zero-field splitting spin-spin          ...  NO
Hyperfine couplings                     ...  NO (   0 nuclei)
Quadrupole couplings                    ...  NO (   0 nuclei)
Contact density                         ...  NO (   0 nuclei)

NMR properties:
Chemical shifts                         ...  NO (   0 nuclei)
Spin-rotation constants                 ...  NO (   0 nuclei)
Spin-spin couplings                     ...  NO (   0 nuclei,    0 pairs)

Choice of magnetic origin               ... GIAO
Position of magnetic origin             ...     0.000000     0.000000     0.000000

Properties with geometric perturbations:
SCF Hessian                             ...  NO
IR spectrum                             ...  NO
VCD spectrum                            ...  NO
X-ray spectroscopy properties:
SCF XES/XAS/RIXS spectra                ...  NO


-------------
DIPOLE MOMENT
-------------

Method             : SCF
Type of density    : Electron Density
Multiplicity       :   1
Irrep              :   0
Energy             :  -897.7830346277826266 Eh
Relativity type    : 
Basis              : AO
                                X                 Y                 Z
Electronic contribution:    -11.210506558       3.597481210      -0.946677406
Nuclear contribution   :     12.755360390      -4.133406405       0.678397189
                        -----------------------------------------
Total Dipole Moment    :      1.544853832      -0.535925196      -0.268280217
                        -----------------------------------------
Magnitude (a.u.)       :      1.657034536
Magnitude (Debye)      :      4.211847069



--------------------
Rotational spectrum 
--------------------
 
Rotational constants in cm-1:             0.021286             0.007928             0.006176 
Rotational constants in MHz :           638.147567           237.671279           185.157401 

Dipole components along the rotational axes: 
x,y,z [a.u.] :     1.521142    -0.604614    -0.257553 
x,y,z [Debye]:     3.866435    -1.536807    -0.654647 

 

Dipole moment calculation done in   0.0 sec 

Maximum memory used throughout the entire PROP-calculation: 41.9 MB

--------------------------------
SUGGESTED CITATIONS FOR THIS RUN
--------------------------------

Below you find a list of papers that are relevant to this ORCA run
We neither can nor want to force you to cite these papers, but we appreciate if you do
You receive ORCA, which is the product of decades of hard work by many enthusiastic individuals, for free
The only thing we kindly ask in return is that you cite our papers,
We deeply appreciate it, if you show your appreciation for ORCA by not just citing the generic ORCA reference.

Please note that relegating all ORCA citations to the supporting information does *not* help us.
SI sections are not indexed - citations you put there will not count into any citation statistics
But we need these citations in order to attract the funding resources that allow us to do what we are doing

Therefore, if you are a happy ORCA user, please consider citing a few of the papers listed below in the main body of your paper

In addition to the list printed below, the program has created the file sp_gas.bibtex that contains the list in bibtex format
You can import this file easily into all common literature databanks and citation aid programs


List of essential papers. We consider these as the minimum necessary citations

  1. Neese,F.
     Software update: the ORCA program system, version 5.0
     WIRES Comput. Molec. Sci., 2022 12(1)e1606
     doi.org/10.1002/wcms.1606
  2. Grimme,S.; Hansen,A.; Ehlert,S.; Mewes,J.
     r2SCAN-3c: A 'Swiss army knife' composite electronic-structure method
     J. Chem. Phys., 2021 154 064103
     doi.org/10.1063/5.0040021

List of papers to cite with high priority. The work reported in these papers was absolutely
necessary for this run to complete.
Our perspective: the developers of density functionals and basis sets usually get cited in chemistry papers
Good! But without the algorithms to do something with them, the functionals or basis sets would not do anything.
Hence, in our opinion, the algorithm design and method developments papers are equally worthy of getting cited

  1. Neese,F.
     An improvement of the resolution of the identity approximation for the formation of the Coulomb matrix
     J. Comp. Chem., 2003 24(14)1740-1747
     doi.org/10.1002/jcc.10318
  2. Neese,F.
     The SHARK Integral Generation and Digestion System
     J. Comp. Chem., 2022  1-16
     doi.org/10.1002/jcc.26942
  3. Lehtola,S.; Steigemann,C.; Oliveira,M.; Marques,M.
     Recent developments in Libxc - A comprehensive library of functionals for density functional theory
     Software X, 2018 7 
     doi.org/10.1016/j.softx.2017.11.002
  4. Caldeweyher,E.; Bannwarth,C.; Grimme,S.
     Extension of the D3 dispersion coefficient model
     J. Chem. Phys., 2017 147 034112-XXXX
     doi.org/10.1063/1.4993215
  5. Caldeweyher,E.; Ehlert,S.; Hansen,A.; Neugebauer,H.; Spicher,S.; Bannwarth,C.; Grimme,S.
     A generally applicable atomic-charge dependent London dispersion correction
     J. Chem. Phys., 2019 150 154122-XXXX
     doi.org/10.1063/1.5090222
  6. Caldeweyher,E.; Mewes,J.; Ehlert,S.; Grimme,S.
     Extension and evaluation of the D4 London-dispersion model for periodic systems
     Phys. Chem. Chem. Phys., 2020 22(16)8499-8512
     doi.org/10.1039/D0CP00502A

List of suggested additional citations. These are papers that are important in the 'surrounding' of 
of this run, or papers that preceded the highly important papers. If you like your results we are grateful for a citation.

  1. Neese,F.
     The ORCA program system
     WIRES Comput. Molec. Sci., 2012 2(1)73-78
     doi.org/10.1002/wcms.81
  2. Neese,F.
     Software update: the ORCA program system, version 4.0
     WIRES Comput. Molec. Sci., 2018 8(1)1-6
     doi.org/10.1002/wcms.1327
  3. Neese,F.; Wennmohs,F.; Becker,U.; Riplinger,C.
     The ORCA quantum chemistry program package
     J. Chem. Phys., 2020 152 Art. No. L224108
     doi.org/10.1063/5.0004608

List of optional additional citations

  1. Neese,F.
     Approximate second-order SCF convergence for spin unrestricted wavefunctions
     Chem. Phys. Lett., 2000 325(1-3)93-98
     doi.org/10.1016/s0009-2614(00)00662-x

Timings for individual modules:

Sum of individual times          ...      127.551 sec (=   2.126 min)
Startup calculation              ...        3.933 sec (=   0.066 min)   3.1 %
SCF iterations                   ...      123.444 sec (=   2.057 min)  96.8 %
Property calculations            ...        0.175 sec (=   0.003 min)   0.1 %
                             ****ORCA TERMINATED NORMALLY****
TOTAL RUN TIME: 0 days 0 hours 2 minutes 8 seconds 571 msec
