20
 energy: -386.243963985219 gnorm: 0.001150591429 xtb: 6.7.1 (edcfbbe)
C           -2.64304731136695       -1.24148408279572       -0.37524716167580
C           -2.59255454775298        0.19941188255451        0.12461023455385
C           -1.27871968227683        0.51823001866858        0.83941329650994
C           -0.09458068476260        0.46112028707009       -0.08605741191450
O           -0.09727020026924        0.85719148570950       -1.24103152071375
O            0.99648403545449       -0.05158252122853        0.51014056302897
C            2.21875945905073       -0.09240869499678       -0.29295656815907
C            3.30698681809667       -0.66012807015130        0.58179049167994
H           -1.83444107442825       -1.44396957626313       -1.08737697698067
H           -2.54087405588608       -1.94712445628140        0.45665793191610
H           -3.59075649874071       -1.45106311421605       -0.88098759652555
H           -3.41388847143086        0.37963631295334        0.82626713497903
H           -2.72914454415250        0.89541792840233       -0.71021646842685
H           -1.11457429172815       -0.15530329582183        1.68521270496749
H           -1.30003379199864        1.54115218721831        1.23886793283440
H            2.03127130058922       -0.71751574661781       -1.17125107593034
H            2.44831093828419        0.92472070267555       -0.62435093909895
H            3.05871226186309       -1.67257115938714        0.91340877731195
H            4.23754681726581       -0.70555568932468        0.00809745696727
H            3.47550628121861       -0.02926906117806        1.45936685422090
20
 energy: -386.243966159680 gnorm: 0.000987395470 xtb: 6.7.1 (edcfbbe)
C           -2.64409400544349       -1.24174174179358       -0.37475784521870
C           -2.59271446154455        0.19931386603276        0.12403580016965
C           -1.27868619070546        0.51749238711240        0.83871660537402
C           -0.09378223168398        0.46307563037466       -0.08604173529373
O           -0.09659762885061        0.85618316187143       -1.24240373471708
O            0.99673052309080       -0.05037895487072        0.51095556530913
C            2.21967995387266       -0.09181188158115       -0.29261371878721
C            3.30773318219227       -0.66035502132159        0.58182506566911
H           -1.83621765932491       -1.44491140302448       -1.08711621550389
H           -2.54184812880232       -1.94638378933636        0.45767880728448
H           -3.59221998672795       -1.45076902383301       -0.87942697018379
H           -3.41373212387744        0.38012817963421        0.82572122584854
H           -2.72873674716602        0.89482941419712       -0.71109045446177
H           -1.11433586966728       -0.15711714821527        1.68355894688940
H           -1.30071261852879        1.54006470990162        1.23910611634567
H            2.03121324408369       -0.71595319870549       -1.17128532061353
H            2.44903886238969        0.92561473912640       -0.62310900641908
H            3.05887372737267       -1.67264122341014        0.91275779196166
H            4.23812545111505       -0.70570979332825        0.00822037625729
H            3.47597546534595       -0.03002378732890        1.45962700785296
20
 energy: -386.243966159680 gnorm: 0.000987395470 xtb: 6.7.1 (edcfbbe)
C           -2.64409400544349       -1.24174174179358       -0.37475784521870
C           -2.59271446154455        0.19931386603276        0.12403580016965
C           -1.27868619070546        0.51749238711240        0.83871660537402
C           -0.09378223168398        0.46307563037466       -0.08604173529373
O           -0.09659762885061        0.85618316187143       -1.24240373471708
O            0.99673052309080       -0.05037895487072        0.51095556530913
C            2.21967995387266       -0.09181188158115       -0.29261371878721
C            3.30773318219227       -0.66035502132159        0.58182506566911
H           -1.83621765932491       -1.44491140302448       -1.08711621550389
H           -2.54184812880232       -1.94638378933636        0.45767880728448
H           -3.59221998672795       -1.45076902383301       -0.87942697018379
H           -3.41373212387744        0.38012817963421        0.82572122584854
H           -2.72873674716602        0.89482941419712       -0.71109045446177
H           -1.11433586966728       -0.15711714821527        1.68355894688940
H           -1.30071261852879        1.54006470990162        1.23910611634567
H            2.03121324408369       -0.71595319870549       -1.17128532061353
H            2.44903886238969        0.92561473912640       -0.62310900641908
H            3.05887372737267       -1.67264122341014        0.91275779196166
H            4.23812545111505       -0.70570979332825        0.00822037625729
H            3.47597546534595       -0.03002378732890        1.45962700785296
