
                                 *****************
                                 * O   R   C   A *
                                 *****************

                                            #,                                       
                                            ###                                      
                                            ####                                     
                                            #####                                    
                                            ######                                   
                                           ########,                                 
                                     ,,################,,,,,                         
                               ,,#################################,,                 
                          ,,##########################################,,             
                       ,#########################################, ''#####,          
                    ,#############################################,,   '####,        
                  ,##################################################,,,,####,       
                ,###########''''           ''''###############################       
              ,#####''   ,,,,##########,,,,          '''####'''          '####       
            ,##' ,,,,###########################,,,                        '##       
           ' ,,###''''                  '''############,,,                           
         ,,##''                                '''############,,,,        ,,,,,,###''
      ,#''                                            '''#######################'''  
     '                                                          ''''####''''         
             ,#######,   #######,   ,#######,      ##                                
            ,#'     '#,  ##    ##  ,#'     '#,    #''#        ,####,   ,####,        
            ##       ##  ##   ,#'  ##            #'  '#       #'       #'  '#        
            ##       ##  #######   ##           ,######,      #####,   #    #        
            '#,     ,#'  ##    ##  '#,     ,#' ,#      #,     #,   #   #,  ,#        
             '#######'   ##     ##  '#######'  #'      '#     '####' # '####'        



                #########################################################
                #                        -***-                          #
                #          Department of theory and spectroscopy        #
                #                                                       #
                #                      Frank Neese                      #
                #                                                       #
                #     Directorship, Architecture, Infrastructure        #
                #                    SHARK, DRIVERS                     #
                #        Core code/Algorithms in most modules           #
                #                                                       #
                #        Max Planck Institute fuer Kohlenforschung      #
                #                Kaiser Wilhelm Platz 1                 #
                #                 D-45470 Muelheim/Ruhr                 #
                #                      Germany                          #
                #                                                       #
                #                  All rights reserved                  #
                #                        -***-                          #
                #########################################################


                         Program Version 6.0.0  -   RELEASE  -


 With contributions from (in alphabetic order):
   Daniel Aravena         : Magnetic Suceptibility
   Michael Atanasov       : Ab Initio Ligand Field Theory (pilot matlab implementation)
   Alexander A. Auer      : GIAO ZORA, VPT2 properties, NMR spectrum
   Ute Becker             : All parallelization in ORCA, NUMFREQ, NUMCALC
   Giovanni Bistoni       : ED, misc. LED, open-shell LED, HFLD
   Martin Brehm           : Molecular dynamics
   Dmytro Bykov           : pre 5.0 version of the SCF Hessian
   Marcos Casanova-Páez   : Triplet and SCS-CIS(D). UHF-(DLPNO)-IP/EA/STEOM-CCSD. UHF-CVS-IP/STEOM-CCSD
   Vijay G. Chilkuri      : MRCI spin determinant printing, contributions to CSF-ICE
   Pauline Colinet        : FMM embedding
   Dipayan Datta          : RHF DLPNO-CCSD density
   Achintya Kumar Dutta   : EOM-CC, STEOM-CC
   Nicolas Foglia         : Exact transition moments, OPA infrastructure, MCD improvements
   Dmitry Ganyushin       : Spin-Orbit,Spin-Spin,Magnetic field MRCI
   Miquel Garcia          : C-PCM and meta-GGA Hessian, CCSD/C-PCM, Gaussian charge scheme
   Tiago L. C. Gouveia    : GS-ROHF, GS-ROCIS
   Yang Guo               : DLPNO-NEVPT2, F12-NEVPT2, CIM, IAO-localization
   Andreas Hansen         : Spin unrestricted coupled pair/coupled cluster methods
   Ingolf Harden          : AUTO-CI MPn and infrastructure 
   Benjamin Helmich-Paris : MC-RPA, TRAH-(SCF,CASSCF), AVAS, COSX integrals, SCF dyn. polar.
   Lee Huntington         : MR-EOM, pCC
   Robert Izsak           : Overlap fitted RIJCOSX, COSX-SCS-MP3, EOM
   Riya Kayal             : Wick's Theorem for AUTO-CI, AUTO-CI UHF-CCSDT
   Emily Kempfer          : AUTO-CI, RHF CISDT and CCSDT
   Christian Kollmar      : KDIIS, OOCD, Brueckner-CCSD(T), CCSD density, CASPT2, CASPT2-K, improved NEVPT2
   Axel Koslowski         : Symmetry handling
   Simone Kossmann        : Meta GGA functionals, TD-DFT gradient, OOMP2, (MP2 Hessian; deprecated post 5.0)
   Lucas Lang             : DCDCAS
   Marvin Lechner         : AUTO-CI (C++ implementation), FIC-MRCC
   Spencer Leger          : CASSCF response
   Dagmar Lenk            : GEPOL surface, SMD, ORCA-2-JSON
   Dimitrios Liakos       : Extrapolation schemes; Compound Job, initial MDCI parallelization
   Dimitrios Manganas     : Further ROCIS development; embedding schemes. LFT, Crystal Embedding
   Dimitrios Pantazis     : SARC Basis sets
   Anastasios Papadopoulos: AUTO-CI, single reference methods and gradients
   Taras Petrenko         : pre 6.0 DFT Hessian and TD-DFT gradient, (ASA, deprecated), ECA, 1-Electron XAS/XES, NRVS
   Peter Pinski           : DLPNO-MP2, DLPNO-MP2 Gradient
   Christoph Reimann      : Effective Core Potentials
   Marius Retegan         : Local ZFS, SOC
   Christoph Riplinger    : Optimizer, TS searches, QM/MM, DLPNO-CCSD(T), (RO)-DLPNO pert. Triples
   Michael Roemelt        : Original ROCIS implementation
   Masaaki Saitow         : Open-shell DLPNO-CCSD energy and density
   Barbara Sandhoefer     : DKH picture change effects
   Kantharuban Sivalingam : CASSCF convergence/infrastructure, NEVPT2 and variants, FIC-MRCI
   Bernardo de Souza      : ESD, SOC TD-DFT
   Georgi Stoychev        : AutoAux, RI-MP2 NMR, DLPNO-MP2 response, X2C
   Van Anh Tran           : RI-MP2 g-tensors
   Willem Van den Heuvel  : Paramagnetic NMR
   Zikuan Wang            : NOTCH, Electric field optimization 
   Frank Wennmohs         : Technical directorship and infrastructure
   Hang Xu                : AUTO-CI-Response properties 


 We gratefully acknowledge several colleagues who have allowed us to
 interface, adapt or use parts of their codes:
   Stefan Grimme, W. Hujo, H. Kruse, P. Pracht,  : VdW corrections, initial TS optimization,
                  C. Bannwarth, S. Ehlert,         DFT functionals, gCP, sTDA/sTD-DF
                  L. Wittmann, M. Mueller
   Ed Valeev, F. Pavosevic, A. Kumar             : LibInt (2-el integral package), F12 methods
   Garnet Chan, S. Sharma, J. Yang, R. Olivares  : DMRG
   Ulf Ekstrom                                   : XCFun DFT Library
   Mihaly Kallay                                 : mrcc  (arbitrary order and MRCC methods)
   Frank Weinhold                                : gennbo (NPA and NBO analysis)
   Simon Mueller                                 : openCOSMO-RS
   Christopher J. Cramer and Donald G. Truhlar   : smd solvation model
   Lars Goerigk                                  : TD-DFT with DH, B97 family of functionals
   V. Asgeirsson, H. Jonsson                     : NEB implementation
   FAccTs GmbH                                   : IRC, NEB, NEB-TS, DLPNO-Multilevel, CI-OPT
                                                   MM, QMMM, 2- and 3-layer-ONIOM, Crystal-QMMM,
                                                   LR-CPCM, SF, NACMEs, symmetry and pop. for TD-DFT,
                                                   nearIR, NL-DFT gradient (VV10), updates on ESD,
                                                   ML-optimized integration grids, MBIS, APM,
                                                   GOAT, DOCKER, SOLVATOR, interface openCOSMO-RS
   S Lehtola, MJT Oliveira, MAL Marques          : LibXC Library
   Liviu Ungur et al                             : ANISO software


 Your calculation uses the libint2 library for the computation of 2-el integrals
 For citations please refer to: http://libint.valeyev.net

 Your ORCA version has been built with support for libXC version: 6.2.2
 For citations please refer to: https://libxc.gitlab.io

 This ORCA versions uses:
   CBLAS   interface :  Fast vector & matrix operations
   LAPACKE interface :  Fast linear algebra routines
   SCALAPACK package :  Parallel linear algebra routines
   Shared memory     :  Shared parallel matrices
   BLAS/LAPACK       :  OpenBLAS 0.3.27  USE64BITINT DYNAMIC_ARCH NO_AFFINITY SkylakeX SINGLE_THREADED
        Core in use  :  SkylakeX
   Copyright (c) 2011-2014, The OpenBLAS Project


Your calculation utilizes the geometrical counterpoise correction gCP
Please cite in your paper:
H.Kruse, S. Grimme J.Chem.Phys., 136, (2012), 154101 
   

Your calculation utilizes the atom-pairwise dispersion correction
based on EEQ partial charges (D4)


================================================================================

----- Orbital basis set information -----
Your calculation utilizes the basis: def2-mTZVPP
   Stefan Grimme, Andreas Hansen, Sebastian Ehlert, and Jan-Michael Mewes 
   J. Chem. Phys. 154, 064103 (2021). DOI: 10.1063/5.0040021

----- AuxJ basis set information -----
Your calculation utilizes the auxiliary basis: def2/J
   F. Weigend, Phys. Chem. Chem. Phys. 8, 1057 (2006).

================================================================================
                                        WARNINGS
                       Please study these warnings very carefully!
================================================================================

Using LibXC functional ID 497 : Re-regularized SCAN exchange by Furness et al
[ 1]  J. W. Furness, A. D. Kaplan, J. Ning, J. P. Perdew, and J. Sun.,  J. Phys. Chem. Lett. 11, 8208-8215 (2020)
[ 2]  J. W. Furness, A. D. Kaplan, J. Ning, J. P. Perdew, and J. Sun.,  J. Phys. Chem. Lett. 11, 9248-9248 (2020)
Using LibXC functional ID 498 : Re-regularized SCAN correlation by Furness et al
[ 1]  J. W. Furness, A. D. Kaplan, J. Ning, J. P. Perdew, and J. Sun.,  J. Phys. Chem. Lett. 11, 8208-8215 (2020)
[ 2]  J. W. Furness, A. D. Kaplan, J. Ning, J. P. Perdew, and J. Sun.,  J. Phys. Chem. Lett. 11, 9248-9248 (2020)
Using LibXC functional ID 497 : Re-regularized SCAN exchange by Furness et al
[ 1]  J. W. Furness, A. D. Kaplan, J. Ning, J. P. Perdew, and J. Sun.,  J. Phys. Chem. Lett. 11, 8208-8215 (2020)
[ 2]  J. W. Furness, A. D. Kaplan, J. Ning, J. P. Perdew, and J. Sun.,  J. Phys. Chem. Lett. 11, 9248-9248 (2020)
Using LibXC functional ID 498 : Re-regularized SCAN correlation by Furness et al
[ 1]  J. W. Furness, A. D. Kaplan, J. Ning, J. P. Perdew, and J. Sun.,  J. Phys. Chem. Lett. 11, 8208-8215 (2020)
[ 2]  J. W. Furness, A. D. Kaplan, J. Ning, J. P. Perdew, and J. Sun.,  J. Phys. Chem. Lett. 11, 9248-9248 (2020)

================================================================================
                                       INPUT FILE
================================================================================
NAME = sp_gas.inp
|  1> ! r2scan-3c def2/J RI DEFGRID2 scfconv6 printgap
|  2> %output
|  3>     printlevel normal
|  4> end
|  5> * xyz 0 1
|  6> C 2.2389173761 0.6335105383 -1.0672131241
|  7> C 1.3867693905 -0.3567560551 -0.2906264182
|  8> C 2.1978482281 -1.1359174265 0.7318817188
|  9> S 0.0236129967 0.5518295265 0.5705710391
| 10> C -1.4653834379 -0.3504088974 -0.0479798958
| 11> C -2.6049436864 -0.0929811464 0.924244303
| 12> C -1.807613939 0.1012233399 -1.4577582541
| 13> H 1.6292712832 1.1890110597 -1.7758728935
| 14> H 2.70332318 1.3421234979 -0.3852851754
| 15> H 3.0193226321 0.1059236251 -1.6112782901
| 16> H 0.8889785339 -1.04381871 -0.9781521951
| 17> H 1.5591075481 -1.8198091357 1.2862538514
| 18> H 2.6633265214 -0.4522329714 1.4381252959
| 19> H 2.9757981442 -1.7092118796 0.2321872097
| 20> H -1.1955140655 -1.4099401729 -0.0349463541
| 21> H -2.8360668385 0.9692767123 0.9563753289
| 22> H -3.4915208833 -0.6371285761 0.6074050891
| 23> H -2.3308719421 -0.4151840195 1.9257781324
| 24> H -2.6720081205 -0.4489018948 -1.8235729661
| 25> H -0.9757439792 -0.0707756973 -2.1375701357
| 26> H -2.0401516775 1.1637555465 -1.4595476011
| 27> *
| 28> 
| 29>                          ****END OF INPUT****
================================================================================

                       ****************************
                       * Single Point Calculation *
                       ****************************

---------------------------------
CARTESIAN COORDINATES (ANGSTROEM)
---------------------------------
  C      2.238917    0.633511   -1.067213
  C      1.386769   -0.356756   -0.290626
  C      2.197848   -1.135917    0.731882
  S      0.023613    0.551830    0.570571
  C     -1.465383   -0.350409   -0.047980
  C     -2.604944   -0.092981    0.924244
  C     -1.807614    0.101223   -1.457758
  H      1.629271    1.189011   -1.775873
  H      2.703323    1.342123   -0.385285
  H      3.019323    0.105924   -1.611278
  H      0.888979   -1.043819   -0.978152
  H      1.559108   -1.819809    1.286254
  H      2.663327   -0.452233    1.438125
  H      2.975798   -1.709212    0.232187
  H     -1.195514   -1.409940   -0.034946
  H     -2.836067    0.969277    0.956375
  H     -3.491521   -0.637129    0.607405
  H     -2.330872   -0.415184    1.925778
  H     -2.672008   -0.448902   -1.823573
  H     -0.975744   -0.070776   -2.137570
  H     -2.040152    1.163756   -1.459548

----------------------------
CARTESIAN COORDINATES (A.U.)
----------------------------
  NO LB      ZA    FRAG     MASS         X           Y           Z
   0 C     6.0000    0    12.011    4.230941    1.197161   -2.016741
   1 C     6.0000    0    12.011    2.620614   -0.674171   -0.549204
   2 C     6.0000    0    12.011    4.153331   -2.146573    1.383056
   3 S    16.0000    0    32.060    0.044622    1.042807    1.078223
   4 C     6.0000    0    12.011   -2.769173   -0.662177   -0.090669
   5 C     6.0000    0    12.011   -4.922630   -0.175709    1.746569
   6 C     6.0000    0    12.011   -3.415895    0.191284   -2.754764
   7 H     1.0000    0     1.008    3.078877    2.246905   -3.355913
   8 H     1.0000    0     1.008    5.108540    2.536246   -0.728083
   9 H     1.0000    0     1.008    5.705693    0.200167   -3.044875
  10 H     1.0000    0     1.008    1.679926   -1.972531   -1.848440
  11 H     1.0000    0     1.008    2.946286   -3.438941    2.430668
  12 H     1.0000    0     1.008    5.032958   -0.854596    2.717663
  13 H     1.0000    0     1.008    5.623444   -3.229942    0.438770
  14 H     1.0000    0     1.008   -2.259194   -2.664401   -0.066039
  15 H     1.0000    0     1.008   -5.359390    1.831668    1.807287
  16 H     1.0000    0     1.008   -6.598018   -1.203999    1.147829
  17 H     1.0000    0     1.008   -4.404710   -0.784584    3.639193
  18 H     1.0000    0     1.008   -5.049364   -0.848302   -3.446053
  19 H     1.0000    0     1.008   -1.843889   -0.133747   -4.039422
  20 H     1.0000    0     1.008   -3.855328    2.199179   -2.758145

--------------------------------
INTERNAL COORDINATES (ANGSTROEM)
--------------------------------
 C      0   0   0     0.000000000000     0.00000000     0.00000000
 C      1   0   0     1.519825985811     0.00000000     0.00000000
 C      2   1   0     1.520021122786   112.24310633     0.00000000
 S      2   1   3     1.850779342199   109.32097848   121.53877865
 C      4   2   1     1.847633571593   101.42355712   125.21846795
 C      5   4   2     1.519896871396   107.90100901   159.23310574
 C      5   4   2     1.519397384881   110.30371920   281.84206709
 H      1   2   3     1.087404182735   110.57941814   181.12198187
 H      1   2   3     1.087580251948   110.09393471   300.84709834
 H      1   2   3     1.087836025983   109.98575072    60.80139555
 H      2   1   3     1.092035952968   110.10991501   236.92012192
 H      3   2   1     1.087669981016   110.59813910   178.76419996
 H      3   2   1     1.087600324510   110.05753102    59.01735101
 H      3   2   1     1.087918748961   110.04207794   299.03395979
 H      5   4   2     1.093437641172   105.68134873    41.62158408
 H      6   5   4     1.087585432337   110.09986759    61.87829833
 H      6   5   4     1.087429371857   109.88591891   181.83628731
 H      6   5   4     1.087198244981   110.49101572   302.15781325
 H      7   5   4     1.087950126789   109.91578901   178.80099229
 H      7   5   4     1.087996090609   111.13352620    58.66646144
 H      7   5   4     1.087681797058   109.88007364   298.59911758

---------------------------
INTERNAL COORDINATES (A.U.)
---------------------------
 C      0   0   0     0.000000000000     0.00000000     0.00000000
 C      1   0   0     2.872054884400     0.00000000     0.00000000
 C      2   1   0     2.872423639841   112.24310633     0.00000000
 S      2   1   3     3.497466091074   109.32097848   121.53877865
 C      4   2   1     3.491521446150   101.42355712   125.21846795
 C      5   4   2     2.872188838742   107.90100901   159.23310574
 C      5   4   2     2.871244946021   110.30371920   281.84206709
 H      1   2   3     2.054896102250   110.57941814   181.12198187
 H      1   2   3     2.055228824843   110.09393471   300.84709834
 H      1   2   3     2.055712167722   109.98575072    60.80139555
 H      2   1   3     2.063648879505   110.10991501   236.92012192
 H      3   2   1     2.055398388207   110.59813910   178.76419996
 H      3   2   1     2.055266756487   110.05753102    59.01735101
 H      3   2   1     2.055868491494   110.04207794   299.03395979
 H      5   4   2     2.066297686336   105.68134873    41.62158408
 H      6   5   4     2.055238614360   110.09986759    61.87829833
 H      6   5   4     2.054943702791   109.88591891   181.83628731
 H      6   5   4     2.054506936294   110.49101572   302.15781325
 H      7   5   4     2.055927786996   109.91578901   178.80099229
 H      7   5   4     2.056014646027   111.13352620    58.66646144
 H      7   5   4     2.055420717291   109.88007364   298.59911758

---------------------
BASIS SET INFORMATION
---------------------
There are 3 groups of distinct atoms

 Group   1 Type C   : 11s6p1d contracted to 5s3p1d pattern {62111/411/1}
 Group   2 Type S   : 14s9p2d contracted to 5s4p2d pattern {73211/6111/11}
 Group   3 Type H   : 4s1p contracted to 2s1p pattern {31/1}

Atom   0C    basis set group =>   1
Atom   1C    basis set group =>   1
Atom   2C    basis set group =>   1
Atom   3S    basis set group =>   2
Atom   4C    basis set group =>   1
Atom   5C    basis set group =>   1
Atom   6C    basis set group =>   1
Atom   7H    basis set group =>   3
Atom   8H    basis set group =>   3
Atom   9H    basis set group =>   3
Atom  10H    basis set group =>   3
Atom  11H    basis set group =>   3
Atom  12H    basis set group =>   3
Atom  13H    basis set group =>   3
Atom  14H    basis set group =>   3
Atom  15H    basis set group =>   3
Atom  16H    basis set group =>   3
Atom  17H    basis set group =>   3
Atom  18H    basis set group =>   3
Atom  19H    basis set group =>   3
Atom  20H    basis set group =>   3
---------------------------------
AUXILIARY/J BASIS SET INFORMATION
---------------------------------
There are 3 groups of distinct atoms

 Group   1 Type C   : 12s5p4d2f1g contracted to 6s4p3d1f1g pattern {711111/2111/211/2/1}
 Group   2 Type S   : 14s5p5d2f1g contracted to 8s4p3d1f1g pattern {71111111/2111/311/2/1}
 Group   3 Type H   : 5s2p1d contracted to 3s1p1d pattern {311/2/1}

Atom   0C    basis set group =>   1
Atom   1C    basis set group =>   1
Atom   2C    basis set group =>   1
Atom   3S    basis set group =>   2
Atom   4C    basis set group =>   1
Atom   5C    basis set group =>   1
Atom   6C    basis set group =>   1
Atom   7H    basis set group =>   3
Atom   8H    basis set group =>   3
Atom   9H    basis set group =>   3
Atom  10H    basis set group =>   3
Atom  11H    basis set group =>   3
Atom  12H    basis set group =>   3
Atom  13H    basis set group =>   3
Atom  14H    basis set group =>   3
Atom  15H    basis set group =>   3
Atom  16H    basis set group =>   3
Atom  17H    basis set group =>   3
Atom  18H    basis set group =>   3
Atom  19H    basis set group =>   3
Atom  20H    basis set group =>   3

Checking for AutoStart:
The File: sp_gas.gbw exists
Trying to determine its content:
     ... Fine, the file contains calculation information
     ... Fine, the calculation information was read
     ... Fine, the file contains a basis set
     ... Fine, the basis set was read
     ... Fine, the file contains a geometry
     ... Fine, the geometry was read
     ... Fine, the file contains a set of orbitals
     ... Fine, the orbitals can be read
     => possible old guess file was deleted
     => GBW file was renamed to GES file
     => GES file is set as startup file
     => Guess is set to MORead
     ... now leaving AutoStart

------------------------------------------------------------------------------
                             ORCA STARTUP CALCULATIONS
                           -- RI-GTO INTEGRALS CHOSEN --
------------------------------------------------------------------------------
------------------------------------------------------------------------------
                   ___                                                        
                  /   \      - P O W E R E D   B Y -                         
                 /     \                                                     
                 |  |  |   _    _      __       _____    __    __             
                 |  |  |  | |  | |    /  \     |  _  \  |  |  /  |          
                  \  \/   | |  | |   /    \    | | | |  |  | /  /          
                 / \  \   | |__| |  /  /\  \   | |_| |  |  |/  /          
                |  |  |   |  __  | /  /__\  \  |    /   |      \           
                |  |  |   | |  | | |   __   |  |    \   |  |\   \          
                \     /   | |  | | |  |  |  |  | |\  \  |  | \   \       
                 \___/    |_|  |_| |__|  |__|  |_| \__\ |__|  \__/        
                                                                              
                      - O R C A' S   B I G   F R I E N D -                    
                                      &                                       
                       - I N T E G R A L  F E E D E R -                       
                                                                              
 v1 FN, 2020, v2 2021, v3 2022-2024                                           
------------------------------------------------------------------------------


----------------------
SHARK INTEGRAL PACKAGE
----------------------

Number of atoms                             ...     21
Number of basis functions                   ...    211
Number of shells                            ...    107
Maximum angular momentum                    ...      2
Integral batch strategy                     ... SHARK/LIBINT Hybrid
RI-J (if used) integral strategy            ... SPLIT-RIJ (Revised 2003 algorithm where possible)
Printlevel                                  ...      1
Contraction scheme used                     ... SEGMENTED contraction
Prescreening option                         ... SCHWARTZ
   Thresh                                   ... 1.000e-10
   Tcut                                     ... 1.000e-11
   Tpresel                                  ... 1.000e-11 
Coulomb Range Separation                    ... NOT USED
Exchange Range Separation                   ... NOT USED
Multipole approximations                    ... NOT USED
Finite Nucleus Model                        ... NOT USED
CABS basis                                  ... NOT available
Auxiliary Coulomb fitting basis             ... AVAILABLE
   # of basis functions in Aux-J            ...    499
   # of shells in Aux-J                     ...    177
   Maximum angular momentum in Aux-J        ...      4
Auxiliary J/K fitting basis                 ... NOT available
Auxiliary Correlation fitting basis         ... NOT available
Auxiliary 'external' fitting basis          ... NOT available

Checking pre-screening integrals            ... done (  0.0 sec) Dimension = 107
Check shell pair data                       ... done (  0.0 sec)
Shell pair information
Shell pair cut-off parameter TPreSel        ...   1.0e-11
Total number of shell pairs                 ...      5778
Shell pairs after pre-screening             ...      5093
Total number of primitive shell pairs       ...     20920
Primitive shell pairs kept                  ...     13012
          la=0 lb=0:   1775 shell pairs
          la=1 lb=0:   1996 shell pairs
          la=1 lb=1:    584 shell pairs
          la=2 lb=0:    449 shell pairs
          la=2 lb=1:    256 shell pairs
          la=2 lb=2:     33 shell pairs

Calculating one electron integrals          ... done (  0.0 sec)
Calculating RI/J V-Matrix + Cholesky decomp.... done (  0.1 sec)
Calculating Nuclear repulsion               ... done (  0.0 sec) ENN=    397.805738551594 Eh

Diagonalization of the overlap matrix:
Smallest eigenvalue                        ... 3.752e-04
Time for diagonalization                   ...    0.005 sec
Threshold for overlap eigenvalues          ... 1.000e-07
Number of eigenvalues below threshold      ... 0
Time for construction of square roots      ...    0.015 sec
Total time needed                          ...    0.030 sec

-------------------
DFT GRID GENERATION
-------------------

General Integration Accuracy     IntAcc      ... 4.388
Radial Grid Type                 RadialGrid  ... OptM3 with GC (2021)
Angular Grid (max. ang.)         AngularGrid ... 4 (Lebedev-302)
Angular grid pruning method      GridPruning ... 4 (adaptive)
Weight generation scheme         WeightScheme... mBecke (2022)
Basis function cutoff            BFCut       ... 1.0000e-10
Integration weight cutoff        WCut        ... 1.0000e-14
Partially contracted basis set               ... off
Rotationally invariant grid construction     ... off
Angular grids for H and He will be reduced by one unit

Total number of grid points                  ...    88223
Total number of batches                      ...     1390
Average number of points per batch           ...       63
Average number of grid points per atom       ...     4201
Initializing property integral containers    ... done (  0.0 sec)

SHARK setup successfully completed in   1.2 seconds

Maximum memory used throughout the entire STARTUP-calculation: 39.2 MB
-------------------------------------------------------------------------------
                                 ORCA GUESS
                   Start orbitals & Density for SCF / CASSCF
-------------------------------------------------------------------------------

------------
SCF SETTINGS
------------
Hamiltonian:
 Density Functional     Method          .... DFT(GTOs)
  Functional kind                       .... Exchange
  Functional name                       .... Re-regularized SCAN exchange by Furness et al
  Functional family                     .... MGGA
  Functional refs                              
    [ 0] J. W. Furness, A. D. Kaplan, J. Ning, J. P. Perdew, and J. Sun.,  J. Phys. Chem. Lett. 11, 8208-8215 (2020), doi: 10.1021/acs.jpclett.0c02405
    [ 1] J. W. Furness, A. D. Kaplan, J. Ning, J. P. Perdew, and J. Sun.,  J. Phys. Chem. Lett. 11, 9248-9248 (2020), doi: 10.1021/acs.jpclett.0c03077
  Functional external parameters        .... 6
    Parameter  0 _c1        =  6.670000e-01 : c1 parameter        
    Parameter  1 _c2        =  8.000000e-01 : c2 parameter        
    Parameter  2 _d         =  1.240000e+00 : d parameter         
    Parameter  3 _k1        =  6.500000e-02 : k1 parameter        
    Parameter  4 _eta       =  1.000000e-03 : eta parameter       
    Parameter  5 _dp2       =  3.610000e-01 : dp2 parameter       
  Functional kind                       .... Correlation
  Functional name                       .... Re-regularized SCAN correlation by Furness et al
  Functional family                     .... MGGA
  Functional refs                              
    [ 0] J. W. Furness, A. D. Kaplan, J. Ning, J. P. Perdew, and J. Sun.,  J. Phys. Chem. Lett. 11, 8208-8215 (2020), doi: 10.1021/acs.jpclett.0c02405
    [ 1] J. W. Furness, A. D. Kaplan, J. Ning, J. P. Perdew, and J. Sun.,  J. Phys. Chem. Lett. 11, 9248-9248 (2020), doi: 10.1021/acs.jpclett.0c03077
  Functional external parameters        .... 1
    Parameter  0 _eta       =  1.000000e-03 : Regularization parameter
 Gradients option       PostSCFGGA      .... off
 RI-approximation to the Coulomb term is turned on
   Number of AuxJ basis functions       .... 499


General Settings:
 Integral files         IntName         .... sp_gas
 Hartree-Fock type      HFTyp           .... RHF
 Total Charge           Charge          ....    0
 Multiplicity           Mult            ....    1
 Number of Electrons    NEL             ....   66
 Basis Dimension        Dim             ....  211
 Nuclear Repulsion      ENuc            ....    397.8057385516 Eh

Convergence Acceleration:
 AO-DIIS                CNVDIIS         .... on
   Start iteration      DIISMaxIt       ....    12
   Startup error        DIISStart       ....  0.200000
   # of expansion vecs  DIISMaxEq       ....     5
   Bias factor          DIISBfac        ....   1.050
   Max. coefficient     DIISMaxC        ....  10.000
 MO-DIIS                CNVKDIIS        .... off
 Trust-Rad. Augm. Hess. CNVTRAH         .... auto
   Auto Start mean grad. ratio tolernc. ....  1.125000
   Auto Start start iteration           ....     1
   Auto Start num. interpolation iter.  ....    10
   Max. Number of Micro iterations      ....    24
   Max. Number of Macro iterations      .... Maxiter - #DIIS iter
   Number of Davidson start vectors     ....     2
   Converg. threshold    (grad. norm)   ....   3.330e-04
   Grad. Scal. Fac. for Micro threshold ....   0.100
   Minimum threshold for Micro iter.    ....   1.000e-02
   NR start threshold (gradient norm)   ....   1.000e-04
   Initial trust radius                 ....   0.400
   Minimum AH scaling param. (alpha)    ....   1.000
   Maximum AH scaling param. (alpha)    .... 1000.000
   Quad. conv. algorithm                .... NR
   White noise on init. David. guess    .... on
   Maximum white noise                  ....   0.010
   Pseudo random numbers                .... off
   Inactive MOs                         .... canonical
   Orbital update algorithm             .... Taylor
   Preconditioner                       .... Diag
   Full preconditioner red. dimension   ....   250
   COSX micro iterations for RIJONX calc.... off
 SOSCF                  CNVSOSCF        .... on
   Start iteration      SOSCFMaxIt      ....   150
   Startup grad/error   SOSCFStart      ....  0.003300
   Hessian update       SOSCFHessUp     .... L-BFGS
 Level Shifting         CNVShift        .... on
   Level shift para.    LevelShift      ....    0.2500
   Turn off err/grad.   ShiftErr        ....    0.0010
 Zerner damping         CNVZerner       .... off
 Static damping         CNVDamp         .... on
   Fraction old density DampFac         ....    0.7000
   Max. Damping (<1)    DampMax         ....    0.9800
   Min. Damping (>=0)   DampMin         ....    0.0000
   Turn off err/grad.   DampErr         ....    0.1000

SCF Procedure:
 Maximum # iterations   MaxIter         ....   125
 SCF integral mode      SCFMode         .... Direct
   Integral package                     .... SHARK and LIBINT hybrid scheme
 Reset frequency        DirectResetFreq ....    20
 Integral Threshold     Thresh          ....  1.000e-10 Eh
 Primitive CutOff       TCut            ....  1.000e-11 Eh

Convergence Tolerance:
 Convergence Check Mode ConvCheckMode   .... Total+1el-Energy
 Convergence forced     ConvForced      .... 0
 Energy Change          TolE            ....  1.000e-06 Eh
 1-El. energy change                    ....  1.000e-03 Eh
 Orbital Gradient       TolG            ....  3.330e-04
 Orbital Rotation angle TolX            ....  3.330e-04
 DIIS Error             TolErr          ....  1.000e-06

---------------------
INITIAL GUESS: MOREAD
---------------------
Guess MOs are being read from file: sp_gas.ges
Input Geometry matches current geometry (good)
Atom 0: N(Shells)= 9 and 6 - projection required
Input basis set needs projection
NBasis(read)= 130
NBasis(calc)= 211
Basis set overlap was calculated
Using GuessMode=FMatrix for the initial guess
C*T matrix was formed
Effective Fockian was calculated
Effective Fockian was diagonalized
Initial density was built
                      ------------------
                      INITIAL GUESS DONE (   0.1 sec)
                      ------------------
             **** ENERGY FILE WAS UPDATED (sp_gas.en.tmp) ****
Finished Guess after   0.3 sec
Maximum memory used throughout the entire GUESS-calculation: 14.3 MB

-------------------------------------------------------------------------------------------
                                      ORCA LEAN-SCF
                              memory conserving SCF solver
-------------------------------------------------------------------------------------------

----------------------------------------D-I-I-S--------------------------------------------
Iteration    Energy (Eh)           Delta-E    RMSDP     MaxDP     DIISErr   Damp  Time(sec)
-------------------------------------------------------------------------------------------
               ***  Starting incremental Fock matrix formation  ***
    1    -635.0133711152489013     0.00e+00  3.07e-03  9.07e-02  4.60e-01  0.700   2.6
    2    -635.0580037692886890    -4.46e-02  2.54e-03  6.06e-02  3.22e-01  0.700   2.5
    3    -635.0896193972339461    -3.16e-02  1.88e-03  4.09e-02  2.25e-01  0.700   2.4
                               ***Turning on AO-DIIS***
    4    -635.1118219863999457    -2.22e-02  1.38e-03  2.85e-02  1.58e-01  0.700   2.4
    5    -635.1273985598961644    -1.56e-02  9.91e-04  2.05e-02  1.10e-01  0.700   2.3
    6    -635.1383214745928854    -1.09e-02  7.03e-04  1.45e-02  7.72e-02  0.700   2.3
    7    -635.1459779660381173    -7.66e-03  1.65e-03  3.43e-02  5.41e-02  0.000   2.2
                              *** Initializing SOSCF ***
---------------------------------------S-O-S-C-F--------------------------------------
Iteration    Energy (Eh)           Delta-E    RMSDP     MaxDP     MaxGrad    Time(sec)
--------------------------------------------------------------------------------------
    8    -635.1638779136112589    -1.79e-02  1.26e-05  3.19e-04  1.09e-04     2.4
               *** Restarting incremental Fock matrix formation ***
    9    -635.1638780325090465    -1.19e-07  5.95e-06  1.23e-04  1.88e-05     2.6
                  *** Gradient check signals convergence ***

               *****************************************************
               *                     SUCCESS                       *
               *           SCF CONVERGED AFTER   9 CYCLES          *
               *****************************************************

             **** ENERGY FILE WAS UPDATED (sp_gas.en.tmp) ****

----------------
TOTAL SCF ENERGY
----------------

Total Energy       :       -635.16387803250905 Eh          -17283.68781 eV

Components:
Nuclear Repulsion  :        397.80573855159355 Eh           10824.84447 eV
Electronic Energy  :      -1032.96961658410237 Eh          -28108.53228 eV
One Electron Energy:      -1657.65594655332848 Eh          -45107.11151 eV
Two Electron Energy:        624.68632996922599 Eh           16998.57923 eV

Virial components:
Potential Energy   :      -1268.18582807248754 Eh          -34509.09079 eV
Kinetic Energy     :        633.02195003997849 Eh           17225.40298 eV
Virial Ratio       :          2.00338365516772

DFT components:
N(Alpha)           :       33.000054499992 electrons
N(Beta)            :       33.000054499992 electrons
N(Total)           :       66.000108999984 electrons
E(X)               :      -61.241936180734 Eh       
E(C)               :       -2.152521049044 Eh       
E(XC)              :      -63.394457229777 Eh       

---------------
SCF CONVERGENCE
---------------

  Last Energy change         ...    1.1890e-07  Tolerance :   1.0000e-06
  Last MAX-Density change    ...    1.2310e-04  Tolerance :   1.0000e-05
  Last RMS-Density change    ...    5.9522e-06  Tolerance :   1.0000e-06
  Last DIIS Error            ...    1.0867e-04  Tolerance :   1.0000e-06
  Last Orbital Gradient      ...    1.8778e-05  Tolerance :   3.3300e-04
  Last Orbital Rotation      ...    3.2674e-05  Tolerance :   3.3300e-04


----------------
ORBITAL ENERGIES
----------------

  NO   OCC          E(Eh)            E(eV) 
   0   2.0000     -88.533814     -2409.1276 
   1   2.0000     -10.066890      -273.9340 
   2   2.0000     -10.065657      -273.9005 
   3   2.0000     -10.024171      -272.7716 
   4   2.0000     -10.022391      -272.7231 
   5   2.0000     -10.021528      -272.6996 
   6   2.0000     -10.020874      -272.6819 
   7   2.0000      -7.828165      -213.0152 
   8   2.0000      -5.775528      -157.1601 
   9   2.0000      -5.772080      -157.0663 
  10   2.0000      -5.764743      -156.8666 
  11   2.0000      -0.792778       -21.5726 
  12   2.0000      -0.760035       -20.6816 
  13   2.0000      -0.658911       -17.9299 
  14   2.0000      -0.656092       -17.8532 
  15   2.0000      -0.648329       -17.6419 
  16   2.0000      -0.548355       -14.9215 
  17   2.0000      -0.522022       -14.2050 
  18   2.0000      -0.444510       -12.0957 
  19   2.0000      -0.431054       -11.7296 
  20   2.0000      -0.408798       -11.1240 
  21   2.0000      -0.390274       -10.6199 
  22   2.0000      -0.382706       -10.4139 
  23   2.0000      -0.377588       -10.2747 
  24   2.0000      -0.359713        -9.7883 
  25   2.0000      -0.358310        -9.7501 
  26   2.0000      -0.327794        -8.9197 
  27   2.0000      -0.321121        -8.7381 
  28   2.0000      -0.316837        -8.6216 
  29   2.0000      -0.313706        -8.5364 
  30   2.0000      -0.290870        -7.9150 
  31   2.0000      -0.264519        -7.1979 
  32   2.0000      -0.185733        -5.0541 
  33   0.0000       0.014306         0.3893 
  34   0.0000       0.049550         1.3483 
  35   0.0000       0.075480         2.0539 
  36   0.0000       0.114705         3.1213 
  37   0.0000       0.120057         3.2669 
  38   0.0000       0.124875         3.3980 
  39   0.0000       0.135168         3.6781 
  40   0.0000       0.139421         3.7938 
  41   0.0000       0.142699         3.8830 
  42   0.0000       0.154665         4.2087 
  43   0.0000       0.157033         4.2731 
*Only the first 10 virtual orbitals were printed.

                    ********************************
                    * MULLIKEN POPULATION ANALYSIS *
                    ********************************

-----------------------
MULLIKEN ATOMIC CHARGES
-----------------------
   0 C :   -0.464085
   1 C :   -0.019555
   2 C :   -0.454665
   3 S :   -0.176956
   4 C :   -0.065372
   5 C :   -0.475910
   6 C :   -0.436945
   7 H :    0.155878
   8 H :    0.151250
   9 H :    0.141492
  10 H :    0.145495
  11 H :    0.151518
  12 H :    0.152365
  13 H :    0.139941
  14 H :    0.154755
  15 H :    0.155351
  16 H :    0.144581
  17 H :    0.161314
  18 H :    0.138966
  19 H :    0.141905
  20 H :    0.158678
Sum of atomic charges:    0.0000000

--------------------------------
MULLIKEN REDUCED ORBITAL CHARGES
--------------------------------
  0 C s       :     3.331061  s :     3.331061
      pz      :     1.052077  p :     3.105861
      px      :     1.037561
      py      :     1.016224
      dz2     :     0.001632  d :     0.027163
      dxz     :     0.007441
      dyz     :     0.008032
      dx2y2   :     0.002475
      dxy     :     0.007582

  1 C s       :     3.090196  s :     3.090196
      pz      :     0.982789  p :     2.883694
      px      :     0.927356
      py      :     0.973549
      dz2     :     0.005764  d :     0.045665
      dxz     :     0.011649
      dyz     :     0.011037
      dx2y2   :     0.005477
      dxy     :     0.011738

  2 C s       :     3.327228  s :     3.327228
      pz      :     1.012572  p :     3.100223
      px      :     1.037999
      py      :     1.049652
      dz2     :     0.002358  d :     0.027214
      dxz     :     0.007428
      dyz     :     0.008054
      dx2y2   :     0.001716
      dxy     :     0.007657

  3 S s       :     5.915662  s :     5.915662
      pz      :     3.673920  p :    10.173166
      px      :     2.940246
      py      :     3.559001
      dz2     :     0.009579  d :     0.088127
      dxz     :     0.023546
      dyz     :     0.014879
      dx2y2   :     0.014247
      dxy     :     0.025876

  4 C s       :     3.115234  s :     3.115234
      pz      :     0.938097  p :     2.903919
      px      :     0.916010
      py      :     1.049812
      dz2     :     0.011938  d :     0.046219
      dxz     :     0.012092
      dyz     :     0.005938
      dx2y2   :     0.008778
      dxy     :     0.007474

  5 C s       :     3.329725  s :     3.329725
      pz      :     1.037946  p :     3.119142
      px      :     0.998802
      py      :     1.082394
      dz2     :     0.007312  d :     0.027042
      dxz     :     0.006157
      dyz     :     0.002529
      dx2y2   :     0.006001
      dxy     :     0.005042

  6 C s       :     3.310544  s :     3.310544
      pz      :     0.954710  p :     3.099169
      px      :     1.073119
      py      :     1.071339
      dz2     :     0.006829  d :     0.027233
      dxz     :     0.007781
      dyz     :     0.003659
      dx2y2   :     0.005112
      dxy     :     0.003852

  7 H s       :     0.825863  s :     0.825863
      pz      :     0.006629  p :     0.018259
      px      :     0.005900
      py      :     0.005731

  8 H s       :     0.830432  s :     0.830432
      pz      :     0.006353  p :     0.018319
      px      :     0.005039
      py      :     0.006927

  9 H s       :     0.840192  s :     0.840192
      pz      :     0.005557  p :     0.018315
      px      :     0.007619
      py      :     0.005140

 10 H s       :     0.836322  s :     0.836322
      pz      :     0.006565  p :     0.018183
      px      :     0.005067
      py      :     0.006552

 11 H s       :     0.830193  s :     0.830193
      pz      :     0.005752  p :     0.018289
      px      :     0.006102
      py      :     0.006435

 12 H s       :     0.829338  s :     0.829338
      pz      :     0.006924  p :     0.018298
      px      :     0.005003
      py      :     0.006371

 13 H s       :     0.841747  s :     0.841747
      pz      :     0.004955  p :     0.018312
      px      :     0.007595
      py      :     0.005762

 14 H s       :     0.827287  s :     0.827287
      pz      :     0.003253  p :     0.017958
      px      :     0.003881
      py      :     0.010824

 15 H s       :     0.826400  s :     0.826400
      pz      :     0.003602  p :     0.018249
      px      :     0.003927
      py      :     0.010719

 16 H s       :     0.837077  s :     0.837077
      pz      :     0.004130  p :     0.018342
      px      :     0.008748
      py      :     0.005463

 17 H s       :     0.820464  s :     0.820464
      pz      :     0.010039  p :     0.018222
      px      :     0.003974
      py      :     0.004208

 18 H s       :     0.842703  s :     0.842703
      pz      :     0.004541  p :     0.018331
      px      :     0.008375
      py      :     0.005415

 19 H s       :     0.839703  s :     0.839703
      pz      :     0.006587  p :     0.018392
      px      :     0.007944
      py      :     0.003862

 20 H s       :     0.823105  s :     0.823105
      pz      :     0.003416  p :     0.018217
      px      :     0.003900
      py      :     0.010901


------------------------
MULLIKEN OVERLAP CHARGES
------------------------
B(  0-C ,  1-C ) :   0.5383 B(  0-C ,  2-C ) :  -0.2012 B(  0-C ,  3-S ) :  -0.0852 
B(  0-C ,  7-H ) :   0.8070 B(  0-C ,  8-H ) :   0.8535 B(  0-C ,  9-H ) :   0.8158 
B(  0-C , 10-H ) :  -0.0546 B(  1-C ,  2-C ) :   0.5452 B(  1-C ,  3-S ) :   0.3242 
B(  1-C ,  7-H ) :  -0.0639 B(  1-C ,  8-H ) :  -0.0885 B(  1-C ,  9-H ) :  -0.0864 
B(  1-C , 10-H ) :   0.8091 B(  1-C , 11-H ) :  -0.0597 B(  1-C , 12-H ) :  -0.0913 
B(  1-C , 13-H ) :  -0.0843 B(  2-C ,  3-S ) :  -0.1111 B(  2-C , 11-H ) :   0.8025 
B(  2-C , 12-H ) :   0.8640 B(  2-C , 13-H ) :   0.8144 B(  3-S ,  4-C ) :   0.4592 
B(  3-S ,  5-C ) :  -0.1366 B(  3-S ,  6-C ) :  -0.1530 B(  3-S , 10-H ) :  -0.0825 
B(  3-S , 14-H ) :  -0.0967 B(  4-C ,  5-C ) :   0.5346 B(  4-C ,  6-C ) :   0.4680 
B(  4-C , 14-H ) :   0.8451 B(  4-C , 15-H ) :  -0.0904 B(  4-C , 16-H ) :  -0.0762 
B(  4-C , 17-H ) :  -0.0734 B(  4-C , 18-H ) :  -0.0689 B(  4-C , 19-H ) :  -0.0609 
B(  4-C , 20-H ) :  -0.0961 B(  5-C ,  6-C ) :  -0.2142 B(  5-C , 14-H ) :  -0.0538 
B(  5-C , 15-H ) :   0.8548 B(  5-C , 16-H ) :   0.8047 B(  5-C , 17-H ) :   0.8110 
B(  6-C , 14-H ) :  -0.0792 B(  6-C , 18-H ) :   0.7870 B(  6-C , 19-H ) :   0.7980 
B(  6-C , 20-H ) :   0.8562 B(  8-H ,  9-H ) :  -0.0501 B( 12-H , 13-H ) :  -0.0505 



                     *******************************
                     * LOEWDIN POPULATION ANALYSIS *
                     *******************************

----------------------
LOEWDIN ATOMIC CHARGES
----------------------
   0 C :   -0.421292
   1 C :   -0.288049
   2 C :   -0.420838
   3 S :    0.063189
   4 C :   -0.288949
   5 C :   -0.418746
   6 C :   -0.420789
   7 H :    0.158546
   8 H :    0.157316
   9 H :    0.151744
  10 H :    0.163674
  11 H :    0.157494
  12 H :    0.157910
  13 H :    0.150429
  14 H :    0.160105
  15 H :    0.158392
  16 H :    0.155284
  17 H :    0.160782
  18 H :    0.151044
  19 H :    0.152675
  20 H :    0.160079

-------------------------------
LOEWDIN REDUCED ORBITAL CHARGES
-------------------------------
  0 C s       :     2.978359  s :     2.978359
      pz      :     1.130361  p :     3.378669
      px      :     1.127966
      py      :     1.120342
      dz2     :     0.003023  d :     0.064264
      dxz     :     0.018279
      dyz     :     0.019703
      dx2y2   :     0.004873
      dxy     :     0.018386

  1 C s       :     2.937674  s :     2.937674
      pz      :     1.095666  p :     3.254081
      px      :     1.064769
      py      :     1.093646
      dz2     :     0.009526  d :     0.096293
      dxz     :     0.025983
      dyz     :     0.024964
      dx2y2   :     0.009536
      dxy     :     0.026284

  2 C s       :     2.979603  s :     2.979603
      pz      :     1.117805  p :     3.376729
      px      :     1.128658
      py      :     1.130266
      dz2     :     0.004577  d :     0.064505
      dxz     :     0.018012
      dyz     :     0.019725
      dx2y2   :     0.003291
      dxy     :     0.018900

  3 S s       :     5.427993  s :     5.427993
      pz      :     3.639968  p :    10.193468
      px      :     2.985496
      py      :     3.568004
      dz2     :     0.043457  d :     0.315350
      dxz     :     0.077866
      dyz     :     0.038442
      dx2y2   :     0.068244
      dxy     :     0.087342

  4 C s       :     2.939374  s :     2.939374
      pz      :     1.087103  p :     3.252336
      px      :     1.052681
      py      :     1.112553
      dz2     :     0.025183  d :     0.097239
      dxz     :     0.025623
      dyz     :     0.010907
      dx2y2   :     0.019636
      dxy     :     0.015890

  5 C s       :     2.975068  s :     2.975068
      pz      :     1.121373  p :     3.379959
      px      :     1.101232
      py      :     1.157354
      dz2     :     0.017161  d :     0.063719
      dxz     :     0.014641
      dyz     :     0.005617
      dx2y2   :     0.014437
      dxy     :     0.011862

  6 C s       :     2.979290  s :     2.979290
      pz      :     1.075821  p :     3.376824
      px      :     1.145677
      py      :     1.155325
      dz2     :     0.016118  d :     0.064675
      dxz     :     0.018382
      dyz     :     0.007810
      dx2y2   :     0.012805
      dxy     :     0.009559

  7 H s       :     0.797765  s :     0.797765
      pz      :     0.016080  p :     0.043689
      px      :     0.014099
      py      :     0.013510

  8 H s       :     0.799122  s :     0.799122
      pz      :     0.015505  p :     0.043561
      px      :     0.011525
      py      :     0.016531

  9 H s       :     0.804493  s :     0.804493
      pz      :     0.012979  p :     0.043763
      px      :     0.018494
      py      :     0.012290

 10 H s       :     0.791569  s :     0.791569
      pz      :     0.016272  p :     0.044757
      px      :     0.012193
      py      :     0.016292

 11 H s       :     0.799001  s :     0.799001
      pz      :     0.013476  p :     0.043505
      px      :     0.014631
      py      :     0.015398

 12 H s       :     0.798537  s :     0.798537
      pz      :     0.016559  p :     0.043553
      px      :     0.011430
      py      :     0.015564

 13 H s       :     0.805785  s :     0.805785
      pz      :     0.011799  p :     0.043787
      px      :     0.018415
      py      :     0.013573

 14 H s       :     0.795516  s :     0.795516
      pz      :     0.008184  p :     0.044379
      px      :     0.009330
      py      :     0.026865

 15 H s       :     0.797821  s :     0.797821
      pz      :     0.007959  p :     0.043787
      px      :     0.008788
      py      :     0.027040

 16 H s       :     0.800929  s :     0.800929
      pz      :     0.009566  p :     0.043787
      px      :     0.021277
      py      :     0.012944

 17 H s       :     0.795359  s :     0.795359
      pz      :     0.025233  p :     0.043859
      px      :     0.008988
      py      :     0.009638

 18 H s       :     0.805061  s :     0.805061
      pz      :     0.010549  p :     0.043895
      px      :     0.020458
      py      :     0.012888

 19 H s       :     0.803786  s :     0.803786
      pz      :     0.015657  p :     0.043539
      px      :     0.019368
      py      :     0.008514

 20 H s       :     0.796222  s :     0.796222
      pz      :     0.007618  p :     0.043699
      px      :     0.008615
      py      :     0.027466


---------------------------------
LOEWDIN BOND ORDERS (THRESH 0.050000)
---------------------------------
B(  0-C ,  1-C ) :   1.1165 B(  0-C ,  2-C ) :   0.0724 B(  0-C ,  3-S ) :   0.1315 
B(  0-C ,  7-H ) :   0.9240 B(  0-C ,  8-H ) :   0.9217 B(  0-C ,  9-H ) :   0.9167 
B(  1-C ,  2-C ) :   1.1154 B(  1-C ,  3-S ) :   1.2418 B(  1-C ,  4-C ) :   0.0659 
B(  1-C , 10-H ) :   0.8452 B(  2-C ,  3-S ) :   0.1369 B(  2-C , 11-H ) :   0.9241 
B(  2-C , 12-H ) :   0.9216 B(  2-C , 13-H ) :   0.9166 B(  3-S ,  4-C ) :   1.2569 
B(  3-S ,  5-C ) :   0.1296 B(  3-S ,  6-C ) :   0.1298 B(  3-S , 10-H ) :   0.0532 
B(  3-S , 14-H ) :   0.0578 B(  4-C ,  5-C ) :   1.1138 B(  4-C ,  6-C ) :   1.1109 
B(  4-C , 14-H ) :   0.8497 B(  5-C ,  6-C ) :   0.0722 B(  5-C , 15-H ) :   0.9207 
B(  5-C , 16-H ) :   0.9154 B(  5-C , 17-H ) :   0.9231 B(  6-C , 18-H ) :   0.9159 
B(  6-C , 19-H ) :   0.9223 B(  6-C , 20-H ) :   0.9218 

------------------------------------------
LOEWDIN REDUCED ORBITAL POPULATIONS PER MO
-------------------------------------------
THRESHOLD FOR PRINTING IS 0.1%%
                      0         1         2         3         4         5   
                 -88.53381 -10.06689 -10.06566 -10.02417 -10.02239 -10.02153
                   2.00000   2.00000   2.00000   2.00000   2.00000   2.00000
                  --------  --------  --------  --------  --------  --------
 0 C  s               0.0       0.0       0.0       0.0       0.0      99.7
 1 C  s               0.0       0.0      99.6       0.0       0.0       0.0
 3 S  s             100.0       0.0       0.0       0.0       0.0       0.0
 4 C  s               0.0      99.6       0.0       0.0       0.0       0.0
 5 C  s               0.0       0.0       0.0      99.7       0.0       0.0
 6 C  s               0.0       0.0       0.0       0.0      99.7       0.0

                      6         7         8         9        10        11   
                 -10.02087  -7.82817  -5.77553  -5.77208  -5.76474  -0.79278
                   2.00000   2.00000   2.00000   2.00000   2.00000   2.00000
                  --------  --------  --------  --------  --------  --------
 0 C  s               0.0       0.0       0.0       0.0       0.0       5.6
 0 C  pz              0.0       0.0       0.0       0.0       0.0       0.7
 0 C  px              0.0       0.0       0.0       0.0       0.0       0.8
 0 C  py              0.0       0.0       0.0       0.0       0.0       0.7
 1 C  s               0.0       0.0       0.0       0.0       0.0      16.2
 1 C  pz              0.0       0.0       0.0       0.0       0.0       0.4
 1 C  px              0.0       0.1       0.0       0.0       0.0       0.3
 1 C  py              0.0       0.0       0.0       0.0       0.0       0.4
 2 C  s              99.7       0.0       0.0       0.0       0.0       5.6
 2 C  pz              0.0       0.0       0.0       0.0       0.0       0.8
 2 C  px              0.0       0.0       0.0       0.0       0.0       0.7
 2 C  py              0.0       0.0       0.0       0.0       0.0       0.7
 3 S  s               0.0      99.6       0.0       0.0       0.0      13.5
 3 S  pz              0.0       0.0       1.1      39.1      59.8       1.0
 3 S  px              0.0       0.0      98.8       0.6       0.5       0.0
 3 S  py              0.0       0.0       0.0      60.3      39.7       1.5
 3 S  dz2             0.0       0.0       0.0       0.0       0.0       0.2
 3 S  dyz             0.0       0.0       0.0       0.0       0.0       0.3
 3 S  dx2y2           0.0       0.0       0.0       0.0       0.0       0.3
 4 C  s               0.0       0.0       0.0       0.0       0.0      17.6
 4 C  px              0.0       0.1       0.0       0.0       0.0       0.4
 4 C  py              0.0       0.0       0.0       0.0       0.0       0.7
 5 C  s               0.0       0.0       0.0       0.0       0.0       6.3
 5 C  pz              0.0       0.0       0.0       0.0       0.0       0.9
 5 C  px              0.0       0.0       0.0       0.0       0.0       1.4
 6 C  s               0.0       0.0       0.0       0.0       0.0       6.5
 6 C  pz              0.0       0.0       0.0       0.0       0.0       2.1
 6 C  px              0.0       0.0       0.0       0.0       0.0       0.2
 6 C  py              0.0       0.0       0.0       0.0       0.0       0.1
 7 H  s               0.0       0.0       0.0       0.0       0.0       0.7
 8 H  s               0.0       0.0       0.0       0.0       0.0       0.7
 9 H  s               0.0       0.0       0.0       0.0       0.0       0.7
10 H  s               0.0       0.0       0.0       0.0       0.0       2.2
11 H  s               0.0       0.0       0.0       0.0       0.0       0.7
12 H  s               0.0       0.0       0.0       0.0       0.0       0.7
13 H  s               0.0       0.0       0.0       0.0       0.0       0.7
14 H  s               0.0       0.0       0.0       0.0       0.0       2.2
14 H  py              0.0       0.0       0.0       0.0       0.0       0.2
15 H  s               0.0       0.0       0.0       0.0       0.0       0.8
16 H  s               0.0       0.0       0.0       0.0       0.0       0.8
17 H  s               0.0       0.0       0.0       0.0       0.0       0.7
18 H  s               0.0       0.0       0.0       0.0       0.0       0.8
19 H  s               0.0       0.0       0.0       0.0       0.0       0.8
20 H  s               0.0       0.0       0.0       0.0       0.0       0.8

                     12        13        14        15        16        17   
                  -0.76004  -0.65891  -0.65609  -0.64833  -0.54836  -0.52202
                   2.00000   2.00000   2.00000   2.00000   2.00000   2.00000
                  --------  --------  --------  --------  --------  --------
 0 C  s               9.0       2.2      22.3       3.3       3.7       1.0
 0 C  pz              0.6       0.1       0.4       0.1       0.7       0.1
 0 C  px              0.4       0.0       0.0       0.7       3.1       0.9
 0 C  py              0.9       0.1       0.4       0.0       1.7       3.5
 1 C  s              14.8       0.0       0.0       0.1       8.1       5.7
 1 C  pz              0.0       1.3       7.6       0.6       0.3       4.9
 1 C  px              1.7       0.1       0.2      10.8       2.9       0.1
 1 C  py              0.0       1.1       6.7       1.6       0.1       5.7
 1 C  dxz             0.0       0.0       0.2       0.1       0.0       0.0
 1 C  dyz             0.0       0.0       0.0       0.1       0.1       0.0
 1 C  dxy             0.0       0.0       0.2       0.1       0.0       0.1
 2 C  s               8.9       3.6      17.5       6.9       3.2       1.3
 2 C  pz              0.9       0.1       0.4       0.0       1.8       3.7
 2 C  px              0.3       0.0       0.0       0.8       2.4       1.1
 2 C  py              0.6       0.0       0.3       0.1       0.7       0.1
 3 S  s               0.0       0.0       0.2      31.0       0.0      13.2
 3 S  pz              0.0       0.4       0.0       0.2       0.2       1.0
 3 S  px              4.9       0.0       0.0       0.0       5.1       0.0
 3 S  py              0.0       0.0       0.2       0.4       0.0       2.7
 3 S  dz2             0.0       0.2       0.0       0.0       0.1       0.1
 3 S  dxz             0.8       0.1       0.2       0.0       0.8       0.0
 3 S  dyz             0.0       0.0       0.0       0.1       0.0       0.6
 3 S  dxy             1.2       0.0       0.1       0.0       1.4       0.0
 4 C  s              13.2       0.0       0.0       0.1       8.7       5.3
 4 C  pz              0.0      13.1       1.5       2.0       0.3       0.3
 4 C  px              1.5       1.5       0.6      10.9       1.7       0.1
 4 C  py              0.2       0.1       0.0       0.4       1.2       9.5
 4 C  dz2             0.0       0.1       0.0       0.1       0.0       0.0
 4 C  dxz             0.0       0.2       0.0       0.1       0.0       0.0
 4 C  dxy             0.0       0.0       0.0       0.1       0.0       0.1
 5 C  s               8.9      19.6       3.7       3.9       4.1       0.7
 5 C  pz              0.9       0.7       0.1       0.1       1.2       1.2
 5 C  px              0.8       0.1       0.1       0.9       4.6       0.8
 5 C  py              0.0       0.0       0.0       0.0       0.4       2.0
 5 C  dxz             0.0       0.0       0.0       0.0       0.1       0.0
 6 C  s               7.7      20.0       2.1       6.5       2.6       1.5
 6 C  pz              1.4       0.7       0.1       0.2       3.3       2.0
 6 C  px              0.0       0.1       0.0       0.7       0.6       0.2
 6 C  py              0.1       0.0       0.0       0.0       0.7       2.7
 7 H  s               1.2       0.6       5.5       0.6       1.4       0.6
 7 H  pz              0.0       0.0       0.2       0.0       0.0       0.0
 7 H  px              0.0       0.0       0.2       0.0       0.1       0.0
 7 H  py              0.0       0.0       0.1       0.0       0.0       0.0
 8 H  s               1.3       0.5       5.0       0.8       2.2       1.7
 8 H  pz              0.0       0.0       0.2       0.0       0.1       0.1
 8 H  py              0.1       0.0       0.2       0.0       0.0       0.0
 9 H  s               1.3       0.5       5.1       1.1       2.2       0.3
 9 H  px              0.1       0.0       0.2       0.0       0.0       0.0
 9 H  py              0.0       0.0       0.1       0.0       0.1       0.0
10 H  s               2.0       0.0       0.0       0.0       4.4       7.8
10 H  pz              0.1       0.0       0.0       0.0       0.1       0.2
10 H  px              0.0       0.0       0.0       0.0       0.1       0.1
10 H  py              0.1       0.0       0.0       0.0       0.1       0.1
11 H  s               1.2       0.9       4.5       1.4       1.3       0.7
11 H  px              0.0       0.0       0.1       0.0       0.1       0.0
11 H  py              0.0       0.0       0.1       0.0       0.0       0.0
12 H  s               1.2       0.8       3.8       1.7       2.0       1.9
12 H  pz              0.1       0.0       0.1       0.1       0.0       0.0
12 H  py              0.0       0.0       0.1       0.1       0.1       0.1
13 H  s               1.3       0.8       3.9       2.1       1.9       0.4
13 H  px              0.1       0.0       0.2       0.1       0.0       0.0
14 H  s               1.8       0.0       0.0       0.1       4.7       7.0
14 H  py              0.2       0.0       0.0       0.0       0.3       0.4
15 H  s               1.2       4.3       0.8       0.9       2.5       1.4
15 H  py              0.1       0.4       0.1       0.1       0.2       0.1
16 H  s               1.3       4.4       0.9       1.3       2.5       0.2
16 H  px              0.1       0.2       0.0       0.1       0.1       0.0
17 H  s               1.2       4.9       0.9       0.7       1.6       0.5
17 H  pz              0.1       0.4       0.1       0.1       0.1       0.0
18 H  s               1.1       4.5       0.5       2.0       1.6       0.6
18 H  px              0.1       0.3       0.0       0.1       0.1       0.0
19 H  s               1.0       5.2       0.6       1.4       1.4       0.6
19 H  pz              0.0       0.2       0.0       0.0       0.0       0.0
19 H  px              0.0       0.3       0.0       0.1       0.1       0.0
20 H  s               1.1       4.3       0.4       1.5       1.7       2.1
20 H  py              0.1       0.4       0.0       0.1       0.1       0.1

                     18        19        20        21        22        23   
                  -0.44451  -0.43105  -0.40880  -0.39027  -0.38271  -0.37759
                   2.00000   2.00000   2.00000   2.00000   2.00000   2.00000
                  --------  --------  --------  --------  --------  --------
 0 C  s               0.0       0.3       0.1       0.1       0.1       0.1
 0 C  pz              6.2       7.8       4.6       2.2       0.9       0.0
 0 C  px              0.1       0.1       5.0       8.1       0.7      21.3
 0 C  py              2.5       1.9       5.4       0.4       5.8       0.3
 0 C  dyz             0.0       0.0       0.0       0.1       0.0       0.2
 1 C  s               0.0       1.2       0.1       0.0       0.3       0.2
 1 C  pz              9.0       1.0       0.2       1.4       4.6       3.2
 1 C  px              0.0       6.4       8.1       0.0       0.2       0.0
 1 C  py              7.9       1.3       0.0       5.0       1.4       3.4
 2 C  s               0.1       0.2       0.2       0.1       0.1       0.1
 2 C  pz              2.2       1.9       5.3       1.5       2.9       1.6
 2 C  px              0.4       0.4       2.9       6.8      21.4       2.5
 2 C  py              6.4       7.0       5.2       1.3       1.6       0.0
 2 C  dyz             0.0       0.0       0.0       0.1       0.1       0.0
 3 S  s               0.0       0.1       0.0       2.2       5.9       0.5
 3 S  pz              0.2       0.0       1.0       5.3       0.0       0.0
 3 S  px             10.1       0.0       1.9       0.0       0.0       0.0
 3 S  py              0.1       0.8       0.0       0.0       3.5       0.1
 3 S  dz2             0.1       0.2       0.1       0.3       0.4       0.0
 3 S  dxz             0.2       0.0       0.0       0.0       0.0       0.8
 3 S  dyz             0.0       0.0       0.0       0.1       0.0       0.1
 3 S  dx2y2           0.0       1.1       0.0       0.2       0.1       0.3
 3 S  dxy             0.1       0.1       0.2       0.1       0.1       0.1
 4 C  s               0.0       1.1       0.1       0.2       0.2       0.0
 4 C  pz              0.5       0.1       2.8       5.3       0.5       7.9
 4 C  px              1.5       5.1       3.6       1.9       0.1       1.6
 4 C  py             13.2       7.7       0.8       0.2       0.2       0.0
 5 C  s               0.0       0.4       0.0       0.1       0.0       0.1
 5 C  pz              0.3       9.2      11.2       0.8       2.1       0.9
 5 C  px              1.5       1.1       3.7       2.2       5.7      16.4
 5 C  py              7.2       3.3       0.5       1.8       3.0       1.6
 5 C  dxz             0.0       0.2       0.0       0.0       0.0       0.0
 6 C  s               0.0       0.2       0.3       0.1       0.0       0.1
 6 C  pz              0.3       9.7       7.1       1.2       0.0       1.2
 6 C  px              1.4       2.8       1.9      23.7       2.0       5.2
 6 C  py              5.8       2.2       0.0       0.0       4.0       2.5
 6 C  dxy             0.0       0.0       0.0       0.1       0.0       0.0
 7 H  s               0.2       3.6       6.3       0.3       0.1       3.7
 7 H  pz              0.0       0.0       0.1       0.0       0.0       0.1
 8 H  s               1.6       0.1       0.1       0.0       3.6       1.6
 9 H  s               1.9       0.5       0.7       5.1       0.4       6.1
 9 H  pz              0.0       0.0       0.1       0.0       0.0       0.1
10 H  s               3.7       1.1       0.6       0.0       0.0       0.0
11 H  s               0.2       3.6       5.9       0.8       3.2       0.0
11 H  py              0.0       0.0       0.1       0.0       0.2       0.0
12 H  s               1.3       0.1       0.0       3.6       0.0       1.2
12 H  px              0.0       0.0       0.0       0.0       0.1       0.0
13 H  s               2.3       0.3       0.2       0.3      11.4       0.3
13 H  py              0.0       0.0       0.1       0.0       0.1       0.0
14 H  s               3.2       2.0       0.5       0.0       0.0       0.0
15 H  s               1.7       0.2       0.3       1.7       0.8       2.3
16 H  s               2.1       0.9       1.6       0.1       5.3       4.7
16 H  py              0.0       0.0       0.1       0.0       0.0       0.1
17 H  s               0.0       4.7       5.8       0.0       1.0       2.1
17 H  pz              0.0       0.1       0.1       0.0       0.0       0.1
18 H  s               2.0       0.3       0.0       9.0       2.3       1.1
18 H  py              0.0       0.0       0.0       0.1       0.0       0.1
19 H  s               0.0       5.5       3.6       3.7       0.3       0.6
19 H  pz              0.0       0.0       0.0       0.2       0.0       0.1
19 H  px              0.0       0.1       0.1       0.0       0.0       0.0
20 H  s               1.3       0.6       0.0       0.6       1.5       2.1
20 H  px              0.0       0.0       0.0       0.1       0.0       0.0

                     24        25        26        27        28        29   
                  -0.35971  -0.35831  -0.32779  -0.32112  -0.31684  -0.31371
                   2.00000   2.00000   2.00000   2.00000   2.00000   2.00000
                  --------  --------  --------  --------  --------  --------
 0 C  s               0.0       0.0       0.1       0.1       0.1       0.3
 0 C  pz              0.7      13.6       0.4       1.1      14.3       0.1
 0 C  px              0.3       0.2       2.4       0.5       2.3       2.3
 0 C  py              0.5      14.1       2.3       2.8       4.0       8.0
 0 C  dxz             0.0       0.1       0.0       0.1       0.1       0.1
 0 C  dyz             0.0       0.0       0.1       0.0       0.2       0.1
 0 C  dxy             0.0       0.1       0.0       0.0       0.3       0.0
 1 C  pz              0.1       0.1       0.7       0.8      11.9       0.5
 1 C  px              0.0       0.0       5.2       0.1       0.8       3.5
 1 C  py              0.1       0.1       0.9       2.0       2.4       8.1
 1 C  dz2             0.0       0.2       0.0       0.0       0.0       0.0
 1 C  dxz             0.0       0.0       0.0       0.1       0.1       0.3
 1 C  dyz             0.0       0.0       0.2       0.0       0.1       0.2
 1 C  dxy             0.0       0.0       0.0       0.0       0.4       0.0
 2 C  s               0.0       0.0       0.1       0.0       0.4       0.0
 2 C  pz              1.3      13.1       0.8       1.7      15.0       0.3
 2 C  px              0.0       0.1       8.5       0.2       0.0       2.1
 2 C  py              0.9      14.1       1.9       2.8       4.9       5.7
 2 C  dxz             0.0       0.1       0.0       0.1       0.1       0.2
 2 C  dyz             0.0       0.0       0.2       0.0       0.0       0.2
 2 C  dxy             0.0       0.1       0.0       0.0       0.3       0.0
 3 S  s               0.0       0.0       0.4       0.0       0.0       0.0
 3 S  pz              0.5       0.1       1.0       1.4       0.2       0.1
 3 S  px              0.0       0.0       0.0       0.4       0.6       1.7
 3 S  py              0.0       0.3       4.2       0.2       0.1       0.0
 3 S  dz2             0.0       0.0       0.0       0.2       0.0       0.1
 3 S  dxz             0.1       0.2       0.0       0.0       0.2       0.0
 3 S  dyz             0.0       0.0       0.3       0.0       0.0       0.1
 3 S  dx2y2           0.0       0.0       0.6       0.0       0.0       0.0
 3 S  dxy             0.0       0.1       0.0       0.0       0.1       0.1
 4 C  s               0.0       0.0       0.2       0.0       0.0       0.1
 4 C  pz              0.2       0.0       0.1      12.8       3.3       0.1
 4 C  px              0.0       0.0       5.3       0.3       0.2       1.2
 4 C  py              0.0       0.0       4.0       0.5       0.1       9.5
 4 C  dz2             0.0       0.0       0.3       0.2       0.0       0.2
 4 C  dxz             0.0       0.0       0.1       0.1       0.0       0.0
 4 C  dyz             0.2       0.0       0.0       0.1       0.0       0.0
 4 C  dx2y2           0.0       0.0       0.0       0.0       0.0       0.2
 4 C  dxy             0.0       0.0       0.1       0.0       0.0       0.1
 5 C  s               0.0       0.0       0.2       0.1       0.1       0.1
 5 C  pz              0.5       0.2       0.6      20.5       4.0       0.1
 5 C  px              1.8       0.2       3.1       0.0       0.2       1.3
 5 C  py             24.5       1.2       4.1       0.9       0.1       6.4
 5 C  dz2             0.0       0.0       0.1       0.4       0.0       0.1
 5 C  dyz             0.0       0.0       0.0       0.1       0.0       0.0
 5 C  dx2y2           0.2       0.0       0.1       0.0       0.0       0.1
 5 C  dxy             0.1       0.0       0.0       0.0       0.0       0.1
 6 C  s               0.0       0.0       0.1       0.4       0.1       0.1
 6 C  pz              0.7       0.1       0.1      16.4       3.5       0.6
 6 C  px              1.8       0.2       9.8       2.7       0.1       0.0
 6 C  py             25.4       1.5       6.1       0.4       0.1       5.3
 6 C  dz2             0.0       0.0       0.2       0.0       0.0       0.1
 6 C  dxz             0.0       0.0       0.1       0.3       0.0       0.0
 6 C  dx2y2           0.2       0.0       0.1       0.0       0.0       0.1
 6 C  dxy             0.1       0.0       0.0       0.0       0.0       0.0
 7 H  s               0.1       0.0       0.2       2.3      11.6       0.1
 7 H  px              0.0       0.0       0.0       0.0       0.1       0.0
 7 H  py              0.0       0.1       0.0       0.0       0.0       0.1
 8 H  s               0.7      10.4       2.4       0.0       2.8       3.8
 8 H  px              0.0       0.2       0.0       0.0       0.0       0.0
 8 H  py              0.0       0.0       0.0       0.0       0.2       0.0
 9 H  s               0.1       7.9       0.0       0.6       0.1       0.3
 9 H  pz              0.0       0.0       0.0       0.0       0.2       0.0
 9 H  px              0.0       0.2       0.0       0.0       0.0       0.0
10 H  s               0.0       0.0       3.3       0.1       2.1       7.1
10 H  py              0.0       0.0       0.0       0.0       0.1       0.0
11 H  s               0.0       0.0       3.1       2.2       6.3       3.1
11 H  pz              0.0       0.1       0.1       0.0       0.0       0.0
11 H  px              0.0       0.0       0.0       0.0       0.1       0.0
12 H  s               1.0      10.2       4.3       0.2       0.5       4.8
12 H  px              0.0       0.1       0.0       0.0       0.0       0.0
13 H  s               0.4       7.4       0.4       0.0       0.7       0.2
13 H  px              0.0       0.2       0.0       0.0       0.0       0.0
14 H  s               0.0       0.0       4.6       0.3       0.2       8.6
14 H  pz              0.0       0.0       0.0       0.1       0.0       0.0
15 H  s              10.3       0.5       3.4       0.7       0.0       5.3
15 H  pz              0.0       0.0       0.0       0.2       0.0       0.0
15 H  py              0.1       0.0       0.0       0.0       0.0       0.0
16 H  s               7.1       0.6       0.0       0.9       0.2       0.2
16 H  pz              0.0       0.0       0.0       0.1       0.0       0.0
16 H  px              0.2       0.0       0.0       0.0       0.0       0.0
17 H  s               0.1       0.0       0.2      12.2       1.6       1.2
17 H  py              0.2       0.0       0.0       0.0       0.0       0.0
18 H  s               7.4       0.6       0.7       0.2       0.1       0.7
18 H  pz              0.0       0.0       0.0       0.2       0.0       0.0
18 H  px              0.2       0.0       0.0       0.0       0.0       0.0
18 H  py              0.0       0.0       0.1       0.0       0.0       0.0
19 H  s               0.0       0.0       5.1       8.0       1.3       0.1
19 H  py              0.2       0.0       0.0       0.0       0.0       0.0
20 H  s              10.6       0.6       5.8       0.0       0.2       3.8
20 H  pz              0.0       0.0       0.0       0.1       0.0       0.0
20 H  py              0.2       0.0       0.1       0.0       0.0       0.0

                     30        31        32        33        34        35   
                  -0.29087  -0.26452  -0.18573   0.01431   0.04955   0.07548
                   2.00000   2.00000   2.00000   0.00000   0.00000   0.00000
                  --------  --------  --------  --------  --------  --------
 0 C  s               0.4       0.1       0.5       1.1       0.2       5.4
 0 C  pz              1.4       0.3       0.3       0.3       0.5       1.1
 0 C  px              5.9       0.2       1.0       0.6       0.5       0.3
 0 C  py              0.1       0.5       0.2       0.1       0.7       1.3
 0 C  dxz             0.1       0.1       0.0       0.0       0.7       0.0
 0 C  dyz             0.1       0.0       0.0       0.0       0.0       0.0
 0 C  dx2y2           0.1       0.1       0.0       0.1       0.2       0.1
 0 C  dxy             0.0       0.0       0.0       0.0       0.0       0.3
 1 C  s               0.1       0.4       0.0       3.4       3.8       5.1
 1 C  pz              1.2       4.1       0.9       1.3       4.4       3.2
 1 C  px             11.1       1.5       0.0       4.6       4.2       1.3
 1 C  py              0.8       5.1       0.6       1.5       3.8       3.3
 1 C  dxz             0.1       0.1       0.2       0.0       0.3       0.2
 1 C  dyz             0.3       0.1       0.0       0.4       0.1       0.1
 1 C  dx2y2           0.0       0.1       0.0       0.1       0.4       0.0
 1 C  dxy             0.1       0.1       0.2       0.1       0.4       0.2
 2 C  s               0.2       0.1       0.7       0.8       0.1       5.2
 2 C  pz              0.1       0.4       0.3       0.1       0.6       0.9
 2 C  px              4.4       0.3       1.1       0.6       0.3       0.3
 2 C  py              1.1       0.5       0.5       0.2       0.8       1.0
 2 C  dz2             0.1       0.1       0.0       0.1       0.2       0.2
 2 C  dxz             0.0       0.0       0.0       0.0       0.0       0.4
 2 C  dyz             0.1       0.0       0.0       0.0       0.0       0.0
 2 C  dxy             0.1       0.1       0.0       0.1       0.5       0.0
 3 S  s               0.0       4.5       0.0       0.0       7.3       2.2
 3 S  pz              0.1      20.0      49.1       0.2       7.7       0.4
 3 S  px             24.0       0.1       0.4      29.4       0.0       0.0
 3 S  py              0.0      31.2      33.1       0.0      11.9       0.4
 3 S  dz2             0.0       0.2       0.2       0.5       4.7       0.1
 3 S  dxz             0.3       0.1       0.0      10.5       0.2       0.1
 3 S  dyz             0.0       0.1       0.0       0.1       7.9       1.5
 3 S  dx2y2           0.0       0.5       0.0       0.3       5.8       0.2
 3 S  dxy             0.4       0.0       0.0      17.6       0.0       0.1
 4 C  s               0.0       0.4       0.0       3.7       3.0       5.1
 4 C  pz              0.1       2.1       1.1       0.9       0.7       0.1
 4 C  px             12.4       2.4       0.0       6.1       6.4       0.9
 4 C  py              1.2       5.2       0.6       2.3       3.8       5.5
 4 C  dz2             0.1       0.0       0.2       0.0       0.1       0.0
 4 C  dxz             0.3       0.0       0.2       0.2       0.1       0.0
 4 C  dx2y2           0.0       0.4       0.1       0.1       0.6       0.2
 4 C  dxy             0.2       0.0       0.1       0.2       0.2       0.1
 5 C  s               0.5       0.2       0.1       1.9       0.2       3.8
 5 C  pz              0.3       0.3       0.1       0.1       0.7       1.2
 5 C  px              8.7       0.3       0.3       1.1       0.2       0.6
 5 C  py              0.4       0.4       0.0       0.3       0.1       0.1
 5 C  dz2             0.1       0.0       0.0       0.0       0.2       0.0
 5 C  dxz             0.1       0.0       0.0       0.1       0.0       0.2
 5 C  dyz             0.0       0.0       0.0       0.1       0.0       0.1
 5 C  dx2y2           0.0       0.1       0.0       0.1       0.4       0.0
 5 C  dxy             0.1       0.0       0.0       0.0       0.4       0.1
 6 C  s               0.0       0.0       0.8       0.1       0.3       9.7
 6 C  pz              0.2       1.1       1.7       0.7       0.5       2.5
 6 C  px              2.7       0.6       0.5       0.2       0.7       0.2
 6 C  py              0.3       0.5       0.1       0.2       0.7       0.2
 6 C  dz2             0.0       0.0       0.0       0.0       0.1       0.1
[...]
 5 C  dxy             0.3       4.0       0.0       0.1       0.2       0.0
 6 C  s               0.3       0.0       0.0       0.1       0.3       0.1
 6 C  pz              1.9       0.2       0.1       2.3       0.3       0.2
 6 C  px              0.3       0.4       1.6       4.6       1.8       0.4
 6 C  py              0.5       3.1       0.7       0.0       1.1       1.0
 6 C  dz2             0.0       0.2       0.0       0.1       3.6       0.4
 6 C  dxz             1.1       0.5       2.8       8.3       1.1       0.5
 6 C  dyz             0.7       0.5       0.0       0.3       0.5       0.0
 6 C  dx2y2           1.9       4.1       0.2       1.3       2.6       2.1
 6 C  dxy             0.3       3.1       1.7       1.1       0.0       0.1
 7 H  s               2.8       0.7       1.7       3.6       0.0       0.5
 7 H  pz              2.4       1.3       2.1       3.8       0.0       0.6
 7 H  px              2.4       0.4       1.5       3.3       0.0       0.2
 7 H  py              2.2       0.2       0.7       2.4       0.0       0.5
 8 H  s               2.2       0.6       0.2       0.5       0.4       2.1
 8 H  pz              1.7       0.5       0.6       0.2       0.3       1.8
 8 H  px              0.7       0.7       0.3       0.0       0.3       1.1
 8 H  py              2.8       0.4       0.0       0.8       0.5       2.6
 9 H  s               0.0       2.4       1.0       0.5       0.0       0.0
 9 H  pz              0.0       1.4       1.1       0.8       0.0       0.0
 9 H  px              0.2       3.0       1.2       0.2       0.0       0.0
 9 H  py              0.1       1.3       0.2       0.1       0.0       0.1
10 H  s               0.0       0.0       0.0       0.3       1.6       5.7
10 H  pz              0.2       0.0       0.0       0.3       1.9       6.1
10 H  px              0.0       0.1       0.0       0.2       1.0       2.9
10 H  py              0.0       0.0       0.0       0.3       1.9       6.1
11 H  s               0.0       0.6       5.8       0.2       0.1       0.1
11 H  pz              0.1       0.7       3.0       0.2       0.0       0.1
11 H  px              0.1       0.6       5.1       0.2       0.2       0.0
11 H  py              0.0       0.3       6.7       0.1       0.0       0.2
12 H  s               1.4       2.4       0.0       0.8       0.2       1.5
12 H  pz              1.7       2.4       0.1       1.2       0.3       1.9
12 H  px              0.9       1.1       0.3       0.5       0.2       0.8
12 H  py              0.8       2.3       0.2       0.5       0.2       1.5
13 H  s               1.8       0.6       2.9       0.1       0.0       0.0
13 H  pz              1.1       0.2       0.8       0.1       0.0       0.1
13 H  px              2.7       1.1       2.7       0.2       0.0       0.0
13 H  py              0.8       0.2       3.0       0.0       0.0       0.0
14 H  s               0.0       0.0       0.3       1.1       4.9       0.9
14 H  pz              0.1       0.1       0.0       0.0       0.0       0.0
14 H  px              0.0       0.0       0.0       0.0       0.9       0.1
14 H  py              0.1       0.1       0.8       3.2      12.4       2.5
15 H  s               1.5       1.4       0.0       0.8       2.0       0.1
15 H  pz              0.2       0.0       0.0       0.2       0.0       0.0
15 H  px              0.2       0.4       0.0       0.1       0.5       0.0
15 H  py              3.0       3.0       0.0       2.0       5.2       0.4
16 H  s               0.0       2.8       0.0       0.0       0.1       0.0
16 H  pz              0.2       0.7       0.0       0.0       0.1       0.1
16 H  px              0.0       4.7       0.0       0.0       0.1       0.0
16 H  py              0.0       1.5       0.0       0.0       0.0       0.0
17 H  s               2.9       0.1       0.1       0.9       0.0       0.0
17 H  pz              6.3       0.2       0.1       2.0       0.0       0.0
17 H  px              0.6       0.0       0.1       0.1       0.1       0.0
17 H  py              0.5       0.2       0.0       0.2       0.0       0.0
18 H  s               0.1       2.2       1.5       1.2       0.3       0.0
18 H  pz              0.0       0.6       0.6       1.1       0.0       0.0
18 H  px              0.5       3.7       1.9       0.7       0.5       0.1
18 H  py              0.0       1.1       1.0       1.0       0.4       0.0
19 H  s               1.3       0.0       0.9       5.2       1.0       0.8
19 H  pz              0.9       0.0       0.9       5.1       1.2       1.2
19 H  px              2.5       0.1       1.4       8.0       1.0       0.9
19 H  py              0.1       0.1       0.3       0.4       0.1       0.0
20 H  s               0.7       2.4       0.3       0.2       1.6       1.0
20 H  pz              0.1       0.0       0.0       0.0       0.1       0.0
20 H  px              0.0       0.5       0.4       0.1       0.1       0.1
20 H  py              1.4       5.3       0.7       0.5       4.5       2.4

                    204       205       206       207       208       209   
                  19.03469  21.88250  21.94518  21.96931  21.98399  22.02725
                   0.00000   0.00000   0.00000   0.00000   0.00000   0.00000
                  --------  --------  --------  --------  --------  --------
 0 C  s               0.0      26.1       1.5      52.1      19.5       0.4
 1 C  s               0.5       2.4       0.9       1.1       1.2      44.5
 2 C  s               0.0      31.3      34.9      13.5       6.2      12.4
 3 S  s              98.9       0.0       0.0       0.0       0.0       0.3
 4 C  s               0.3       7.5       1.7       2.6       0.3      39.6
 5 C  s               0.0      16.2      33.2      24.5      23.2       2.5
 6 C  s               0.0      16.1      27.4       5.8      49.3       0.1

                    210   
                  22.06058
                   0.00000
                  --------
 0 C  s               0.1
 1 C  s              49.5
 2 C  s               1.4
 4 C  s              47.9
 6 C  s               0.9


                      *****************************
                      * MAYER POPULATION ANALYSIS *
                      *****************************

  NA   - Mulliken gross atomic population
  ZA   - Total nuclear charge
  QA   - Mulliken gross atomic charge
  VA   - Mayer's total valence
  BVA  - Mayer's bonded valence
  FA   - Mayer's free valence

  ATOM       NA         ZA         QA         VA         BVA        FA
  0 C      6.4641     6.0000    -0.4641     3.8265     3.8265     0.0000
  1 C      6.0196     6.0000    -0.0196     3.5693     3.5693    -0.0000
  2 C      6.4547     6.0000    -0.4547     3.8229     3.8229    -0.0000
  3 S     16.1770    16.0000    -0.1770     1.8792     1.8792     0.0000
  4 C      6.0654     6.0000    -0.0654     3.6417     3.6417     0.0000
  5 C      6.4759     6.0000    -0.4759     3.7942     3.7942     0.0000
  6 C      6.4369     6.0000    -0.4369     3.7668     3.7668    -0.0000
  7 H      0.8441     1.0000     0.1559     0.9617     0.9617     0.0000
  8 H      0.8488     1.0000     0.1512     0.9640     0.9640     0.0000
  9 H      0.8585     1.0000     0.1415     0.9633     0.9633     0.0000
 10 H      0.8545     1.0000     0.1455     0.9622     0.9622     0.0000
 11 H      0.8485     1.0000     0.1515     0.9628     0.9628     0.0000
 12 H      0.8476     1.0000     0.1524     0.9647     0.9647     0.0000
 13 H      0.8601     1.0000     0.1399     0.9633     0.9633     0.0000
 14 H      0.8452     1.0000     0.1548     0.9529     0.9529    -0.0000
 15 H      0.8446     1.0000     0.1554     0.9645     0.9645    -0.0000
 16 H      0.8554     1.0000     0.1446     0.9636     0.9636     0.0000
 17 H      0.8387     1.0000     0.1613     0.9613     0.9613     0.0000
 18 H      0.8610     1.0000     0.1390     0.9637     0.9637     0.0000
 19 H      0.8581     1.0000     0.1419     0.9664     0.9664    -0.0000
 20 H      0.8413     1.0000     0.1587     0.9644     0.9644     0.0000

  Mayer bond orders larger than 0.100000
B(  0-C ,  1-C ) :   0.9232 B(  0-C ,  7-H ) :   0.9689 B(  0-C ,  8-H ) :   0.9780 
B(  0-C ,  9-H ) :   0.9686 B(  1-C ,  2-C ) :   0.9261 B(  1-C ,  3-S ) :   0.8428 
B(  1-C , 10-H ) :   0.9277 B(  2-C , 11-H ) :   0.9686 B(  2-C , 12-H ) :   0.9806 
B(  2-C , 13-H ) :   0.9687 B(  3-S ,  4-C ) :   0.9205 B(  4-C ,  5-C ) :   0.9218 
B(  4-C ,  6-C ) :   0.9026 B(  4-C , 14-H ) :   0.9410 B(  5-C , 15-H ) :   0.9788 
B(  5-C , 16-H ) :   0.9667 B(  5-C , 17-H ) :   0.9699 B(  6-C , 18-H ) :   0.9639 
B(  6-C , 19-H ) :   0.9668 B(  6-C , 20-H ) :   0.9803 

-------
TIMINGS
-------

Total SCF time: 0 days 0 hours 0 min 22 sec 

Total time                  ....      22.085 sec
Sum of individual times     ....      21.539 sec  ( 97.5%)

SCF preparation             ....       0.194 sec  (  0.9%)
Fock matrix formation       ....      20.378 sec  ( 92.3%)
  Startup                   ....       0.066 sec  (  0.3% of F)
  Split-RI-J                ....       3.812 sec  ( 18.7% of F)
  XC integration            ....      15.946 sec  ( 78.3% of F)
    XC Preparation          ....       0.000 sec  (  0.0% of XC)
    Basis function eval.    ....       2.968 sec  ( 18.6% of XC)
    Density eval.           ....       4.699 sec  ( 29.5% of XC)
    XC-Functional eval.     ....       2.188 sec  ( 13.7% of XC)
    XC-Potential eval.      ....       5.092 sec  ( 31.9% of XC)
Diagonalization             ....       0.000 sec  (  0.0%)
Density matrix formation    ....       0.240 sec  (  1.1%)
Total Energy calculation    ....       0.036 sec  (  0.2%)
Population analysis         ....       0.121 sec  (  0.5%)
Orbital Transformation      ....       0.073 sec  (  0.3%)
Orbital Orthonormalization  ....       0.000 sec  (  0.0%)
DIIS solution               ....       0.443 sec  (  2.0%)
  MO trafo                  ....       0.000 sec  (  0.0 % of DIIS)
  Orb grad                  ....       0.000 sec  (  0.0 % of DIIS)
  Energy W gradient         ....       0.000 sec  (  0.0 % of DIIS)
  DIIS error                ....       0.010 sec  (  2.2 % of DIIS)
  DIIS work                 ....       0.374 sec  ( 84.3 % of DIIS)
  Form Q                    ....       0.000 sec  (  0.0 % of DIIS)
  Form QpQm                 ....       0.000 sec  (  0.0 % of DIIS)
  Exp/Cayley                ....       0.000 sec  (  0.0 % of DIIS)
  Orb update                ....       0.000 sec  (  0.0 % of DIIS)
  Wake-sleep                ....       0.025 sec  (  5.7 % of DIIS)
SOSCF solution              ....       0.054 sec  (  0.2%)
  MO trafo                  ....       0.043 sec  ( 78.7 % of SOSCF)
  Orb grad                  ....       0.001 sec  (  1.4 % of SOSCF)
  Rot update                ....       0.000 sec  (  0.1 % of SOSCF)
  Step                      ....       0.011 sec  ( 19.6 % of SOSCF)
Finished LeanSCF after  22.2 sec

Maximum memory used throughout the entire LEANSCF-calculation: 23.2 MB


-------------------------------------------------------------------------------
                          DFT DISPERSION CORRECTION                            
                                                                               
                                DFTD4 V3.4.0                                   
-------------------------------------------------------------------------------
The R2SCAN3C composite method is recognized
Using three-body term ABC
Active option DFTDOPT                   ...         5   

-------------------------   ----------------
Dispersion correction           -0.006077950
-------------------------   ----------------

------------------   -----------------
gCP correction             0.012937770
------------------   -----------------

-------------------------   --------------------
FINAL SINGLE POINT ENERGY      -635.157018212588
-------------------------   --------------------


------------------------------------------------------------------------------
                              ORCA PROPERTY CALCULATIONS
------------------------------------------------------------------------------

GBWName                                 ... sp_gas.gbw
Number of atoms                         ...     21
Number of basis functions               ...    211
Max core memory                         ...   1024 MB

Electric properties:
Dipole moment                           ... YES
Quadrupole moment                       ...  NO
Static polarizability (Dipole/Dipole)   ...  NO
Static polarizability (Dipole/Quad.)    ...  NO
Static polarizability (Quad./Quad.)     ...  NO
Static polarizability (Velocity)        ...  NO

Atomic electric properties:
Dipole moment                           ...  NO
Quadrupole moment                       ...  NO
Static polarizability                   ...  NO

Choice of electric origin               ... Center of mass
Position of electric origin             ...    -0.000000    -0.000005    -0.000006

General magnetic properties:
Magnetizability                         ...  NO

EPR properties:
g-Tensor (aka g-matrix)                 ...  NO
Zero-Field splitting spin-orbit         ...  NO
Zero-field splitting spin-spin          ...  NO
Hyperfine couplings                     ...  NO (   0 nuclei)
Quadrupole couplings                    ...  NO (   0 nuclei)
Contact density                         ...  NO (   0 nuclei)

NMR properties:
Chemical shifts                         ...  NO (   0 nuclei)
Spin-rotation constants                 ...  NO (   0 nuclei)
Spin-spin couplings                     ...  NO (   0 nuclei,    0 pairs)

Choice of magnetic origin               ... GIAO
Position of magnetic origin             ...     0.000000     0.000000     0.000000

Properties with geometric perturbations:
SCF Hessian                             ...  NO
IR spectrum                             ...  NO
VCD spectrum                            ...  NO
X-ray spectroscopy properties:
SCF XES/XAS/RIXS spectra                ...  NO


-------------
DIPOLE MOMENT
-------------

Method             : SCF
Type of density    : Electron Density
Multiplicity       :   1
Irrep              :   0
Energy             :  -635.1638780325090465 Eh
Relativity type    : 
Basis              : AO
                                X                 Y                 Z
Electronic contribution:      0.025579868       2.513991795       3.111940596
Nuclear contribution   :     -0.097079751      -3.052734259      -3.544113738
                        -----------------------------------------
Total Dipole Moment    :     -0.071499883      -0.538742464      -0.432173142
                        -----------------------------------------
Magnitude (a.u.)       :      0.694355313
Magnitude (Debye)      :      1.764910945



--------------------
Rotational spectrum 
--------------------
 
Rotational constants in cm-1:             0.119322             0.041051             0.036233 
Rotational constants in MHz :          3577.195305          1230.685051          1086.223073 

Dipole components along the rotational axes: 
x,y,z [a.u.] :    -0.028614     0.244797    -0.649142 
x,y,z [Debye]:    -0.072730     0.622225    -1.649987 

 

Dipole moment calculation done in   0.0 sec 

Maximum memory used throughout the entire PROP-calculation: 13.0 MB

--------------------------------
SUGGESTED CITATIONS FOR THIS RUN
--------------------------------

Below you find a list of papers that are relevant to this ORCA run
We neither can nor want to force you to cite these papers, but we appreciate if you do
You receive ORCA, which is the product of decades of hard work by many enthusiastic individuals, for free
The only thing we kindly ask in return is that you cite our papers,
We deeply appreciate it, if you show your appreciation for ORCA by not just citing the generic ORCA reference.

Please note that relegating all ORCA citations to the supporting information does *not* help us.
SI sections are not indexed - citations you put there will not count into any citation statistics
But we need these citations in order to attract the funding resources that allow us to do what we are doing

Therefore, if you are a happy ORCA user, please consider citing a few of the papers listed below in the main body of your paper

In addition to the list printed below, the program has created the file sp_gas.bibtex that contains the list in bibtex format
You can import this file easily into all common literature databanks and citation aid programs


List of essential papers. We consider these as the minimum necessary citations

  1. Neese,F.
     Software update: the ORCA program system, version 5.0
     WIRES Comput. Molec. Sci., 2022 12(1)e1606
     doi.org/10.1002/wcms.1606
  2. Grimme,S.; Hansen,A.; Ehlert,S.; Mewes,J.
     r2SCAN-3c: A 'Swiss army knife' composite electronic-structure method
     J. Chem. Phys., 2021 154 064103
     doi.org/10.1063/5.0040021

List of papers to cite with high priority. The work reported in these papers was absolutely
necessary for this run to complete.
Our perspective: the developers of density functionals and basis sets usually get cited in chemistry papers
Good! But without the algorithms to do something with them, the functionals or basis sets would not do anything.
Hence, in our opinion, the algorithm design and method developments papers are equally worthy of getting cited

  1. Neese,F.
     An improvement of the resolution of the identity approximation for the formation of the Coulomb matrix
     J. Comp. Chem., 2003 24(14)1740-1747
     doi.org/10.1002/jcc.10318
  2. Neese,F.
     The SHARK Integral Generation and Digestion System
     J. Comp. Chem., 2022  1-16
     doi.org/10.1002/jcc.26942
  3. Lehtola,S.; Steigemann,C.; Oliveira,M.; Marques,M.
     Recent developments in Libxc - A comprehensive library of functionals for density functional theory
     Software X, 2018 7 
     doi.org/10.1016/j.softx.2017.11.002
  4. Caldeweyher,E.; Bannwarth,C.; Grimme,S.
     Extension of the D3 dispersion coefficient model
     J. Chem. Phys., 2017 147 034112-XXXX
     doi.org/10.1063/1.4993215
  5. Caldeweyher,E.; Ehlert,S.; Hansen,A.; Neugebauer,H.; Spicher,S.; Bannwarth,C.; Grimme,S.
     A generally applicable atomic-charge dependent London dispersion correction
     J. Chem. Phys., 2019 150 154122-XXXX
     doi.org/10.1063/1.5090222
  6. Caldeweyher,E.; Mewes,J.; Ehlert,S.; Grimme,S.
     Extension and evaluation of the D4 London-dispersion model for periodic systems
     Phys. Chem. Chem. Phys., 2020 22(16)8499-8512
     doi.org/10.1039/D0CP00502A

List of suggested additional citations. These are papers that are important in the 'surrounding' of 
of this run, or papers that preceded the highly important papers. If you like your results we are grateful for a citation.

  1. Neese,F.
     The ORCA program system
     WIRES Comput. Molec. Sci., 2012 2(1)73-78
     doi.org/10.1002/wcms.81
  2. Neese,F.
     Software update: the ORCA program system, version 4.0
     WIRES Comput. Molec. Sci., 2018 8(1)1-6
     doi.org/10.1002/wcms.1327
  3. Neese,F.; Wennmohs,F.; Becker,U.; Riplinger,C.
     The ORCA quantum chemistry program package
     J. Chem. Phys., 2020 152 Art. No. L224108
     doi.org/10.1063/5.0004608

List of optional additional citations

  1. Neese,F.
     Approximate second-order SCF convergence for spin unrestricted wavefunctions
     Chem. Phys. Lett., 2000 325(1-3)93-98
     doi.org/10.1016/s0009-2614(00)00662-x

Timings for individual modules:

Sum of individual times          ...       23.894 sec (=   0.398 min)
Startup calculation              ...        1.266 sec (=   0.021 min)   5.3 %
SCF iterations                   ...       22.521 sec (=   0.375 min)  94.3 %
Property calculations            ...        0.106 sec (=   0.002 min)   0.4 %
                             ****ORCA TERMINATED NORMALLY****
TOTAL RUN TIME: 0 days 0 hours 0 minutes 24 seconds 688 msec
