13
 energy: -323.588156672606 gnorm: 0.002996986617 xtb: 6.7.1 (edcfbbe)
C           -1.95153691990649        0.78921051054495        0.49241643525531
C           -1.51256093782567       -0.53477419334929       -0.12342588358392
C           -0.24501921856608       -0.43271486237482       -0.96604071118747
N            0.89820035575713        0.00284397976724       -0.08697234995545
O            1.21908392782110        1.18622579026628       -0.09953591831768
O            1.41503860518157       -0.84322879939599        0.63668861309893
H           -1.22593020519368        1.15955527871329        1.22378111955852
H           -2.08207685504162        1.55763468656065       -0.27726710020192
H           -2.90640624441911        0.66142672616060        1.00934264851226
H           -2.28452912502259       -0.90779664334686       -0.80523854436931
H           -1.36922174004342       -1.29744570579077        0.64933064625180
H            0.04047287708711       -1.40267238585125       -1.37589719811266
H           -0.33417564286235        0.31975188493201       -1.75039346629045
13
 energy: -323.588160715180 gnorm: 0.002505178491 xtb: 6.7.1 (edcfbbe)
C           -1.95161249261360        0.78850105534421        0.49234913001484
C           -1.51320557089388       -0.53490334144977       -0.12327554516589
C           -0.24472235733347       -0.43253217915817       -0.96580998534484
N            0.90076478693253        0.00266620152677       -0.09072533431355
O            1.22079761720971        1.18657900753594       -0.10012078106764
O            1.41148410146425       -0.84076033550788        0.63983886986236
H           -1.22616596957293        1.15788623519696        1.22438355195080
H           -2.08090158346004        1.55723438901783       -0.27677949977940
H           -2.90656365985851        0.66234882346300        1.01020947283541
H           -2.28461006248463       -0.90822279365184       -0.80545223913564
H           -1.36976314759625       -1.29801462769764        0.64901559601516
H            0.04047959476390       -1.40249924285666       -1.37644697263994
H           -0.33464239927528        0.31973312297714       -1.75039807222819
13
 energy: -323.588170543505 gnorm: 0.000603938829 xtb: 6.7.1 (edcfbbe)
C           -1.95184477830735        0.78780979557551        0.49235899916779
C           -1.51405294910947       -0.53511514599234       -0.12311285470687
C           -0.24473615828183       -0.43220951841490       -0.96540219291743
N            0.89877943977932        0.00379725682070       -0.08937242979187
O            1.22499736967673        1.18622718850535       -0.10372605464169
O            1.41047783756011       -0.83913932779713        0.64070584525006
H           -1.22661209078070        1.15618362100478        1.22519074053119
H           -2.07982708044530        1.55696467182547       -0.27623908387742
H           -2.90701288414117        0.66303282415389        1.01066214374139
H           -2.28441669526563       -0.90860782419462       -0.80629118059793
H           -1.37066273217024       -1.29875259112886        0.64867280343246
H            0.04111035507356       -1.40203904143895       -1.37639391346206
H           -0.33486079027073        0.31986444231266       -1.75026469611569
13
 energy: -323.588174528714 gnorm: 0.000892463613 xtb: 6.7.1 (edcfbbe)
C           -1.95142998911333        0.78685361367765        0.49292412661328
C           -1.51440878544401       -0.53559523478930       -0.12313024678106
C           -0.24477169449478       -0.43144469454977       -0.96551450647409
N            0.89750082161849        0.00465538784899       -0.08932991965496
O            1.22965573548618        1.18569774686804       -0.10972863586873
O            1.40568140489738       -0.83638840873758        0.64554505880826
H           -1.22632383842357        1.15395763740547        1.22668865800995
H           -2.07824834136682        1.55696528570057       -0.27491992433246
H           -2.90704030219556        0.66282582921057        1.01060822314256
H           -2.28410635394448       -0.90878625964407       -0.80725392758292
H           -1.37093508468170       -1.29996121834492        0.64792076863625
H            0.04174673285195       -1.40109767633850       -1.37644868679580
H           -0.33598151267909        0.32033443650208       -1.75057303035040
13
 energy: -323.588174528714 gnorm: 0.000892463613 xtb: 6.7.1 (edcfbbe)
C           -1.95142998911333        0.78685361367765        0.49292412661328
C           -1.51440878544401       -0.53559523478930       -0.12313024678106
C           -0.24477169449478       -0.43144469454977       -0.96551450647409
N            0.89750082161849        0.00465538784899       -0.08932991965496
O            1.22965573548618        1.18569774686804       -0.10972863586873
O            1.40568140489738       -0.83638840873758        0.64554505880826
H           -1.22632383842357        1.15395763740547        1.22668865800995
H           -2.07824834136682        1.55696528570057       -0.27491992433246
H           -2.90704030219556        0.66282582921057        1.01060822314256
H           -2.28410635394448       -0.90878625964407       -0.80725392758292
H           -1.37093508468170       -1.29996121834492        0.64792076863625
H            0.04174673285195       -1.40109767633850       -1.37644868679580
H           -0.33598151267909        0.32033443650208       -1.75057303035040
