
                                 *****************
                                 * O   R   C   A *
                                 *****************

                                            #,                                       
                                            ###                                      
                                            ####                                     
                                            #####                                    
                                            ######                                   
                                           ########,                                 
                                     ,,################,,,,,                         
                               ,,#################################,,                 
                          ,,##########################################,,             
                       ,#########################################, ''#####,          
                    ,#############################################,,   '####,        
                  ,##################################################,,,,####,       
                ,###########''''           ''''###############################       
              ,#####''   ,,,,##########,,,,          '''####'''          '####       
            ,##' ,,,,###########################,,,                        '##       
           ' ,,###''''                  '''############,,,                           
         ,,##''                                '''############,,,,        ,,,,,,###''
      ,#''                                            '''#######################'''  
     '                                                          ''''####''''         
             ,#######,   #######,   ,#######,      ##                                
            ,#'     '#,  ##    ##  ,#'     '#,    #''#        ,####,   ,####,        
            ##       ##  ##   ,#'  ##            #'  '#       #'       #'  '#        
            ##       ##  #######   ##           ,######,      #####,   #    #        
            '#,     ,#'  ##    ##  '#,     ,#' ,#      #,     #,   #   #,  ,#        
             '#######'   ##     ##  '#######'  #'      '#     '####' # '####'        



                #########################################################
                #                        -***-                          #
                #          Department of theory and spectroscopy        #
                #                                                       #
                #                      Frank Neese                      #
                #                                                       #
                #     Directorship, Architecture, Infrastructure        #
                #                    SHARK, DRIVERS                     #
                #        Core code/Algorithms in most modules           #
                #                                                       #
                #        Max Planck Institute fuer Kohlenforschung      #
                #                Kaiser Wilhelm Platz 1                 #
                #                 D-45470 Muelheim/Ruhr                 #
                #                      Germany                          #
                #                                                       #
                #                  All rights reserved                  #
                #                        -***-                          #
                #########################################################


                         Program Version 6.0.0  -   RELEASE  -


 With contributions from (in alphabetic order):
   Daniel Aravena         : Magnetic Suceptibility
   Michael Atanasov       : Ab Initio Ligand Field Theory (pilot matlab implementation)
   Alexander A. Auer      : GIAO ZORA, VPT2 properties, NMR spectrum
   Ute Becker             : All parallelization in ORCA, NUMFREQ, NUMCALC
   Giovanni Bistoni       : ED, misc. LED, open-shell LED, HFLD
   Martin Brehm           : Molecular dynamics
   Dmytro Bykov           : pre 5.0 version of the SCF Hessian
   Marcos Casanova-Páez   : Triplet and SCS-CIS(D). UHF-(DLPNO)-IP/EA/STEOM-CCSD. UHF-CVS-IP/STEOM-CCSD
   Vijay G. Chilkuri      : MRCI spin determinant printing, contributions to CSF-ICE
   Pauline Colinet        : FMM embedding
   Dipayan Datta          : RHF DLPNO-CCSD density
   Achintya Kumar Dutta   : EOM-CC, STEOM-CC
   Nicolas Foglia         : Exact transition moments, OPA infrastructure, MCD improvements
   Dmitry Ganyushin       : Spin-Orbit,Spin-Spin,Magnetic field MRCI
   Miquel Garcia          : C-PCM and meta-GGA Hessian, CCSD/C-PCM, Gaussian charge scheme
   Tiago L. C. Gouveia    : GS-ROHF, GS-ROCIS
   Yang Guo               : DLPNO-NEVPT2, F12-NEVPT2, CIM, IAO-localization
   Andreas Hansen         : Spin unrestricted coupled pair/coupled cluster methods
   Ingolf Harden          : AUTO-CI MPn and infrastructure 
   Benjamin Helmich-Paris : MC-RPA, TRAH-(SCF,CASSCF), AVAS, COSX integrals, SCF dyn. polar.
   Lee Huntington         : MR-EOM, pCC
   Robert Izsak           : Overlap fitted RIJCOSX, COSX-SCS-MP3, EOM
   Riya Kayal             : Wick's Theorem for AUTO-CI, AUTO-CI UHF-CCSDT
   Emily Kempfer          : AUTO-CI, RHF CISDT and CCSDT
   Christian Kollmar      : KDIIS, OOCD, Brueckner-CCSD(T), CCSD density, CASPT2, CASPT2-K, improved NEVPT2
   Axel Koslowski         : Symmetry handling
   Simone Kossmann        : Meta GGA functionals, TD-DFT gradient, OOMP2, (MP2 Hessian; deprecated post 5.0)
   Lucas Lang             : DCDCAS
   Marvin Lechner         : AUTO-CI (C++ implementation), FIC-MRCC
   Spencer Leger          : CASSCF response
   Dagmar Lenk            : GEPOL surface, SMD, ORCA-2-JSON
   Dimitrios Liakos       : Extrapolation schemes; Compound Job, initial MDCI parallelization
   Dimitrios Manganas     : Further ROCIS development; embedding schemes. LFT, Crystal Embedding
   Dimitrios Pantazis     : SARC Basis sets
   Anastasios Papadopoulos: AUTO-CI, single reference methods and gradients
   Taras Petrenko         : pre 6.0 DFT Hessian and TD-DFT gradient, (ASA, deprecated), ECA, 1-Electron XAS/XES, NRVS
   Peter Pinski           : DLPNO-MP2, DLPNO-MP2 Gradient
   Christoph Reimann      : Effective Core Potentials
   Marius Retegan         : Local ZFS, SOC
   Christoph Riplinger    : Optimizer, TS searches, QM/MM, DLPNO-CCSD(T), (RO)-DLPNO pert. Triples
   Michael Roemelt        : Original ROCIS implementation
   Masaaki Saitow         : Open-shell DLPNO-CCSD energy and density
   Barbara Sandhoefer     : DKH picture change effects
   Kantharuban Sivalingam : CASSCF convergence/infrastructure, NEVPT2 and variants, FIC-MRCI
   Bernardo de Souza      : ESD, SOC TD-DFT
   Georgi Stoychev        : AutoAux, RI-MP2 NMR, DLPNO-MP2 response, X2C
   Van Anh Tran           : RI-MP2 g-tensors
   Willem Van den Heuvel  : Paramagnetic NMR
   Zikuan Wang            : NOTCH, Electric field optimization 
   Frank Wennmohs         : Technical directorship and infrastructure
   Hang Xu                : AUTO-CI-Response properties 


 We gratefully acknowledge several colleagues who have allowed us to
 interface, adapt or use parts of their codes:
   Stefan Grimme, W. Hujo, H. Kruse, P. Pracht,  : VdW corrections, initial TS optimization,
                  C. Bannwarth, S. Ehlert,         DFT functionals, gCP, sTDA/sTD-DF
                  L. Wittmann, M. Mueller
   Ed Valeev, F. Pavosevic, A. Kumar             : LibInt (2-el integral package), F12 methods
   Garnet Chan, S. Sharma, J. Yang, R. Olivares  : DMRG
   Ulf Ekstrom                                   : XCFun DFT Library
   Mihaly Kallay                                 : mrcc  (arbitrary order and MRCC methods)
   Frank Weinhold                                : gennbo (NPA and NBO analysis)
   Simon Mueller                                 : openCOSMO-RS
   Christopher J. Cramer and Donald G. Truhlar   : smd solvation model
   Lars Goerigk                                  : TD-DFT with DH, B97 family of functionals
   V. Asgeirsson, H. Jonsson                     : NEB implementation
   FAccTs GmbH                                   : IRC, NEB, NEB-TS, DLPNO-Multilevel, CI-OPT
                                                   MM, QMMM, 2- and 3-layer-ONIOM, Crystal-QMMM,
                                                   LR-CPCM, SF, NACMEs, symmetry and pop. for TD-DFT,
                                                   nearIR, NL-DFT gradient (VV10), updates on ESD,
                                                   ML-optimized integration grids, MBIS, APM,
                                                   GOAT, DOCKER, SOLVATOR, interface openCOSMO-RS
   S Lehtola, MJT Oliveira, MAL Marques          : LibXC Library
   Liviu Ungur et al                             : ANISO software


 Your calculation uses the libint2 library for the computation of 2-el integrals
 For citations please refer to: http://libint.valeyev.net

 Your ORCA version has been built with support for libXC version: 6.2.2
 For citations please refer to: https://libxc.gitlab.io

 This ORCA versions uses:
   CBLAS   interface :  Fast vector & matrix operations
   LAPACKE interface :  Fast linear algebra routines
   SCALAPACK package :  Parallel linear algebra routines
   Shared memory     :  Shared parallel matrices
   BLAS/LAPACK       :  OpenBLAS 0.3.27  USE64BITINT DYNAMIC_ARCH NO_AFFINITY SkylakeX SINGLE_THREADED
        Core in use  :  SkylakeX
   Copyright (c) 2011-2014, The OpenBLAS Project


Your calculation utilizes the geometrical counterpoise correction gCP
Please cite in your paper:
H.Kruse, S. Grimme J.Chem.Phys., 136, (2012), 154101 
   

Your calculation utilizes the atom-pairwise dispersion correction
based on EEQ partial charges (D4)


================================================================================

----- Orbital basis set information -----
Your calculation utilizes the basis: def2-SV(P)
   F. Weigend and R. Ahlrichs, Phys. Chem. Chem. Phys. 7, 3297 (2005).

----- AuxJ basis set information -----
Your calculation utilizes the auxiliary basis: def2/J
   F. Weigend, Phys. Chem. Chem. Phys. 8, 1057 (2006).

================================================================================
                                        WARNINGS
                       Please study these warnings very carefully!
================================================================================


================================================================================
                                       INPUT FILE
================================================================================
NAME = sp.inp
|  1> ! pbe def2-sv(p) def2/J RI DEFGRID1 loosescf d4 GCP(DFT/SV(P)) printgap
|  2> %output
|  3>     printlevel normal
|  4> end
|  5> * xyz 0 1
|  6> C -3.0002852662 -0.9169927441 -0.2508574895
|  7> C -2.3259795303 0.4111942047 -0.5725285621
|  8> C -1.2585110537 0.7928832165 0.4593398959
|  9> C 0.0063141884 -0.0171972981 0.3287545924
| 10> O 0.0734185006 -1.205041961 0.0949982731
| 11> O 1.0768088179 0.7485291976 0.5233572166
| 12> C 2.3778702881 0.1427631945 0.4433988445
| 13> C 2.8949994082 0.1460896461 -0.9871086736
| 14> H -3.727723521 -1.1665360801 -1.018790333
| 15> H -2.2602670964 -1.7114635186 -0.202929382
| 16> H -3.5129277985 -0.8623890217 0.7067345102
| 17> H -3.0769968457 1.2022084688 -0.595177973
| 18> H -1.8659849022 0.3552941354 -1.5610436327
| 19> H -1.6512599793 0.6230374741 1.4645614928
| 20> H -0.9852362086 1.8441147494 0.3704730669
| 21> H 3.0060672383 0.7515040032 1.0943439224
| 22> H 2.3108864674 -0.8800660751 0.826590668
| 23> H 2.9043258584 1.1595652882 -1.3788412822
| 24> H 3.9025949798 -0.2559714849 -1.0066415728
| 25> H 2.2563711351 -0.4710436165 -1.6151750078
| 26> *
| 27> 
| 28>                          ****END OF INPUT****
================================================================================

                       ****************************
                       * Single Point Calculation *
                       ****************************

---------------------------------
CARTESIAN COORDINATES (ANGSTROEM)
---------------------------------
  C     -3.000285   -0.916993   -0.250857
  C     -2.325980    0.411194   -0.572529
  C     -1.258511    0.792883    0.459340
  C      0.006314   -0.017197    0.328755
  O      0.073419   -1.205042    0.094998
  O      1.076809    0.748529    0.523357
  C      2.377870    0.142763    0.443399
  C      2.894999    0.146090   -0.987109
  H     -3.727724   -1.166536   -1.018790
  H     -2.260267   -1.711464   -0.202929
  H     -3.512928   -0.862389    0.706735
  H     -3.076997    1.202208   -0.595178
  H     -1.865985    0.355294   -1.561044
  H     -1.651260    0.623037    1.464561
  H     -0.985236    1.844115    0.370473
  H      3.006067    0.751504    1.094344
  H      2.310886   -0.880066    0.826591
  H      2.904326    1.159565   -1.378841
  H      3.902595   -0.255971   -1.006642
  H      2.256371   -0.471044   -1.615175

----------------------------
CARTESIAN COORDINATES (A.U.)
----------------------------
  NO LB      ZA    FRAG     MASS         X           Y           Z
   0 C     6.0000    0    12.011   -5.669717   -1.732865   -0.474052
   1 C     6.0000    0    12.011   -4.395464    0.777044   -1.081922
   2 C     6.0000    0    12.011   -2.378241    1.498332    0.868027
   3 C     6.0000    0    12.011    0.011932   -0.032498    0.621256
   4 O     8.0000    0    15.999    0.138741   -2.277199    0.179521
   5 O     8.0000    0    15.999    2.034874    1.414515    0.989002
   6 C     6.0000    0    12.011    4.493524    0.269783    0.837902
   7 C     6.0000    0    12.011    5.470756    0.276069   -1.865365
   8 H     1.0000    0     1.008   -7.044377   -2.204434   -1.925235
   9 H     1.0000    0     1.008   -4.271286   -3.234197   -0.383481
  10 H     1.0000    0     1.008   -6.638471   -1.629679    1.335535
  11 H     1.0000    0     1.008   -5.814681    2.271845   -1.124723
  12 H     1.0000    0     1.008   -3.526200    0.671409   -2.949945
  13 H     1.0000    0     1.008   -3.120429    1.177370    2.767620
  14 H     1.0000    0     1.008   -1.861827    3.484872    0.700093
  15 H     1.0000    0     1.008    5.680644    1.420137    2.068010
  16 H     1.0000    0     1.008    4.366943   -1.663084    1.562030
  17 H     1.0000    0     1.008    5.488380    2.191261   -2.605632
  18 H     1.0000    0     1.008    7.374836   -0.483716   -1.902277
  19 H     1.0000    0     1.008    4.263924   -0.890143   -3.052238

--------------------------------
INTERNAL COORDINATES (ANGSTROEM)
--------------------------------
 C      0   0   0     0.000000000000     0.00000000     0.00000000
 C      1   0   0     1.523890112632     0.00000000     0.00000000
 C      2   1   0     1.532947476230   112.52302144     0.00000000
 C      3   2   1     1.507669013636   113.08530424    74.36611264
 O      4   3   2     1.212485030303   126.12265190   319.65177751
 O      4   3   2     1.330475854479   110.67664275   140.44512022
 C      6   4   3     1.437395819188   118.52863926   179.71000131
 C      7   6   4     1.521113194827   111.04581990    87.60463938
 H      1   2   3     1.086811457068   110.31275918   181.67184560
 H      1   2   3     1.086787838843   110.19116538   301.58181296
 H      1   2   3     1.087550628850   110.52887004    61.61247369
 H      2   1   3     1.090982845811   109.37277116   239.68409416
 H      2   1   3     1.091733447519   109.44738314   121.59708775
 H      3   2   1     1.092506180141   109.28733565   314.88902581
 H      3   2   1     1.089800068831   111.09426562   195.36098759
 H      7   6   4     1.090378959289   104.65478284   207.87852127
 H      7   6   4     1.094304583095   108.60380733   325.75703827
 H      8   7   6     1.086588374889   110.12073712    56.09869861
 H      8   7   6     1.085026968845   109.37963264   176.27989315
 H      8   7   6     1.087734735662   110.00928695   295.90224303

---------------------------
INTERNAL COORDINATES (A.U.)
---------------------------
 C      0   0   0     0.000000000000     0.00000000     0.00000000
 C      1   0   0     2.879734971065     0.00000000     0.00000000
 C      2   1   0     2.896850907760   112.52302144     0.00000000
 C      3   2   1     2.849081536371   113.08530424    74.36611264
 O      4   3   2     2.291264648752   126.12265190   319.65177751
 O      4   3   2     2.514234992760   110.67664275   140.44512022
 C      6   4   3     2.716284444309   118.52863926   179.71000131
 C      7   6   4     2.874487356917   111.04581990    87.60463938
 H      1   2   3     2.053776013067   110.31275918   181.67184560
 H      1   2   3     2.053731381090   110.19116538   301.58181296
 H      1   2   3     2.055172845301   110.52887004    61.61247369
 H      2   1   3     2.061658795389   109.37277116   239.68409416
 H      2   1   3     2.063077227053   109.44738314   121.59708775
 H      3   2   1     2.064537480082   109.28733565   314.88902581
 H      3   2   1     2.059423670819   111.09426562   195.36098759
 H      7   6   4     2.060517615246   104.65478284   207.87852127
 H      7   6   4     2.067935969145   108.60380733   325.75703827
 H      8   7   6     2.053354448843   110.12073712    56.09869861
 H      8   7   6     2.050403819035   109.37963264   176.27989315
 H      8   7   6     2.055520756754   110.00928695   295.90224303

---------------------
BASIS SET INFORMATION
---------------------
There are 3 groups of distinct atoms

 Group   1 Type C   : 7s4p1d contracted to 3s2p1d pattern {511/31/1}
 Group   2 Type O   : 7s4p1d contracted to 3s2p1d pattern {511/31/1}
 Group   3 Type H   : 4s contracted to 2s pattern {31}

Atom   0C    basis set group =>   1
Atom   1C    basis set group =>   1
Atom   2C    basis set group =>   1
Atom   3C    basis set group =>   1
Atom   4O    basis set group =>   2
Atom   5O    basis set group =>   2
Atom   6C    basis set group =>   1
Atom   7C    basis set group =>   1
Atom   8H    basis set group =>   3
Atom   9H    basis set group =>   3
Atom  10H    basis set group =>   3
Atom  11H    basis set group =>   3
Atom  12H    basis set group =>   3
Atom  13H    basis set group =>   3
Atom  14H    basis set group =>   3
Atom  15H    basis set group =>   3
Atom  16H    basis set group =>   3
Atom  17H    basis set group =>   3
Atom  18H    basis set group =>   3
Atom  19H    basis set group =>   3
---------------------------------
AUXILIARY/J BASIS SET INFORMATION
---------------------------------
There are 3 groups of distinct atoms

 Group   1 Type C   : 12s5p4d2f1g contracted to 6s4p3d1f1g pattern {711111/2111/211/2/1}
 Group   2 Type O   : 12s5p4d2f1g contracted to 6s4p3d1f1g pattern {711111/2111/211/2/1}
 Group   3 Type H   : 5s2p1d contracted to 3s1p1d pattern {311/2/1}

Atom   0C    basis set group =>   1
Atom   1C    basis set group =>   1
Atom   2C    basis set group =>   1
Atom   3C    basis set group =>   1
Atom   4O    basis set group =>   2
Atom   5O    basis set group =>   2
Atom   6C    basis set group =>   1
Atom   7C    basis set group =>   1
Atom   8H    basis set group =>   3
Atom   9H    basis set group =>   3
Atom  10H    basis set group =>   3
Atom  11H    basis set group =>   3
Atom  12H    basis set group =>   3
Atom  13H    basis set group =>   3
Atom  14H    basis set group =>   3
Atom  15H    basis set group =>   3
Atom  16H    basis set group =>   3
Atom  17H    basis set group =>   3
Atom  18H    basis set group =>   3
Atom  19H    basis set group =>   3
------------------------------------------------------------------------------
                             ORCA STARTUP CALCULATIONS
                           -- RI-GTO INTEGRALS CHOSEN --
------------------------------------------------------------------------------
------------------------------------------------------------------------------
                   ___                                                        
                  /   \      - P O W E R E D   B Y -                         
                 /     \                                                     
                 |  |  |   _    _      __       _____    __    __             
                 |  |  |  | |  | |    /  \     |  _  \  |  |  /  |          
                  \  \/   | |  | |   /    \    | | | |  |  | /  /          
                 / \  \   | |__| |  /  /\  \   | |_| |  |  |/  /          
                |  |  |   |  __  | /  /__\  \  |    /   |      \           
                |  |  |   | |  | | |   __   |  |    \   |  |\   \          
                \     /   | |  | | |  |  |  |  | |\  \  |  | \   \       
                 \___/    |_|  |_| |__|  |__|  |_| \__\ |__|  \__/        
                                                                              
                      - O R C A' S   B I G   F R I E N D -                    
                                      &                                       
                       - I N T E G R A L  F E E D E R -                       
                                                                              
 v1 FN, 2020, v2 2021, v3 2022-2024                                           
------------------------------------------------------------------------------


----------------------
SHARK INTEGRAL PACKAGE
----------------------

Number of atoms                             ...     20
Number of basis functions                   ...    136
Number of shells                            ...     72
Maximum angular momentum                    ...      2
Integral batch strategy                     ... SHARK/LIBINT Hybrid
RI-J (if used) integral strategy            ... SPLIT-RIJ (Revised 2003 algorithm where possible)
Printlevel                                  ...      1
Contraction scheme used                     ... SEGMENTED contraction
Prescreening option                         ... SCHWARTZ
   Thresh                                   ... 1.000e-09
   Tcut                                     ... 1.000e-10
   Tpresel                                  ... 1.000e-10 
Coulomb Range Separation                    ... NOT USED
Exchange Range Separation                   ... NOT USED
Multipole approximations                    ... NOT USED
Finite Nucleus Model                        ... NOT USED
CABS basis                                  ... NOT available
Auxiliary Coulomb fitting basis             ... AVAILABLE
   # of basis functions in Aux-J            ...    524
   # of shells in Aux-J                     ...    180
   Maximum angular momentum in Aux-J        ...      4
Auxiliary J/K fitting basis                 ... NOT available
Auxiliary Correlation fitting basis         ... NOT available
Auxiliary 'external' fitting basis          ... NOT available

Checking pre-screening integrals            ... done (  0.0 sec) Dimension = 72
Check shell pair data                       ... done (  0.0 sec)
Shell pair information
Shell pair cut-off parameter TPreSel        ...   1.0e-10
Total number of shell pairs                 ...      2628
Shell pairs after pre-screening             ...      2415
Total number of primitive shell pairs       ...     10580
Primitive shell pairs kept                  ...      6736
          la=0 lb=0:   1064 shell pairs
          la=1 lb=0:    730 shell pairs
          la=1 lb=1:    133 shell pairs
          la=2 lb=0:    336 shell pairs
          la=2 lb=1:    121 shell pairs
          la=2 lb=2:     31 shell pairs

Calculating one electron integrals          ... done (  0.0 sec)
Calculating RI/J V-Matrix + Cholesky decomp.... done (  0.1 sec)
Calculating Nuclear repulsion               ... done (  0.0 sec) ENN=    393.801558149945 Eh

Diagonalization of the overlap matrix:
Smallest eigenvalue                        ... 1.870e-03
Time for diagonalization                   ...    0.004 sec
Threshold for overlap eigenvalues          ... 1.000e-07
Number of eigenvalues below threshold      ... 0
Time for construction of square roots      ...    0.015 sec
Total time needed                          ...    0.028 sec

-------------------
DFT GRID GENERATION
-------------------

General Integration Accuracy     IntAcc      ... 4.159
Radial Grid Type                 RadialGrid  ... OptM3 with GC (2021)
Angular Grid (max. ang.)         AngularGrid ... 3 (Lebedev-194)
Angular grid pruning method      GridPruning ... 4 (adaptive)
Weight generation scheme         WeightScheme... mBecke (2022)
Basis function cutoff            BFCut       ... 1.0000e-10
Integration weight cutoff        WCut        ... 1.0000e-14
Partially contracted basis set               ... off
Rotationally invariant grid construction     ... off
Angular grids for H and He will be reduced by one unit

Total number of grid points                  ...    43010
Total number of batches                      ...      680
Average number of points per batch           ...       63
Average number of grid points per atom       ...     2150
Initializing property integral containers    ... done (  0.0 sec)

SHARK setup successfully completed in   0.7 seconds

Maximum memory used throughout the entire STARTUP-calculation: 21.1 MB
-------------------------------------------------------------------------------
                                 ORCA GUESS
                   Start orbitals & Density for SCF / CASSCF
-------------------------------------------------------------------------------

------------
SCF SETTINGS
------------
Hamiltonian:
 Density Functional     Method          .... DFT(GTOs)
 Exchange Functional    Exchange        .... PBE
   PBE kappa parameter   XKappa         ....  0.804000
   PBE mue parameter    XMuePBE         ....  0.219520
 Correlation Functional Correlation     .... PBE
   PBE beta parameter  CBetaPBE         ....  0.066725
 LDA part of GGA corr.  LDAOpt          .... PW91-LDA
 Gradients option       PostSCFGGA      .... off
   NL short-range parameter             ....  6.400000
 RI-approximation to the Coulomb term is turned on
   Number of AuxJ basis functions       .... 524


General Settings:
 Integral files         IntName         .... sp
 Hartree-Fock type      HFTyp           .... RHF
 Total Charge           Charge          ....    0
 Multiplicity           Mult            ....    1
 Number of Electrons    NEL             ....   64
 Basis Dimension        Dim             ....  136
 Nuclear Repulsion      ENuc            ....    393.8015581499 Eh

Convergence Acceleration:
 AO-DIIS                CNVDIIS         .... on
   Start iteration      DIISMaxIt       ....    12
   Startup error        DIISStart       ....  0.200000
   # of expansion vecs  DIISMaxEq       ....     5
   Bias factor          DIISBfac        ....   1.050
   Max. coefficient     DIISMaxC        ....  10.000
 MO-DIIS                CNVKDIIS        .... off
 Trust-Rad. Augm. Hess. CNVTRAH         .... auto
   Auto Start mean grad. ratio tolernc. ....  1.125000
   Auto Start start iteration           ....    50
   Auto Start num. interpolation iter.  ....    10
   Max. Number of Micro iterations      ....    24
   Max. Number of Macro iterations      .... Maxiter - #DIIS iter
   Number of Davidson start vectors     ....     2
   Converg. threshold    (grad. norm)   ....   1.000e-04
   Grad. Scal. Fac. for Micro threshold ....   0.100
   Minimum threshold for Micro iter.    ....   1.000e-02
   NR start threshold (gradient norm)   ....   1.000e-04
   Initial trust radius                 ....   0.400
   Minimum AH scaling param. (alpha)    ....   1.000
   Maximum AH scaling param. (alpha)    .... 1000.000
   Quad. conv. algorithm                .... NR
   White noise on init. David. guess    .... on
   Maximum white noise                  ....   0.010
   Pseudo random numbers                .... off
   Inactive MOs                         .... canonical
   Orbital update algorithm             .... Taylor
   Preconditioner                       .... Diag
   Full preconditioner red. dimension   ....   250
 SOSCF                  CNVSOSCF        .... on
   Start iteration      SOSCFMaxIt      ....   150
   Startup grad/error   SOSCFStart      ....  0.003300
   Hessian update       SOSCFHessUp     .... L-BFGS
 Level Shifting         CNVShift        .... on
   Level shift para.    LevelShift      ....    0.2500
   Turn off err/grad.   ShiftErr        ....    0.0010
 Zerner damping         CNVZerner       .... off
 Static damping         CNVDamp         .... on
   Fraction old density DampFac         ....    0.7000
   Max. Damping (<1)    DampMax         ....    0.9800
   Min. Damping (>=0)   DampMin         ....    0.0000
   Turn off err/grad.   DampErr         ....    0.1000

SCF Procedure:
 Maximum # iterations   MaxIter         ....   125
 SCF integral mode      SCFMode         .... Direct
   Integral package                     .... SHARK and LIBINT hybrid scheme
 Reset frequency        DirectResetFreq ....    20
 Integral Threshold     Thresh          ....  1.000e-09 Eh
 Primitive CutOff       TCut            ....  1.000e-10 Eh

Convergence Tolerance:
 Convergence Check Mode ConvCheckMode   .... Total+1el-Energy
 Convergence forced     ConvForced      .... 0
 Energy Change          TolE            ....  1.000e-05 Eh
 1-El. energy change                    ....  1.000e-02 Eh
 Orbital Gradient       TolG            ....  1.000e-04
 Orbital Rotation angle TolX            ....  1.000e-04
 DIIS Error             TolErr          ....  5.000e-04

------------------------------
INITIAL GUESS: MODEL POTENTIAL
------------------------------
Loading Hartree-Fock densities                     ... done
Calculating cut-offs                               ... done
Initializing the effective Hamiltonian             ... done
Setting up the integral package (SHARK)            ... done
Starting the Coulomb interaction                   ... done (   0.2 sec)
Making the grid                                    ... done (   0.2 sec)
Mapping shells                                     ... done
Starting the XC term evaluation                    ... done (   0.2 sec)
  promolecular density results
     # of electrons  =     63.996348009
     EX              =    -50.543074607
     EC              =     -2.107013989
     EX+EC           =    -52.650088595
Transforming the Hamiltonian                       ... done (   0.0 sec)
Diagonalizing the Hamiltonian                      ... done (   0.0 sec)
Back transforming the eigenvectors                 ... done (   0.0 sec)
Now organizing SCF variables                       ... done
                      ------------------
                      INITIAL GUESS DONE (   0.6 sec)
                      ------------------
             **** ENERGY FILE WAS UPDATED (sp.en.tmp) ****
Finished Guess after   0.8 sec
Maximum memory used throughout the entire GUESS-calculation: 16.1 MB

-------------------------------------------------------------------------------------------
                                      ORCA LEAN-SCF
                              memory conserving SCF solver
-------------------------------------------------------------------------------------------

----------------------------------------D-I-I-S--------------------------------------------
Iteration    Energy (Eh)           Delta-E    RMSDP     MaxDP     DIISErr   Damp  Time(sec)
-------------------------------------------------------------------------------------------
               ***  Starting incremental Fock matrix formation  ***
    1    -385.2851052203166660     0.00e+00  4.94e-03  1.05e-01  2.45e-01  0.700   0.9
    2    -385.4103460302916915    -1.25e-01  3.09e-03  5.36e-02  7.78e-02  0.700   1.0
                               ***Turning on AO-DIIS***
    3    -385.4487747248003302    -3.84e-02  1.25e-03  1.40e-02  2.36e-02  0.700   0.8
    4    -385.4738604792251522    -2.51e-02  1.77e-03  2.19e-02  1.75e-02  0.000   0.9
    5    -385.5320996688053015    -5.82e-02  5.55e-04  7.48e-03  9.00e-03  0.000   0.9
                              *** Initializing SOSCF ***
---------------------------------------S-O-S-C-F--------------------------------------
Iteration    Energy (Eh)           Delta-E    RMSDP     MaxDP     MaxGrad    Time(sec)
--------------------------------------------------------------------------------------
    6    -385.5328377889700846    -7.38e-04  2.10e-04  2.75e-03  3.24e-03     0.9
               *** Restarting incremental Fock matrix formation ***
    7    -385.5328922962068532    -5.45e-05  1.62e-04  3.06e-03  6.15e-04     0.9
    8    -385.5328698786323116     2.24e-05  9.24e-05  2.53e-03  1.98e-03     0.9
    9    -385.5328993970231863    -2.95e-05  6.98e-05  1.14e-03  3.46e-04     0.9
   10    -385.5328951891739848     4.21e-06  4.15e-05  8.54e-04  4.30e-04     0.9
                 **** Energy Check signals convergence ****

               *****************************************************
               *                     SUCCESS                       *
               *           SCF CONVERGED AFTER  10 CYCLES          *
               *****************************************************

             **** ENERGY FILE WAS UPDATED (sp.en.tmp) ****

----------------
TOTAL SCF ENERGY
----------------

Total Energy       :       -385.53289518917398 Eh          -10490.88342 eV

Components:
Nuclear Repulsion  :        393.80155814994515 Eh           10715.88518 eV
Electronic Energy  :       -779.33445333911914 Eh          -21206.76861 eV
One Electron Energy:      -1304.07578388872253 Eh          -35485.70614 eV
Two Electron Energy:        524.74133054960339 Eh           14278.93753 eV

Virial components:
Potential Energy   :       -767.92749878337827 Eh          -20896.36959 eV
Kinetic Energy     :        382.39460359420434 Eh           10405.48617 eV
Virial Ratio       :          2.00820694530067

DFT components:
N(Alpha)           :       31.999952116609 electrons
N(Beta)            :       31.999952116609 electrons
N(Total)           :       63.999904233217 electrons
E(X)               :      -51.597686109945 Eh       
E(C)               :       -2.123510127398 Eh       
E(XC)              :      -53.721196237343 Eh       

---------------
SCF CONVERGENCE
---------------

  Last Energy change         ...   -4.2078e-06  Tolerance :   1.0000e-05
  Last MAX-Density change    ...    8.5368e-04  Tolerance :   1.0000e-03
  Last RMS-Density change    ...    4.1516e-05  Tolerance :   1.0000e-04
  Last DIIS Error            ...    3.2415e-03  Tolerance :   5.0000e-04
  Last Orbital Gradient      ...    4.3037e-04  Tolerance :   1.0000e-04
  Last Orbital Rotation      ...    4.1204e-04  Tolerance :   1.0000e-04


----------------
ORBITAL ENERGIES
----------------

  NO   OCC          E(Eh)            E(eV) 
   0   2.0000     -18.797379      -511.5027 
   1   2.0000     -18.734095      -509.7807 
   2   2.0000     -10.006987      -272.3040 
   3   2.0000      -9.946263      -270.6516 
   4   2.0000      -9.897291      -269.3190 
   5   2.0000      -9.890041      -269.1217 
   6   2.0000      -9.887195      -269.0442 
   7   2.0000      -9.866114      -268.4706 
   8   2.0000      -1.004492       -27.3336 
   9   2.0000      -0.910753       -24.7829 
  10   2.0000      -0.725033       -19.7292 
  11   2.0000      -0.696250       -18.9459 
  12   2.0000      -0.635294       -17.2872 
  13   2.0000      -0.586744       -15.9661 
  14   2.0000      -0.531726       -14.4690 
  15   2.0000      -0.493233       -13.4215 
  16   2.0000      -0.453748       -12.3471 
  17   2.0000      -0.430443       -11.7130 
  18   2.0000      -0.421166       -11.4605 
  19   2.0000      -0.399895       -10.8817 
  20   2.0000      -0.385354       -10.4860 
  21   2.0000      -0.372590       -10.1387 
  22   2.0000      -0.366185        -9.9644 
  23   2.0000      -0.351998        -9.5784 
  24   2.0000      -0.331848        -9.0300 
  25   2.0000      -0.326489        -8.8842 
  26   2.0000      -0.301292        -8.1986 
  27   2.0000      -0.298671        -8.1273 
  28   2.0000      -0.295220        -8.0334 
  29   2.0000      -0.287609        -7.8262 
  30   2.0000      -0.256864        -6.9896 
  31   2.0000      -0.217435        -5.9167 
  32   0.0000      -0.020739        -0.5643 
  33   0.0000       0.041008         1.1159 
  34   0.0000       0.056929         1.5491 
  35   0.0000       0.076776         2.0892 
  36   0.0000       0.084222         2.2918 
  37   0.0000       0.088480         2.4077 
  38   0.0000       0.091234         2.4826 
  39   0.0000       0.099420         2.7054 
  40   0.0000       0.108533         2.9533 
  41   0.0000       0.121613         3.3092 
  42   0.0000       0.128341         3.4923 
*Only the first 10 virtual orbitals were printed.

                    ********************************
                    * MULLIKEN POPULATION ANALYSIS *
                    ********************************

-----------------------
MULLIKEN ATOMIC CHARGES
-----------------------
   0 C :   -0.293588
   1 C :   -0.183455
   2 C :   -0.147974
   3 C :    0.107947
   4 O :   -0.204623
   5 O :   -0.237551
   6 C :   -0.014392
   7 C :   -0.302761
   8 H :    0.099239
   9 H :    0.130189
  10 H :    0.091206
  11 H :    0.089608
  12 H :    0.094906
  13 H :    0.113600
  14 H :    0.099248
  15 H :    0.101426
  16 H :    0.107137
  17 H :    0.112699
  18 H :    0.111887
  19 H :    0.125253
Sum of atomic charges:   -0.0000000

--------------------------------
MULLIKEN REDUCED ORBITAL CHARGES
--------------------------------
  0 C s       :     3.097632  s :     3.097632
      pz      :     1.047850  p :     3.166855
      px      :     1.069398
      py      :     1.049606
      dz2     :     0.005739  d :     0.029101
      dxz     :     0.008327
      dyz     :     0.002773
      dx2y2   :     0.004178
      dxy     :     0.008083

  1 C s       :     3.075534  s :     3.075534
      pz      :     1.025994  p :     3.071070
      px      :     1.005626
      py      :     1.039450
      dz2     :     0.009397  d :     0.036851
      dxz     :     0.007562
      dyz     :     0.003819
      dx2y2   :     0.005114
      dxy     :     0.010960

  2 C s       :     3.001800  s :     3.001800
      pz      :     1.058415  p :     3.113040
      px      :     1.013881
      py      :     1.040744
      dz2     :     0.010195  d :     0.033134
      dxz     :     0.005711
      dyz     :     0.002471
      dx2y2   :     0.007078
      dxy     :     0.007679

  3 C s       :     3.056344  s :     3.056344
      pz      :     0.845458  p :     2.704870
      px      :     0.933620
      py      :     0.925793
      dz2     :     0.009034  d :     0.130839
      dxz     :     0.013195
      dyz     :     0.024422
      dx2y2   :     0.029921
      dxy     :     0.054267

  4 O s       :     3.753468  s :     3.753468
      pz      :     1.395531  p :     4.433704
      px      :     1.729962
      py      :     1.308211
      dz2     :     0.002113  d :     0.017450
      dxz     :     0.000192
      dyz     :     0.005542
      dx2y2   :     0.005763
      dxy     :     0.003842

  5 O s       :     3.731783  s :     3.731783
      pz      :     1.699546  p :     4.489725
      px      :     1.182245
      py      :     1.607934
      dz2     :     0.002105  d :     0.016043
      dxz     :     0.002512
      dyz     :     0.002073
      dx2y2   :     0.002974
      dxy     :     0.006379

  6 C s       :     3.073818  s :     3.073818
      pz      :     1.074090  p :     2.881704
      px      :     0.784765
      py      :     1.022849
      dz2     :     0.009384  d :     0.058870
      dxz     :     0.013297
      dyz     :     0.009332
      dx2y2   :     0.013760
      dxy     :     0.013096

  7 C s       :     3.100816  s :     3.100816
      pz      :     1.030320  p :     3.174027
      px      :     1.059857
      py      :     1.083850
      dz2     :     0.006104  d :     0.027918
      dxz     :     0.004601
      dyz     :     0.007196
      dx2y2   :     0.005860
      dxy     :     0.004157

  8 H s       :     0.900761  s :     0.900761

  9 H s       :     0.869811  s :     0.869811

 10 H s       :     0.908794  s :     0.908794

 11 H s       :     0.910392  s :     0.910392

 12 H s       :     0.905094  s :     0.905094

 13 H s       :     0.886400  s :     0.886400

 14 H s       :     0.900752  s :     0.900752

 15 H s       :     0.898574  s :     0.898574

 16 H s       :     0.892863  s :     0.892863

 17 H s       :     0.887301  s :     0.887301

 18 H s       :     0.888113  s :     0.888113

 19 H s       :     0.874747  s :     0.874747


------------------------
MULLIKEN OVERLAP CHARGES
------------------------
B(  0-C ,  1-C ) :   0.8834 B(  0-C ,  2-C ) :  -0.0880 B(  0-C ,  8-H ) :   0.7196 
B(  0-C ,  9-H ) :   0.7529 B(  0-C , 10-H ) :   0.7496 B(  1-C ,  2-C ) :   0.7385 
B(  1-C ,  3-C ) :  -0.0506 B(  1-C ,  9-H ) :  -0.0543 B(  1-C , 10-H ) :  -0.0528 
B(  1-C , 11-H ) :   0.7134 B(  1-C , 12-H ) :   0.7344 B(  2-C ,  3-C ) :   0.5554 
B(  2-C ,  4-O ) :  -0.2201 B(  2-C ,  5-O ) :  -0.2640 B(  2-C , 12-H ) :  -0.0732 
B(  2-C , 13-H ) :   0.6320 B(  2-C , 14-H ) :   0.5946 B(  3-C ,  4-O ) :   1.3294 
B(  3-C ,  5-O ) :   0.7653 B(  3-C ,  6-C ) :  -0.0603 B(  4-O ,  5-O ) :  -0.1672 
B(  4-O ,  9-H ) :   0.0566 B(  4-O , 16-H ) :   0.0540 B(  5-O ,  6-C ) :   0.5220 
B(  5-O ,  7-C ) :  -0.0777 B(  5-O , 15-H ) :  -0.0547 B(  5-O , 16-H ) :  -0.0652 
B(  6-C ,  7-C ) :   0.9411 B(  6-C , 15-H ) :   0.7360 B(  6-C , 16-H ) :   0.7066 
B(  7-C , 15-H ) :  -0.0567 B(  7-C , 16-H ) :  -0.0605 B(  7-C , 17-H ) :   0.7393 
B(  7-C , 18-H ) :   0.7117 B(  7-C , 19-H ) :   0.7448 B( 11-H , 12-H ) :  -0.0640 
B( 15-H , 16-H ) :  -0.0626 B( 17-H , 19-H ) :  -0.0528 


                     *******************************
                     * LOEWDIN POPULATION ANALYSIS *
                     *******************************

----------------------
LOEWDIN ATOMIC CHARGES
----------------------
   0 C :   -0.349827
   1 C :   -0.225396
   2 C :   -0.249147
   3 C :    0.043006
   4 O :   -0.167924
   5 O :   -0.068535
   6 C :   -0.114212
   7 C :   -0.355769
   8 H :    0.117528
   9 H :    0.126886
  10 H :    0.113766
  11 H :    0.117740
  12 H :    0.119355
  13 H :    0.142338
  14 H :    0.130650
  15 H :    0.116792
  16 H :    0.118853
  17 H :    0.124054
  18 H :    0.129995
  19 H :    0.129846

-------------------------------
LOEWDIN REDUCED ORBITAL CHARGES
-------------------------------
  0 C s       :     2.946235  s :     2.946235
      pz      :     1.116259  p :     3.333176
      px      :     1.118372
      py      :     1.098546
      dz2     :     0.014438  d :     0.070416
      dxz     :     0.019975
      dyz     :     0.006115
      dx2y2   :     0.009433
      dxy     :     0.020455

  1 C s       :     2.906287  s :     2.906287
      pz      :     1.082012  p :     3.230529
      px      :     1.062628
      py      :     1.085890
      dz2     :     0.021963  d :     0.088580
      dxz     :     0.020086
      dyz     :     0.008206
      dx2y2   :     0.011651
      dxy     :     0.026674

  2 C s       :     2.916464  s :     2.916464
      pz      :     1.096854  p :     3.248871
      px      :     1.062963
      py      :     1.089055
      dz2     :     0.023966  d :     0.083812
      dxz     :     0.016292
      dyz     :     0.005129
      dx2y2   :     0.018262
      dxy     :     0.020162

  3 C s       :     2.847853  s :     2.847853
      pz      :     0.835836  p :     2.812432
      px      :     0.960267
      py      :     1.016330
      dz2     :     0.020551  d :     0.296709
      dxz     :     0.025101
      dyz     :     0.049796
      dx2y2   :     0.070626
      dxy     :     0.130635

  4 O s       :     3.549206  s :     3.549206
      pz      :     1.402155  p :     4.587792
      px      :     1.732641
      py      :     1.452996
      dz2     :     0.004166  d :     0.030926
      dxz     :     0.000277
      dyz     :     0.007845
      dx2y2   :     0.012446
      dxy     :     0.006192

  5 O s       :     3.452673  s :     3.452673
      pz      :     1.678301  p :     4.583234
      px      :     1.255927
      py      :     1.649006
      dz2     :     0.004274  d :     0.032628
      dxz     :     0.004840
      dyz     :     0.002477
      dx2y2   :     0.007026
      dxy     :     0.014011

  6 C s       :     2.924661  s :     2.924661
      pz      :     1.106479  p :     3.058274
      px      :     0.860139
      py      :     1.091656
      dz2     :     0.023368  d :     0.131277
      dxz     :     0.030384
      dyz     :     0.019449
      dx2y2   :     0.029665
      dxy     :     0.028411

  7 C s       :     2.952016  s :     2.952016
      pz      :     1.083531  p :     3.335020
      px      :     1.119090
      py      :     1.132399
      dz2     :     0.016639  d :     0.068733
      dxz     :     0.011908
      dyz     :     0.015922
      dx2y2   :     0.014348
      dxy     :     0.009917

  8 H s       :     0.882472  s :     0.882472

  9 H s       :     0.873114  s :     0.873114

 10 H s       :     0.886234  s :     0.886234

 11 H s       :     0.882260  s :     0.882260

 12 H s       :     0.880645  s :     0.880645

 13 H s       :     0.857662  s :     0.857662

 14 H s       :     0.869350  s :     0.869350

 15 H s       :     0.883208  s :     0.883208

 16 H s       :     0.881147  s :     0.881147

 17 H s       :     0.875946  s :     0.875946

 18 H s       :     0.870005  s :     0.870005

 19 H s       :     0.870154  s :     0.870154


---------------------------------
LOEWDIN BOND ORDERS (THRESH 0.050000)
---------------------------------
B(  0-C ,  1-C ) :   1.1331 B(  0-C ,  2-C ) :   0.0530 B(  0-C ,  8-H ) :   0.9383 
B(  0-C ,  9-H ) :   0.9309 B(  0-C , 10-H ) :   0.9401 B(  1-C ,  2-C ) :   1.0809 
B(  1-C ,  3-C ) :   0.0595 B(  1-C , 11-H ) :   0.9067 B(  1-C , 12-H ) :   0.9082 
B(  2-C ,  3-C ) :   1.0609 B(  2-C ,  4-O ) :   0.0926 B(  2-C ,  5-O ) :   0.0755 
B(  2-C , 13-H ) :   0.8795 B(  2-C , 14-H ) :   0.8943 B(  3-C ,  4-O ) :   2.1904 
B(  3-C ,  5-O ) :   1.3997 B(  3-C ,  6-C ) :   0.0753 B(  4-O ,  5-O ) :   0.2073 
B(  5-O ,  6-C ) :   1.0752 B(  5-O ,  7-C ) :   0.0537 B(  6-C ,  7-C ) :   1.1497 
B(  6-C , 15-H ) :   0.9203 B(  6-C , 16-H ) :   0.9068 B(  7-C , 17-H ) :   0.9386 
B(  7-C , 18-H ) :   0.9303 B(  7-C , 19-H ) :   0.9356 

------------------------------------------
LOEWDIN REDUCED ORBITAL POPULATIONS PER MO
-------------------------------------------
THRESHOLD FOR PRINTING IS 0.1%%
                      0         1         2         3         4         5   
                 -18.79738 -18.73410 -10.00699  -9.94626  -9.89729  -9.89004
                   2.00000   2.00000   2.00000   2.00000   2.00000   2.00000
                  --------  --------  --------  --------  --------  --------
 1 C  s               0.0       0.0       0.0       0.0       0.0      99.6
 2 C  s               0.0       0.0       0.0       0.0      99.6       0.0
 3 C  s               0.0       0.0      99.3       0.0       0.0       0.0
 4 O  s               0.0      99.9       0.0       0.0       0.0       0.0
 4 O  py              0.0       0.0       0.3       0.0       0.0       0.0
 5 O  s              99.9       0.0       0.0       0.0       0.0       0.0
 5 O  px              0.0       0.0       0.1       0.1       0.0       0.0
 6 C  s               0.0       0.0       0.0      99.7       0.0       0.0

                      6         7         8         9        10        11   
                  -9.88719  -9.86611  -1.00449  -0.91075  -0.72503  -0.69625
                   2.00000   2.00000   2.00000   2.00000   2.00000   2.00000
                  --------  --------  --------  --------  --------  --------
 0 C  s               0.0      99.7       0.0       0.0       5.6       6.2
 0 C  px              0.0       0.0       0.0       0.0       0.4       0.2
 0 C  py              0.0       0.0       0.0       0.0       1.3       0.8
 1 C  s               0.0       0.0       0.1       0.1      15.3       9.9
 1 C  pz              0.0       0.0       0.0       0.0       1.1       0.2
 1 C  px              0.0       0.0       0.1       0.1       0.6       0.0
 1 C  py              0.0       0.1       0.0       0.0       0.0       0.3
 2 C  s               0.0       0.0       1.0       0.2      20.2       2.4
 2 C  pz              0.0       0.0       0.0       0.0       0.5       0.5
 2 C  px              0.0       0.0       1.5       0.0       0.1       2.3
 2 C  py              0.0       0.0       0.4       0.5       0.3       0.1
 3 C  s               0.0       0.0      18.7       4.9       3.6       0.9
 3 C  pz              0.0       0.0       0.0       1.0       0.2       0.1
 3 C  px              0.0       0.0       5.1       2.2       3.7       1.7
 3 C  py              0.0       0.0       0.1      21.1       6.1       0.8
 3 C  dz2             0.0       0.0       0.5       0.1       0.0       0.0
 3 C  dyz             0.0       0.0       0.1       0.1       0.0       0.0
 3 C  dx2y2           0.0       0.0       0.0       1.4       0.1       0.0
 3 C  dxy             0.0       0.0       0.4       0.4       0.0       0.2
 4 O  s               0.0       0.0      11.8      41.1       1.7       0.0
 4 O  pz              0.0       0.0       0.1       0.2       0.0       0.0
 4 O  py              0.0       0.0       2.7       4.1       0.2       0.1
 4 O  dx2y2           0.0       0.0       0.1       0.1       0.0       0.0
 5 O  s               0.0       0.0      40.6      16.0       0.0       1.1
 5 O  pz              0.0       0.0       0.1       0.0       0.0       0.0
 5 O  px              0.0       0.0       0.3       0.5       6.7       8.3
 5 O  py              0.0       0.0       2.8       0.2       0.1       0.1
 5 O  dxy             0.0       0.0       0.0       0.0       0.1       0.1
 6 C  s               0.0       0.0       4.6       2.4       6.5      16.8
 6 C  pz              0.1       0.0       0.0       0.0       0.2       1.6
 6 C  px              0.0       0.0       5.0       1.2       0.1       1.1
 6 C  py              0.0       0.0       0.5       0.6       0.0       0.0
 6 C  dz2             0.0       0.0       0.1       0.0       0.0       0.1
 6 C  dx2y2           0.0       0.0       0.2       0.1       0.0       0.0
 6 C  dxy             0.0       0.0       0.2       0.1       0.0       0.0
 7 C  s              99.7       0.0       0.3       0.2       3.6      17.2
 7 C  pz              0.0       0.0       0.3       0.2       0.7       1.7
 7 C  px              0.0       0.0       0.2       0.1       0.1       0.1
 8 H  s               0.0       0.1       0.0       0.0       0.9       1.1
 9 H  s               0.0       0.1       0.0       0.1       1.0       1.2
10 H  s               0.0       0.1       0.0       0.0       1.0       1.2
11 H  s               0.0       0.0       0.0       0.0       2.7       2.0
12 H  s               0.0       0.0       0.0       0.0       2.8       1.9
13 H  s               0.0       0.0       0.1       0.0       3.9       0.6
14 H  s               0.0       0.0       0.3       0.0       4.0       0.3
15 H  s               0.0       0.0       0.5       0.3       1.3       3.7
16 H  s               0.0       0.0       0.8       0.1       1.2       3.1
17 H  s               0.1       0.0       0.1       0.0       0.7       3.4
18 H  s               0.1       0.0       0.0       0.0       0.6       3.5
19 H  s               0.1       0.0       0.1       0.0       0.7       3.2

                     12        13        14        15        16        17   
                  -0.63529  -0.58674  -0.53173  -0.49323  -0.45375  -0.43044
                   2.00000   2.00000   2.00000   2.00000   2.00000   2.00000
                  --------  --------  --------  --------  --------  --------
 0 C  s              16.8       8.1       9.2       0.1       0.0       0.1
 0 C  pz              0.1       0.0       0.9       0.4       1.7       0.0
 0 C  px              0.0       0.3       0.8       0.0       1.0       0.4
 0 C  py              0.2       0.3       5.3       0.5       0.1       0.9
 1 C  s               3.8       0.3      13.5       1.1       0.2       0.3
 1 C  pz              0.5       0.3       2.9       1.6       6.3       0.0
 1 C  px              3.8       2.1       0.0       0.2       2.0       4.0
 1 C  py              3.1       2.7       5.1       0.1       2.2       0.9
 1 C  dxy             0.0       0.0       0.1       0.0       0.0       0.0
 2 C  s               9.7       5.2       1.6       1.1       1.7       0.2
 2 C  pz              0.6       0.0       5.5       0.9       6.9       2.6
 2 C  px              2.9       1.0       4.3       0.4       9.2       0.2
 2 C  py              0.1       0.1       0.4       0.0       5.5       0.9
 2 C  dxz             0.0       0.0       0.2       0.0       0.0       0.0
 2 C  dxy             0.0       0.0       0.0       0.0       0.2       0.0
 3 C  s               3.2       1.0       0.9       1.7       2.1       0.4
 3 C  pz              0.1       0.0       1.1       0.2       2.0       9.2
 3 C  px              3.3       3.4       3.5       2.6       7.7       0.3
 3 C  py              3.2       1.1       0.4       0.9       1.2       0.1
 3 C  dx2y2           0.0       0.0       0.0       0.0       0.0       0.3
 3 C  dxy             0.1       0.2       0.1       0.0       0.0       0.1
 4 O  s               0.6       0.2       0.2       1.1       0.4       3.0
 4 O  pz              0.0       0.0       0.2       0.1       0.5       2.1
 4 O  px              0.1       0.2       0.5       1.2       4.7       0.0
 4 O  py              0.2       0.1       0.0       0.8       1.0       4.6
 5 O  s               1.3       0.0       0.5       4.0       0.3       1.3
 5 O  pz              0.1       0.7       0.6       0.1       0.1      14.9
 5 O  px              3.6      16.3       0.0      12.2       0.0       2.7
 5 O  py              0.0       0.2       0.1       7.4       6.9       4.6
 5 O  dxy             0.0       0.2       0.0       0.1       0.0       0.0
 6 C  s               0.3       5.2       2.8       6.1       0.2       0.2
 6 C  pz              2.3       6.2       1.6       2.6       0.3       7.0
 6 C  px              2.4       1.1       0.8       5.8       3.4       6.7
 6 C  py              0.3       0.7       0.1      13.7       7.2       3.8
 6 C  dz2             0.2       0.2       0.0       0.0       0.0       0.0
 6 C  dx2y2           0.0       0.0       0.0       0.1       0.0       0.0
 6 C  dxy             0.1       0.0       0.0       0.5       0.0       0.0
 7 C  s              10.3      12.6       0.9       1.2       0.1       0.2
 7 C  pz              0.0       2.3       1.5       5.1       0.8       0.3
 7 C  px              0.1       0.3       0.0       0.1       0.4      11.0
 7 C  py              0.0       0.0       0.0       2.2       2.0       1.1
 7 C  dz2             0.0       0.1       0.0       0.1       0.0       0.0
 8 H  s               4.2       2.7       3.5       0.0       0.0       0.0
 9 H  s               3.6       2.0       4.4       0.3       0.2       0.4
10 H  s               3.8       2.2       4.7       0.2       1.1       0.0
11 H  s               1.0       0.1       7.3       0.7       0.6       2.3
12 H  s               0.8       0.1       6.8       1.1       3.5       0.0
13 H  s               2.3       1.7       2.0       1.4       7.1       0.4
14 H  s               2.9       1.4       0.3       0.5       2.2       0.1
15 H  s               0.0       2.8       2.2       2.8       3.7       5.8
16 H  s               0.1       1.3       1.4      12.3       1.4       0.5
17 H  s               2.4       3.9       0.6       3.1       0.2       1.0
18 H  s               2.9       4.5       0.3       0.1       0.0       3.5
19 H  s               2.5       4.4       0.7       0.9       1.2       1.1

                     18        19        20        21        22        23   
                  -0.42117  -0.39990  -0.38535  -0.37259  -0.36618  -0.35200
                   2.00000   2.00000   2.00000   2.00000   2.00000   2.00000
                  --------  --------  --------  --------  --------  --------
 0 C  s               0.3       0.0       0.1       0.2       0.0       0.0
 0 C  pz              0.1       2.8       8.8       2.8       4.5       7.9
 0 C  px              2.0       2.8      10.7       0.8       7.2       0.3
 0 C  py              1.8       2.7       0.9       4.7       2.1       0.1
 1 C  s               0.4       0.0       0.3       0.1       0.0       0.0
 1 C  pz              0.3       4.3       9.4       1.6       2.0       1.2
 1 C  px              0.0       5.1       1.7       9.3       3.4       0.0
 1 C  py              2.3       1.4       2.5       0.4       2.8       1.0
 2 C  s               0.3       0.1       0.1       0.2       0.2       0.1
 2 C  pz              2.0       0.5       0.1       9.0       2.3       5.0
 2 C  px              0.7       1.6       5.6       2.3       1.1       0.9
 2 C  py             19.7       0.2       6.7       3.2       0.3       0.1
 2 C  dz2             0.0       0.0       0.0       0.0       0.1       0.1
 2 C  dx2y2           0.1       0.0       0.1       0.1       0.0       0.0
 3 C  s               1.4       1.5       0.8       0.2       0.2       0.1
 3 C  pz              7.6       1.2       1.1       2.9       2.1       0.1
 3 C  px              1.5       1.0       0.5       2.6       3.9       0.3
 3 C  py              2.1       1.0       2.0       1.5       0.4       1.1
 3 C  dx2y2           0.3       0.0       0.0       0.0       0.1       0.0
 3 C  dxy             0.0       0.0       0.3       0.0       0.0       0.0
 4 O  s               6.1       3.5       3.0       2.0       0.1       0.4
 4 O  pz              5.7       0.0       2.5       0.4       1.1       0.0
 4 O  px              1.1       0.2       0.0       0.8       2.3       0.0
 4 O  py              7.6      13.3       9.3       7.6       1.4       2.0
 4 O  dyz             0.1       0.0       0.0       0.0       0.0       0.0
 4 O  dx2y2           0.1       0.1       0.1       0.1       0.0       0.0
 5 O  s               0.0       0.6       0.8       0.1       1.2       0.5
 5 O  pz              6.6       6.7       1.6       0.8       0.1       2.6
 5 O  px              1.4       0.4       2.8       0.3       0.7       0.7
 5 O  py              4.3       0.3       1.5       3.3       6.8       0.2
 6 C  s               0.3       0.2       0.0       0.3       0.0       0.1
 6 C  pz              0.9       1.7       0.4       7.2       0.5       5.4
 6 C  px              2.4       3.2       2.0       0.1       0.1       0.3
 6 C  py              0.2       6.5       0.1       0.2       0.9       0.1
 6 C  dz2             0.0       0.0       0.0       0.1       0.0       0.0
 6 C  dx2y2           0.0       0.0       0.0       0.1       0.0       0.1
 6 C  dxy             0.0       0.1       0.0       0.0       0.2       0.1
 7 C  s               0.3       0.1       0.0       0.0       0.0       0.0
 7 C  pz              3.0       4.3       2.3       2.8       0.4      11.0
 7 C  px              0.3       0.0       0.6      13.7       1.0      13.9
 7 C  py              0.2       9.3       0.4       0.1      19.8       6.9
 7 C  dz2             0.1       0.1       0.0       0.1       0.0       0.0
 7 C  dx2y2           0.0       0.0       0.0       0.0       0.2       0.3
 7 C  dxy             0.0       0.0       0.0       0.1       0.0       0.2
 8 H  s               1.5       0.1       9.7       0.4       0.0       1.5
 9 H  s               0.3       2.6       1.0       2.2       3.1       0.1
10 H  s               0.3       2.0       0.3       0.8       4.5       3.7
11 H  s               0.1       2.4       1.4       1.8       3.0       0.3
12 H  s               0.0       3.1       1.2       0.0       2.3       0.4
13 H  s               1.1       0.4       0.2       2.0       2.3       3.7
14 H  s              11.0       0.5       4.8       2.0       0.1       0.0
15 H  s               0.6       2.0       0.1       0.8       0.2       1.3
16 H  s               0.0       3.1       0.0       0.0       0.2       1.6
17 H  s               0.2       1.2       0.7       0.6       7.6       7.9
18 H  s               0.5       1.2       0.3       6.2       3.8      11.2
19 H  s               0.6       4.0       0.5       0.7       2.5       4.3

                     24        25        26        27        28        29   
                  -0.33185  -0.32649  -0.30129  -0.29867  -0.29522  -0.28761
                   2.00000   2.00000   2.00000   2.00000   2.00000   2.00000
                  --------  --------  --------  --------  --------  --------
 0 C  s               0.0       0.0       0.4       0.1       0.1       0.1
 0 C  pz              7.9       0.2       0.3       4.1      13.1       0.0
 0 C  px              0.1       6.0      12.1       2.8       2.5       4.7
 0 C  py              3.3       2.5       9.8      15.2       1.0       0.2
 0 C  dz2             0.0       0.0       0.1       0.2       0.0       0.1
 0 C  dxz             0.1       0.0       0.0       0.3       0.4       0.0
 0 C  dyz             0.0       0.0       0.0       0.0       0.1       0.0
 0 C  dx2y2           0.0       0.0       0.1       0.0       0.0       0.1
 0 C  dxy             0.1       0.1       0.0       0.3       0.2       0.1
 1 C  s               0.0       0.0       0.1       0.0       0.2       0.0
 1 C  pz              0.2       0.0       1.8       2.5      17.2       0.4
 1 C  px              1.1       0.2       7.2       3.1       2.2       6.6
 1 C  py              5.2       0.1       9.9      13.2       0.5       0.0
 1 C  dz2             0.0       0.0       0.3       0.1       0.1       0.3
 1 C  dxz             0.0       0.0       0.0       0.2       0.4       0.0
 1 C  dx2y2           0.0       0.1       0.2       0.0       0.0       0.0
 1 C  dxy             0.0       0.0       0.1       0.5       0.3       0.0
 2 C  s               0.1       0.3       0.2       0.1       0.8       0.0
 2 C  pz              4.5       0.2       0.1       0.0      13.2       0.2
 2 C  px              0.7       1.7       2.9       1.2       3.2       5.8
 2 C  py              0.1       2.5       7.7       1.3       0.5       0.3
 2 C  dz2             0.0       0.0       0.4       0.0       0.1       0.2
 2 C  dxz             0.2       0.0       0.0       0.0       0.2       0.0
 2 C  dx2y2           0.0       0.0       0.2       0.1       0.0       0.0
 2 C  dxy             0.0       0.0       0.1       0.1       0.0       0.0
 3 C  s               0.0       0.1       0.0       0.1       0.0       0.8
 3 C  pz              9.5       1.1       0.1       0.4       1.0       0.2
 3 C  px              0.7       1.7       0.3       0.7       0.1       0.2
 3 C  py              0.3       3.0       1.2       0.0       0.0       2.8
 3 C  dxz             0.1       0.0       0.0       0.0       0.2       0.0
 3 C  dyz             0.3       0.0       0.0       0.0       0.1       0.0
 3 C  dx2y2           0.0       0.4       0.4       0.0       0.0       0.4
 3 C  dxy             0.0       0.1       0.0       0.3       0.0       0.1
 4 O  s               0.0       1.4       0.4       0.1       0.1       0.4
 4 O  pz             16.0       3.1       0.7       0.8       3.8       0.1
 4 O  px              1.2       0.0       0.4       4.9       0.3       0.1
 4 O  py              1.1       6.8       2.7       0.2       0.7       4.2
 5 O  s               0.0       0.3       0.2       0.3       0.0       3.3
 5 O  pz              1.0       1.2       0.2       0.3       1.4       0.4
 5 O  px              0.2       1.7       0.1       0.2       0.3       1.6
 5 O  py              0.1       5.2       4.0       0.9       0.0      25.9
 5 O  dxz             0.1       0.0       0.0       0.0       0.0       0.0
 6 C  s               0.1       0.0       0.0       0.0       0.0       0.2
 6 C  pz             11.4       0.2       0.1       0.3       0.6       0.0
 6 C  px              0.4       4.9       0.6       0.0       0.3       0.6
 6 C  py              0.2       3.2       3.7       2.5       0.4       9.3
 6 C  dz2             0.0       0.2       0.0       0.0       0.0       0.0
 6 C  dxz             0.3       0.1       0.0       0.0       0.0       0.0
 6 C  dyz             0.0       0.3       0.1       0.1       0.0       0.2
 6 C  dx2y2           0.0       0.0       0.1       0.1       0.0       0.5
 7 C  s               0.2       0.0       0.0       0.0       0.1       0.0
 7 C  pz             10.8       0.0       0.0       0.2       0.5       0.1
 7 C  px              0.2      12.0       0.2       0.1       0.6       0.1
 7 C  py              0.4       8.7       1.7       1.0       0.2       2.5
 7 C  dz2             0.0       0.1       0.0       0.0       0.0       0.0
 7 C  dxz             0.2       0.1       0.0       0.0       0.0       0.0
 7 C  dyz             0.0       0.3       0.1       0.1       0.0       0.2
 7 C  dxy             0.0       0.1       0.0       0.0       0.0       0.0
 8 H  s               1.2       1.4       4.0       0.9       9.4       1.4
 9 H  s               1.2       3.9       0.2      10.8       2.4       1.9
10 H  s               3.5       0.2       2.0       6.7       4.8       1.1
11 H  s               0.7       0.0       0.0      11.7       2.1       2.8
12 H  s               0.3       0.1       3.5       5.0       8.0       2.7
13 H  s               4.0       0.0       2.9       0.0       4.6       1.8
14 H  s               0.2       0.9       8.3       1.9       0.1       0.7
15 H  s               5.3       3.6       2.5       0.4       0.0       2.5
16 H  s               0.2       2.5       2.7       2.1       0.5       7.2
17 H  s               0.1       4.9       1.3       1.0       0.3       2.5
18 H  s               0.0       2.9       0.0       0.0       0.2       0.7
19 H  s               4.4       9.0       1.3       0.3       0.1       0.8

                     30        31        32        33        34        35   
                  -0.25686  -0.21744  -0.02074   0.04101   0.05693   0.07678
                   2.00000   2.00000   0.00000   0.00000   0.00000   0.00000
                  --------  --------  --------  --------  --------  --------
 0 C  s               0.0       0.1       0.1       2.7       3.4       0.0
 0 C  pz              0.0       0.0       0.1       0.1       0.1       2.3
 0 C  px              0.0       0.8       0.1       0.6       1.3       0.0
 0 C  py              0.0       1.1       0.0       0.5       0.2       0.0
 0 C  dyz             0.0       0.0       0.0       0.1       0.1       0.0
 0 C  dx2y2           0.0       0.0       0.0       0.1       0.1       0.0
 1 C  s               0.0       0.0       1.3       5.1       2.7       3.2
 1 C  pz              0.0       0.0       0.2       1.3       0.3       1.5
 1 C  px              0.0       0.3       0.9       0.3       1.1       0.8
 1 C  py              0.0       0.4       0.2       0.8       1.1       0.2
 1 C  dz2             0.0       0.0       0.0       0.0       0.0       0.3
 1 C  dxy             0.0       0.1       0.0       0.1       0.2       0.0
 2 C  s               0.0       0.5       0.1       4.4       2.1       3.2
 2 C  pz              0.1       0.1       0.5       0.9       0.8       3.2
 2 C  px              0.0       3.6       0.1       0.0       0.0       0.5
 2 C  py              0.1       3.4       0.0       1.1       1.0       0.4
 2 C  dz2             0.0       0.0       0.1       0.1       0.0       0.3
 2 C  dxz             0.0       0.0       1.8       0.0       0.0       0.0
 3 C  s               0.0       0.4       0.1       1.5       0.0       0.1
 3 C  pz              0.5       0.0      44.9       0.6       1.2       1.0
 3 C  px              0.0       0.9       0.1       0.2       0.0       0.3
 3 C  py              0.0       0.5       1.9       1.1       0.1       0.1
 3 C  dz2             0.2       0.0       0.0       0.3       0.0       0.1
 3 C  dxz             0.4       0.2       0.3       0.0       0.0       0.0
 3 C  dyz             1.8       0.0       0.8       0.1       0.0       0.0
 3 C  dx2y2           0.0       0.0       0.0       0.2       0.0       0.2
 3 C  dxy             0.0       4.3       0.0       0.0       0.0       0.0
 4 O  s               0.0       0.0       0.0       1.0       0.0       0.0
 4 O  pz             32.8       0.0      23.9       0.1       0.6       0.6
 4 O  px              0.2      68.3       0.0       0.0       0.8       0.3
 4 O  py              1.3       0.2       1.1       0.0       0.0       0.0
 4 O  dyz             0.0       0.0       0.5       0.0       0.0       0.0
 5 O  s               0.0       0.3       0.0       0.3       0.0       2.2
 5 O  pz             43.7       0.8       9.9       0.1       0.8       0.1
 5 O  px              0.1       1.5       0.0       0.1       0.1       0.9
 5 O  py              1.8       5.7       0.3       0.1       0.1       0.6
 5 O  dxz             0.0       0.0       0.4       0.0       0.0       0.0
 6 C  s               0.0       0.1       0.0       3.5       4.9       0.9
 6 C  pz              4.1       0.2       0.1       1.0       1.5       0.7
 6 C  px              0.0       0.6       0.1       0.6       0.9       9.7
 6 C  py              0.0       0.3       0.0       0.1       0.0       0.7
 6 C  dz2             0.2       0.0       0.1       0.0       0.0       0.7
 6 C  dxz             0.8       0.0       0.4       0.0       0.0       0.0
 6 C  dx2y2           0.0       0.1       0.0       0.0       0.0       0.4
 6 C  dxy             0.0       0.0       0.0       0.0       0.0       0.4
 7 C  s               0.5       0.0       0.6       6.4       8.2       3.1
 7 C  pz              5.9       0.1       0.4       1.6       1.5       0.6
 7 C  px              0.8       0.1       0.0       0.4       1.6       1.4
 7 C  py              0.2       0.0       0.0       0.0       0.0       0.0
 7 C  dz2             0.0       0.0       0.0       0.2       0.3       0.4
 7 C  dxz             0.0       0.0       0.0       0.0       0.0       0.2
 7 C  dx2y2           0.0       0.0       0.0       0.0       0.0       0.1
 8 H  s               0.0       0.1       0.0       3.3       4.6       1.9
 9 H  s               0.0       0.8       0.1       0.8       0.3       0.0
10 H  s               0.0       0.2       0.3       3.1       5.1       3.6
11 H  s               0.0       1.0       0.4       8.0       8.9       1.2
12 H  s               0.0       0.3       0.5       6.0       0.8      11.7
13 H  s               0.0       0.1       5.6       5.3       3.2      16.7
14 H  s               0.0       1.2       0.4       9.2       4.3       0.3
15 H  s               1.5       0.1       0.2       5.9      10.3       8.3
16 H  s               1.4       0.3       0.2       3.5       3.1       1.3
17 H  s               0.1       0.0       0.1       5.3       7.3       2.8
18 H  s               0.7       0.1       0.3       6.6      11.7       1.0
19 H  s               0.2       0.1       0.1       4.7       2.5       8.9

                     36        37        38        39        40        41   
                   0.08422   0.08848   0.09123   0.09942   0.10853   0.12161
                   0.00000   0.00000   0.00000   0.00000   0.00000   0.00000
                  --------  --------  --------  --------  --------  --------
 0 C  s               0.7       0.0      16.1       0.7       0.0       2.7
 0 C  pz              0.6       3.6       0.1       0.0       0.0       7.3
 0 C  px              0.0       0.1       1.9       0.0       0.5       0.0
 0 C  py              0.5       0.0       0.6       0.2       0.7       0.7
 0 C  dxz             0.0       0.2       0.0       0.0       0.0       0.6
 0 C  dx2y2           0.1       0.0       0.0       0.1       0.1       0.1
 0 C  dxy             0.1       0.0       0.0       0.0       0.1       0.1
 1 C  s               0.1       1.3       0.1       0.5       0.0       6.7
 1 C  pz              1.7       3.9       0.2       1.7       0.7       1.2
 1 C  px              1.0       0.4       0.7       0.7       2.2       1.8
 1 C  py              1.1       0.0       0.7       1.0       1.7       1.0
 1 C  dz2             0.0       0.5       0.1       0.1       0.0       0.1
 1 C  dxz             0.2       0.1       0.2       0.1       0.1       0.1
 1 C  dyz             0.2       0.0       0.2       0.0       0.0       0.6
 1 C  dx2y2           0.0       0.0       0.1       0.0       0.0       0.1
 1 C  dxy             0.2       0.0       0.1       0.0       0.2       0.0
 2 C  s               0.0       0.2       7.3       0.5       0.2       1.3
 2 C  pz              0.5       3.4       0.1       0.1       0.8       0.0
 2 C  px              0.0       1.2       0.3       0.2       0.0       0.5
 2 C  py              5.6       0.1       2.1       0.2       0.2       5.3
 2 C  dz2             0.0       0.3       0.0       0.0       0.0       0.0
 2 C  dyz             0.0       0.0       0.0       0.0       0.1       0.1
 2 C  dx2y2           0.7       0.1       0.0       0.5       0.0       0.2
 2 C  dxy             0.2       0.0       0.0       0.0       0.0       0.5
 3 C  s               3.0       0.3       0.7       0.0       0.6       0.5
 3 C  pz              0.5       0.1       0.0       0.2       0.2       1.1
 3 C  px              0.4       0.1       0.3       0.6       0.1       0.1
 3 C  py              0.5       0.2       0.0       1.1       0.3       0.3
 3 C  dz2             0.8       0.1       0.4       0.0       0.2       0.1
 3 C  dyz             0.0       0.0       0.1       0.0       0.1       0.0
 3 C  dx2y2           0.5       0.1       0.0       0.6       0.1       0.2
 3 C  dxy             0.0       0.0       0.1       0.1       0.0       0.0
 4 O  s               0.5       0.0       0.0       0.2       0.4       0.1
 4 O  pz              0.1       0.0       0.0       0.1       0.2       0.0
 4 O  px              0.3       0.1       0.1       0.0       0.0       0.0
 4 O  py              0.1       0.0       0.3       0.0       0.0       0.1
 5 O  s               1.3       2.5       0.8       2.9       0.2       0.0
 5 O  pz              0.0       0.0       0.0       0.0       0.4       0.1
 5 O  px              0.0       1.9       0.1       1.2       1.7       0.0
 5 O  py              0.8       0.9       0.0       1.2       0.1       0.5
 5 O  dz2             0.1       0.0       0.0       0.1       0.0       0.0
 5 O  dx2y2           0.3       0.1       0.0       0.1       0.1       0.0
 5 O  dxy             0.1       0.1       0.0       0.2       0.1       0.0
 6 C  s               0.6       0.3       1.3      10.7       3.9       0.0
 6 C  pz              0.5       0.4       0.6       0.4       0.3       0.1
 6 C  px              0.4      12.2       0.3       6.1       0.1       0.7
 6 C  py              8.5       1.0       0.7       3.1       0.5       0.3
 6 C  dz2             0.0       1.0       0.0       0.2       0.1       0.0
 6 C  dxz             0.1       0.0       0.0       0.1       0.2       0.0
 6 C  dyz             0.7       0.0       0.0       0.4       0.2       0.1
 6 C  dx2y2           0.4       0.4       0.0       0.2       0.1       0.1
 6 C  dxy             0.0       0.7       0.0       0.3       0.0       0.0
 7 C  s               0.3       5.0       0.1       2.1       2.1       0.0
 7 C  pz              0.2       0.5       0.1       0.4       0.9       0.0
 7 C  px              0.1       0.7       0.3       0.1       9.9       0.0
 7 C  py              3.9       0.7       0.1       4.1       3.5       0.9
 7 C  dz2             0.0       0.4       0.0       0.0       0.0       0.0
 7 C  dxz             0.0       0.1       0.0       0.6       0.1       0.1
 7 C  dyz             0.6       0.0       0.1       0.2       0.0       0.0
 7 C  dx2y2           0.1       0.3       0.0       0.0       0.5       0.0
 7 C  dxy             0.0       0.1       0.0       0.0       0.4       0.0
 8 H  s               0.1       2.2      16.0       1.1       0.2      18.0
 9 H  s               2.1       0.0       5.0       0.8       2.1       2.5
10 H  s               1.4       7.0      14.6       0.3       0.4       3.3
11 H  s               5.8       0.1       0.0       6.0       7.0      16.8
12 H  s               4.2      14.0       0.5       2.6       4.3       5.1
13 H  s               2.9       9.2       3.7       1.1       2.1       0.3
14 H  s               9.0       0.4      15.8       0.3       0.0      13.8
15 H  s              14.9       5.4       5.0       0.6       6.2       0.8
16 H  s               7.6       0.7       0.1      26.6       1.1       0.5
17 H  s               4.4       9.1       0.1      14.1       2.9       1.1
18 H  s               1.5       1.4       0.1       0.9      37.4       0.6
19 H  s               6.9       4.3       1.5       1.2       0.6       0.5

                     42        43        44        45        46        47   
                   0.12834   0.13283   0.13841   0.15457   0.17892   0.18160
                   0.00000   0.00000   0.00000   0.00000   0.00000   0.00000
                  --------  --------  --------  --------  --------  --------
 0 C  s               0.5       1.4       1.0       0.3       0.9       0.3
 0 C  pz              0.2       4.4       5.2       1.5       0.4       0.1
 0 C  px              0.2       2.1       3.9      13.2       2.2       1.2
 0 C  py              0.9       0.9       0.3       6.3       5.6       1.9
 0 C  dz2             0.0       0.1       0.1       1.0       0.7       0.4
 0 C  dxz             0.0       0.5       0.3       0.0       0.2       0.0
 0 C  dx2y2           0.0       0.1       0.2       0.1       0.1       0.1
 0 C  dxy             0.3       0.0       0.1       0.5       1.5       0.4
 1 C  s               1.4       1.3       0.0       0.1       7.7       1.9
 1 C  pz              0.7       0.3       0.1       0.4       9.2       5.9
 1 C  px              1.4       0.1       3.3       2.6       3.5       0.5
 1 C  py              1.8       0.9       0.1       1.2       3.0       0.9
 1 C  dz2             0.0       0.0       0.2       0.3       0.0       0.0
 1 C  dxz             0.0       0.1       0.1       0.0       1.9       1.0
 1 C  dyz             0.0       0.3       0.3       0.0       0.1       0.0
 1 C  dx2y2           0.0       0.1       0.2       0.7       0.0       0.0
 1 C  dxy             0.4       0.2       0.0       0.0       1.8       0.6
 2 C  s               0.0       0.1       0.1       0.2       3.1       2.2
 2 C  pz              2.5       1.2       0.5       0.4       6.3       1.7
 2 C  px              0.7       0.9       2.3       1.7       2.6       1.7
 2 C  py              0.2       2.0       3.2       0.2       2.4       1.1
 2 C  dz2             0.0       0.1       0.4       0.6       0.0       0.0
 2 C  dxz             0.0       0.0       0.1       0.0       1.3       0.3
 2 C  dyz             0.3       0.1       0.0       0.1       1.5       0.5
 2 C  dx2y2           0.0       0.0       0.0       0.1       0.6       0.3
 3 C  s               0.4       0.1       0.5       0.7       3.5       1.6
 3 C  pz              0.6       0.6       0.0       0.0       0.3       0.5
 3 C  px              0.5       0.3       0.1       1.4       0.8       0.2
 3 C  py              0.7       0.3       0.0       0.6       0.3       0.4
[...]
 2 C  py              0.1       0.1       0.0       0.0       0.1       0.0
 2 C  dz2             0.3       1.3       0.1       0.2       0.0       0.2
 2 C  dxz            10.8       0.3       0.2       0.0       1.2       0.0
 2 C  dyz             2.6       0.0       0.1       0.2       0.4       0.0
 2 C  dx2y2           1.2       0.0       0.0       0.9       2.3       1.0
 2 C  dxy             4.9       0.5       0.0       0.5       0.9       0.2
 3 C  s               0.3       0.0       0.0       0.0       0.2       1.2
 3 C  pz              0.0       0.0       0.0       1.0       0.2       0.1
 3 C  px              0.4       0.3       0.0       0.1       0.3       1.6
 3 C  py              0.1       0.3       0.0       0.0       0.3       1.5
 3 C  dz2             0.0       2.5       0.1       0.3       0.2       2.5
 3 C  dxz             0.0       0.0       2.1       7.1       4.3       0.1
 3 C  dyz             0.0       0.2       0.3       0.0       0.3       0.0
 3 C  dx2y2           0.1       0.1       0.0       3.6       8.2       0.0
 3 C  dxy             0.3       0.0       0.1       1.0       0.2       3.0
 4 O  s               0.0       0.0       0.0       0.4       1.1       0.3
 4 O  pz              0.0       0.0       0.0       0.2       0.1       0.0
 4 O  px              0.0       0.0       0.0       0.1       0.2       0.4
 4 O  py              0.0       0.0       0.0       0.2       0.4       0.4
 4 O  dz2             1.2      54.0       0.0       5.8       1.7       0.2
 4 O  dxz             1.9       0.1       4.1       7.8       1.1       0.8
 4 O  dyz             0.8       2.2       3.5       9.7       5.6       0.6
 4 O  dx2y2           0.8      23.2       0.5       0.1       0.5       1.0
 4 O  dxy             0.2       0.3       0.1       1.0       9.3      22.8
 5 O  s               0.0       0.1       0.0       0.1       0.4       7.6
 5 O  pz              0.0       0.0       1.1       0.4       0.0       0.0
 5 O  px              0.0       0.1       0.0       0.4       1.1       0.1
 5 O  py              0.0       0.5       0.1       0.2       0.9       1.0
 5 O  dz2             0.7       3.7       4.6       0.8      23.4      32.7
 5 O  dxz             0.0       0.0      19.7      23.1      11.9       1.3
 5 O  dyz             0.0       2.1      38.6      21.6       0.0       2.2
 5 O  dx2y2           2.4       2.2       2.4       2.1      12.7       9.4
 5 O  dxy             0.1       0.0       0.8       6.3       2.8       1.9
 6 C  s               0.0       0.4       0.1       0.2       0.3       0.5
 6 C  pz              0.0       0.2       0.3       0.0       0.0       0.0
 6 C  px              0.0       0.3       0.1       0.1       0.7       0.6
 6 C  py              0.0       0.1       0.0       0.0       0.0       0.2
 6 C  dz2             0.0       0.4       0.3       0.1       1.7       1.2
 6 C  dxz             0.1       0.5      13.5       0.3       0.5       0.1
 6 C  dyz             0.0       0.1       1.3       0.8       0.4       0.0
 6 C  dx2y2           0.1       0.4       0.3       1.8       2.5       0.2
 6 C  dxy             0.2       0.6       0.3       0.1       0.0       2.0
 7 C  s               0.0       0.2       0.1       0.0       0.0       0.0
 7 C  pz              0.0       0.1       0.3       0.0       0.1       0.0
 7 C  dz2             0.1       0.1       3.5       0.1       0.2       0.0
 7 C  dxz             0.0       0.3       0.1       0.1       0.2       0.1
 7 C  dyz             0.0       0.0       0.1       0.1       0.1       0.1
 7 C  dx2y2           0.0       0.0       0.3       0.0       0.0       0.0
 7 C  dxy             0.0       0.0       0.2       0.1       0.0       0.0
 8 H  s               0.3       0.0       0.0       0.0       0.0       0.0
13 H  s               0.2       0.1       0.0       0.0       0.0       0.0
15 H  s               0.0       0.1       0.0       0.0       0.0       0.0
16 H  s               0.0       0.1       0.0       0.1       0.0       0.0
18 H  s               0.0       0.0       0.2       0.0       0.0       0.0

                    132       133       134       135   
                   3.11727   3.32243   3.49865   3.55592
                   0.00000   0.00000   0.00000   0.00000
                  --------  --------  --------  --------
 2 C  s               0.0       0.2       0.2       0.0
 2 C  px              0.0       0.0       0.4       0.0
 2 C  dz2             0.0       0.0       0.3       0.0
 2 C  dxz             0.9       0.1       0.0       0.1
 2 C  dx2y2           0.1       0.2       1.2       0.2
 2 C  dxy             0.0       0.5       0.4       0.3
 3 C  s               0.0       3.7       0.4       5.9
 3 C  pz              0.3       0.0       0.1       0.2
 3 C  px              0.0       1.5       0.9       0.0
 3 C  py              0.1       0.2       1.7       5.0
 3 C  dz2             1.9       0.5       0.2       1.0
 3 C  dxz             0.4       0.0       1.0       0.0
 3 C  dyz            17.1       0.1       0.1       1.1
 3 C  dx2y2           0.7       4.8       0.1       8.1
 3 C  dxy             0.2       1.0      21.6       0.9
 4 O  s               0.0       1.7       0.5       4.8
 4 O  pz              0.9       0.0       0.0       0.1
 4 O  px              0.0       0.2       0.8       0.1
 4 O  py              0.0       0.7       0.3       3.5
 4 O  dz2             6.0       3.1       0.4      10.2
 4 O  dxz             1.0       0.2       0.7       0.2
 4 O  dyz            48.5       1.9       0.6       4.9
 4 O  dx2y2           1.7       7.2       4.2      36.6
 4 O  dxy             0.4       5.4      21.0       4.2
 5 O  s               0.1       0.1       0.9       0.2
 5 O  px              0.0       2.6       3.3       0.0
 5 O  py              0.0       0.2       0.3       0.1
 5 O  dz2             1.0       0.6       2.7       1.0
 5 O  dxz            14.9       1.1       1.7       0.0
 5 O  dyz             0.2       0.7       0.1       0.1
 5 O  dx2y2           0.1      19.5       6.1       9.2
 5 O  dxy             1.4      32.4      26.2       0.5
 6 C  s               0.0       0.8       0.2       0.1
 6 C  px              0.0       1.4       0.3       0.1
 6 C  py              0.0       0.4       0.0       0.1
 6 C  dz2             0.1       1.5       0.0       0.2
 6 C  dxz             0.7       0.0       0.0       0.0
 6 C  dyz             0.4       0.0       0.0       0.0
 6 C  dx2y2           0.1       1.4       1.0       0.0
 6 C  dxy             0.1       3.1       0.0       0.6
 7 C  dz2             0.2       0.0       0.0       0.0
 7 C  dxz             0.0       0.1       0.0       0.0


                      *****************************
                      * MAYER POPULATION ANALYSIS *
                      *****************************

  NA   - Mulliken gross atomic population
  ZA   - Total nuclear charge
  QA   - Mulliken gross atomic charge
  VA   - Mayer's total valence
  BVA  - Mayer's bonded valence
  FA   - Mayer's free valence

  ATOM       NA         ZA         QA         VA         BVA        FA
  0 C      6.2936     6.0000    -0.2936     4.0029     4.0029    -0.0000
  1 C      6.1835     6.0000    -0.1835     4.1540     4.1540    -0.0000
  2 C      6.1480     6.0000    -0.1480     3.9329     3.9329    -0.0000
  3 C      5.8921     6.0000     0.1079     4.3810     4.3810    -0.0000
  4 O      8.2046     8.0000    -0.2046     2.2879     2.2879     0.0000
  5 O      8.2376     8.0000    -0.2376     2.2730     2.2730     0.0000
  6 C      6.0144     6.0000    -0.0144     4.0504     4.0504    -0.0000
  7 C      6.3028     6.0000    -0.3028     4.0151     4.0151    -0.0000
  8 H      0.9008     1.0000     0.0992     0.9493     0.9493    -0.0000
  9 H      0.8698     1.0000     0.1302     0.9900     0.9900     0.0000
 10 H      0.9088     1.0000     0.0912     0.9563     0.9563    -0.0000
 11 H      0.9104     1.0000     0.0896     0.9420     0.9420     0.0000
 12 H      0.9051     1.0000     0.0949     0.9450     0.9450     0.0000
 13 H      0.8864     1.0000     0.1136     0.9579     0.9579    -0.0000
 14 H      0.9008     1.0000     0.0992     0.9708     0.9708    -0.0000
 15 H      0.8986     1.0000     0.1014     0.9501     0.9501    -0.0000
 16 H      0.8929     1.0000     0.1071     0.9784     0.9784    -0.0000
 17 H      0.8873     1.0000     0.1127     0.9571     0.9571     0.0000
 18 H      0.8881     1.0000     0.1119     0.9549     0.9549     0.0000
 19 H      0.8747     1.0000     0.1253     0.9667     0.9667    -0.0000

  Mayer bond orders larger than 0.100000
B(  0-C ,  1-C ) :   1.1480 B(  0-C ,  8-H ) :   0.9501 B(  0-C ,  9-H ) :   0.9422 
B(  0-C , 10-H ) :   0.9536 B(  1-C ,  2-C ) :   1.0987 B(  1-C , 11-H ) :   0.9291 
B(  1-C , 12-H ) :   0.9325 B(  2-C ,  3-C ) :   1.0259 B(  2-C , 13-H ) :   0.8912 
B(  2-C , 14-H ) :   0.9090 B(  3-C ,  4-O ) :   2.0202 B(  3-C ,  5-O ) :   1.2193 
B(  5-O ,  6-C ) :   0.9229 B(  6-C ,  7-C ) :   1.1728 B(  6-C , 15-H ) :   0.9372 
B(  6-C , 16-H ) :   0.9127 B(  7-C , 17-H ) :   0.9492 B(  7-C , 18-H ) :   0.9446 
B(  7-C , 19-H ) :   0.9471 

-------
TIMINGS
-------

Total SCF time: 0 days 0 hours 0 min 9 sec 

Total time                  ....       9.348 sec
Sum of individual times     ....       8.603 sec  ( 92.0%)

SCF preparation             ....       0.173 sec  (  1.9%)
Fock matrix formation       ....       7.419 sec  ( 79.4%)
  Startup                   ....       0.070 sec  (  0.9% of F)
  Split-RI-J                ....       2.422 sec  ( 32.6% of F)
  XC integration            ....       4.351 sec  ( 58.6% of F)
    Basis function eval.    ....       1.380 sec  ( 31.7% of XC)
    Density eval.           ....       0.475 sec  ( 10.9% of XC)
    XC-Functional eval.     ....       0.366 sec  (  8.4% of XC)
    XC-Potential eval.      ....       0.747 sec  ( 17.2% of XC)
Diagonalization             ....       0.000 sec  (  0.0%)
Density matrix formation    ....       0.204 sec  (  2.2%)
Total Energy calculation    ....       0.041 sec  (  0.4%)
Population analysis         ....       0.085 sec  (  0.9%)
Orbital Transformation      ....       0.056 sec  (  0.6%)
Orbital Orthonormalization  ....       0.000 sec  (  0.0%)
DIIS solution               ....       0.414 sec  (  4.4%)
  MO trafo                  ....       0.000 sec  (  0.0 % of DIIS)
  Orb grad                  ....       0.000 sec  (  0.0 % of DIIS)
  Energy W gradient         ....       0.000 sec  (  0.0 % of DIIS)
  DIIS error                ....       0.005 sec  (  1.3 % of DIIS)
  DIIS work                 ....       0.365 sec  ( 88.0 % of DIIS)
  Form Q                    ....       0.000 sec  (  0.0 % of DIIS)
  Form QpQm                 ....       0.000 sec  (  0.0 % of DIIS)
  Exp/Cayley                ....       0.000 sec  (  0.0 % of DIIS)
  Orb update                ....       0.000 sec  (  0.0 % of DIIS)
  Wake-sleep                ....       0.017 sec  (  4.1 % of DIIS)
SOSCF solution              ....       0.212 sec  (  2.3%)
  MO trafo                  ....       0.068 sec  ( 31.9 % of SOSCF)
  Orb grad                  ....       0.003 sec  (  1.6 % of SOSCF)
  Rot update                ....       0.092 sec  ( 43.4 % of SOSCF)
  Step                      ....       0.049 sec  ( 23.0 % of SOSCF)
Finished LeanSCF after   9.5 sec

Maximum memory used throughout the entire LEANSCF-calculation: 12.8 MB


-------------------------------------------------------------------------------
                          DFT DISPERSION CORRECTION                            
                                                                               
                                DFTD4 V3.4.0                                   
-------------------------------------------------------------------------------
The PBE functional is recognized
Active option DFTDOPT                   ...         5   

-------------------------   ----------------
Dispersion correction           -0.015086866
-------------------------   ----------------

------------------   -----------------
gCP correction             0.090526181
------------------   -----------------

-------------------------   --------------------
FINAL SINGLE POINT ENERGY      -385.457455873977
-------------------------   --------------------


------------------------------------------------------------------------------
                              ORCA PROPERTY CALCULATIONS
------------------------------------------------------------------------------

GBWName                                 ... sp.gbw
Number of atoms                         ...     20
Number of basis functions               ...    136
Max core memory                         ...   1024 MB

Electric properties:
Dipole moment                           ... YES
Quadrupole moment                       ...  NO
Static polarizability (Dipole/Dipole)   ...  NO
Static polarizability (Dipole/Quad.)    ...  NO
Static polarizability (Quad./Quad.)     ...  NO
Static polarizability (Velocity)        ...  NO

Atomic electric properties:
Dipole moment                           ...  NO
Quadrupole moment                       ...  NO
Static polarizability                   ...  NO

Choice of electric origin               ... Center of mass
Position of electric origin             ...    -0.000012     0.000004    -0.000009

General magnetic properties:
Magnetizability                         ...  NO

EPR properties:
g-Tensor (aka g-matrix)                 ...  NO
Zero-Field splitting spin-orbit         ...  NO
Zero-field splitting spin-spin          ...  NO
Hyperfine couplings                     ...  NO (   0 nuclei)
Quadrupole couplings                    ...  NO (   0 nuclei)
Contact density                         ...  NO (   0 nuclei)

NMR properties:
Chemical shifts                         ...  NO (   0 nuclei)
Spin-rotation constants                 ...  NO (   0 nuclei)
Spin-spin couplings                     ...  NO (   0 nuclei,    0 pairs)

Choice of magnetic origin               ... GIAO
Position of magnetic origin             ...     0.000000     0.000000     0.000000

Properties with geometric perturbations:
SCF Hessian                             ...  NO
IR spectrum                             ...  NO
VCD spectrum                            ...  NO
X-ray spectroscopy properties:
SCF XES/XAS/RIXS spectra                ...  NO


-------------
DIPOLE MOMENT
-------------

Method             : SCF
Type of density    : Electron Density
Multiplicity       :   1
Irrep              :   0
Energy             :  -385.5328951891739848 Eh
Relativity type    : 
Basis              : AO
                                X                 Y                 Z
Electronic contribution:      2.849987777       0.046144697       2.789460966
Nuclear contribution   :     -2.516135680       0.545111368      -2.726426999
                        -----------------------------------------
Total Dipole Moment    :      0.333852097       0.591256065       0.063033967
                        -----------------------------------------
Magnitude (a.u.)       :      0.681919524
Magnitude (Debye)      :      1.733301683



--------------------
Rotational spectrum 
--------------------
 
Rotational constants in cm-1:             0.162143             0.032870             0.031227 
Rotational constants in MHz :          4860.916736           985.427816           936.147413 

Dipole components along the rotational axes: 
x,y,z [a.u.] :     0.384841     0.549431    -0.122628 
x,y,z [Debye]:     0.978187     1.396543    -0.311695 

 

Dipole moment calculation done in   0.0 sec 

Maximum memory used throughout the entire PROP-calculation: 8.0 MB

--------------------------------
SUGGESTED CITATIONS FOR THIS RUN
--------------------------------

Below you find a list of papers that are relevant to this ORCA run
We neither can nor want to force you to cite these papers, but we appreciate if you do
You receive ORCA, which is the product of decades of hard work by many enthusiastic individuals, for free
The only thing we kindly ask in return is that you cite our papers,
We deeply appreciate it, if you show your appreciation for ORCA by not just citing the generic ORCA reference.

Please note that relegating all ORCA citations to the supporting information does *not* help us.
SI sections are not indexed - citations you put there will not count into any citation statistics
But we need these citations in order to attract the funding resources that allow us to do what we are doing

Therefore, if you are a happy ORCA user, please consider citing a few of the papers listed below in the main body of your paper

In addition to the list printed below, the program has created the file sp.bibtex that contains the list in bibtex format
You can import this file easily into all common literature databanks and citation aid programs


List of essential papers. We consider these as the minimum necessary citations

  1. Neese,F.
     Software update: the ORCA program system, version 5.0
     WIRES Comput. Molec. Sci., 2022 12(1)e1606
     doi.org/10.1002/wcms.1606

List of papers to cite with high priority. The work reported in these papers was absolutely
necessary for this run to complete.
Our perspective: the developers of density functionals and basis sets usually get cited in chemistry papers
Good! But without the algorithms to do something with them, the functionals or basis sets would not do anything.
Hence, in our opinion, the algorithm design and method developments papers are equally worthy of getting cited

  1. Neese,F.
     An improvement of the resolution of the identity approximation for the formation of the Coulomb matrix
     J. Comp. Chem., 2003 24(14)1740-1747
     doi.org/10.1002/jcc.10318
  2. Neese,F.
     The SHARK Integral Generation and Digestion System
     J. Comp. Chem., 2022  1-16
     doi.org/10.1002/jcc.26942
  3. Caldeweyher,E.; Bannwarth,C.; Grimme,S.
     Extension of the D3 dispersion coefficient model
     J. Chem. Phys., 2017 147 034112-XXXX
     doi.org/10.1063/1.4993215
  4. Caldeweyher,E.; Ehlert,S.; Hansen,A.; Neugebauer,H.; Spicher,S.; Bannwarth,C.; Grimme,S.
     A generally applicable atomic-charge dependent London dispersion correction
     J. Chem. Phys., 2019 150 154122-XXXX
     doi.org/10.1063/1.5090222
  5. Caldeweyher,E.; Mewes,J.; Ehlert,S.; Grimme,S.
     Extension and evaluation of the D4 London-dispersion model for periodic systems
     Phys. Chem. Chem. Phys., 2020 22(16)8499-8512
     doi.org/10.1039/D0CP00502A

List of suggested additional citations. These are papers that are important in the 'surrounding' of 
of this run, or papers that preceded the highly important papers. If you like your results we are grateful for a citation.

  1. Neese,F.
     The ORCA program system
     WIRES Comput. Molec. Sci., 2012 2(1)73-78
     doi.org/10.1002/wcms.81
  2. Neese,F.
     Software update: the ORCA program system, version 4.0
     WIRES Comput. Molec. Sci., 2018 8(1)1-6
     doi.org/10.1002/wcms.1327
  3. Neese,F.; Wennmohs,F.; Becker,U.; Riplinger,C.
     The ORCA quantum chemistry program package
     J. Chem. Phys., 2020 152 Art. No. L224108
     doi.org/10.1063/5.0004608

List of optional additional citations

  1. Neese,F.
     Approximate second-order SCF convergence for spin unrestricted wavefunctions
     Chem. Phys. Lett., 2000 325(1-3)93-98
     doi.org/10.1016/s0009-2614(00)00662-x

Timings for individual modules:

Sum of individual times          ...       11.232 sec (=   0.187 min)
Startup calculation              ...        0.761 sec (=   0.013 min)   6.8 %
SCF iterations                   ...       10.365 sec (=   0.173 min)  92.3 %
Property calculations            ...        0.106 sec (=   0.002 min)   0.9 %
                             ****ORCA TERMINATED NORMALLY****
TOTAL RUN TIME: 0 days 0 hours 0 minutes 11 seconds 988 msec
