20
 energy: -27.120917105516 gnorm: 0.035780293273 xtb: 6.7.1 (edcfbbe)
C           -3.37980643789439       -1.06061600596463        0.27879762594051
C           -1.99693741648925       -0.49522138170942        0.58346728289652
C           -1.34137546346746        0.08737159808862       -0.68191202696884
C            0.00260907765528        0.67313336248390       -0.36462500179071
O            0.22926927377291        1.86419402786310       -0.21210284669430
O            0.94441946694485       -0.27722484357989       -0.22143670166835
C            2.27816487540213        0.18347307379843        0.16694362673644
C            3.14418979043423       -1.03913519501742        0.33585229214397
H           -4.04416205212364       -0.28301824166018       -0.11279439655668
H           -3.31883353545937       -1.85986922066342       -0.46752464942890
H           -3.83933795159404       -1.47456893849933        1.18153371934696
H           -1.35271815839247       -1.28022864587952        0.99407463963341
H           -2.07189571059258        0.29255396510320        1.34223711563889
H           -1.96649452401758        0.88358178845839       -1.09409718621822
H           -1.22860492351891       -0.70180583737650       -1.43228831864489
H            2.65374627662284        0.84577017930737       -0.61897063820606
H            2.18752477484967        0.75198298379523        1.09718229706288
H            4.14854724818813       -0.72198627430847        0.63106144322197
H            2.74906805908667       -1.69736155799243        1.11506015241171
H            3.22258664605458       -1.60053121647119       -0.59952288736131
20
 energy: -27.122015876328 gnorm: 0.013635301027 xtb: 6.7.1 (edcfbbe)
C           -3.37355323529862       -1.05883823853495        0.27592701209072
C           -1.99406566274096       -0.49335033115225        0.58107655809444
C           -1.34187099896582        0.08641793778251       -0.68357298148201
C            0.00083146688167        0.67077191648805       -0.35169433993012
O            0.22761176931715        1.85504463889214       -0.20604422516480
O            0.93883058591892       -0.26745253797044       -0.21163581930254
C            2.26827834926283        0.17674230717113        0.16527031410329
C            3.14796916572895       -1.04075871361705        0.33678767761792
H           -4.03116707630839       -0.28214884305962       -0.11191738770314
H           -3.30800501647006       -1.85434887433646       -0.46486121783201
H           -3.82290833625326       -1.46731162055509        1.17924384669437
H           -1.35083640543088       -1.27851689455231        0.98524511157391
H           -2.07547550761011        0.29524871983234        1.33420312860924
H           -1.96870443018915        0.87944909430670       -1.09483834162221
H           -1.21721876816918       -0.70629302222731       -1.42334706502132
H            2.63648401107692        0.84119197996308       -0.62134687949856
H            2.17825334197557        0.75135644673562        1.09115191164925
H            4.14813757460304       -0.72504871120218        0.62760926287739
H            2.74634178089456       -1.69337789426366        1.10860532996721
H            3.21102670723843       -1.59828373992443       -0.59492635422601
20
 energy: -27.122207558833 gnorm: 0.004736528990 xtb: 6.7.1 (edcfbbe)
C           -3.36907647643163       -1.05942834885339        0.27604518162398
C           -1.98899767287018       -0.49299673377095        0.57967009942212
C           -1.33848024848562        0.08441747893630       -0.68593026792476
C            0.00484901728882        0.67126132552484       -0.35279800364423
O            0.22773699238171        1.85384509489022       -0.19716182943321
O            0.93640593984859       -0.26138238012304       -0.20635446079287
C            2.25894258121346        0.17598870888985        0.16637972377892
C            3.14137035470001       -1.04356217416607        0.33601787148686
H           -4.02275235479386       -0.28277848449631       -0.11105381620949
H           -3.30101210220877       -1.85303265502221       -0.46242703468382
H           -3.81417379526765       -1.46500230621504        1.17982978754290
H           -1.34595416179856       -1.27736835765815        0.98146519771252
H           -2.07223673106650        0.29649865913988        1.32949171199626
H           -1.96597012113591        0.87528018811499       -1.09666305414963
H           -1.20750733492432       -0.70974646828607       -1.42011795388424
H            2.62879691258186        0.84057371626339       -0.62020315421426
H            2.17596982612956        0.75437059464128        1.09156598952504
H            4.13828949887783       -0.72589783660572        0.62283802476897
H            2.73747342596740       -1.69295370638589        1.10601587887661
H            3.19628576545537       -1.59759269504205       -0.59567435030265
20
 energy: -27.122237224213 gnorm: 0.001731460200 xtb: 6.7.1 (edcfbbe)
C           -3.36696846002548       -1.06041229003988        0.27615332219589
C           -1.98661403107909       -0.49211469051761        0.57917973985920
C           -1.33693453939552        0.08330939332449       -0.68786246900110
C            0.00451541984144        0.67271189499253       -0.34770548668490
O            0.22509525146598        1.85719426360832       -0.19426571013325
O            0.93569174878236       -0.25809449210797       -0.20331034293162
C            2.25611553846724        0.17731672011394        0.16670729358530
C            3.13650371922401       -1.04523554550633        0.33467447633367
H           -4.02072498491445       -0.28419854388317       -0.11191106123891
H           -3.29780585415603       -1.85491760705076       -0.46138040091894
H           -3.81111105054106       -1.46491390257960        1.18094919469827
H           -1.34308605406605       -1.27532260577941        0.98231048837755
H           -2.07010475723736        0.29865516696134        1.32747808432062
H           -1.96438488939664        0.87191333973986       -1.10234468236103
H           -1.20101852599012       -0.71262823940322       -1.41909333249356
H            2.62892230106746        0.84236958664879       -0.61890729048299
H            2.17893972050502        0.75569519132764        1.09309480811768
H            4.13406097873237       -0.72896850615030        0.61945446632604
H            2.73164350078524       -1.69329868480255        1.10552201093598
H            3.18722428339229       -1.59856682912026       -0.59780756700891
20
 energy: -27.122249321054 gnorm: 0.002031893673 xtb: 6.7.1 (edcfbbe)
C           -3.36418484376996       -1.06253927275064        0.27739862257897
C           -1.98407790927180       -0.49064290302831        0.57833133797554
C           -1.33513519053829        0.08310748915573       -0.69017056240420
C            0.00449783203526        0.67731408689521       -0.34914239364209
O            0.21921994174023        1.86344430308030       -0.19060198483738
O            0.93596972490851       -0.25216778306498       -0.20269144415508
C            2.25475353430615        0.17974365920197        0.16879967845940
C            3.13043973074091       -1.04758693849723        0.33329062461856
H           -4.01983612187431       -0.28803493410018       -0.11258689041410
H           -3.29356616278367       -1.85883785682451       -0.45902451292702
H           -3.80787413696768       -1.46640438732292        1.18335964075468
H           -1.33907865875659       -1.27190597342077        0.98368295852160
H           -2.06804725254164        0.30182506758477        1.32512310532260
H           -1.96456942800512        0.86770649590592       -1.10900492665735
H           -1.19440900038807       -0.71468359654316       -1.41865037983535
H            2.63250528007360        0.84559266873705       -0.61454813540838
H            2.18292875953289        0.75651765560492        1.09717417407220
H            4.13083815152755       -0.73693394339992        0.61581333551875
H            2.72397072015543       -1.69475243591902        1.10488750812991
H            3.17561434533820       -1.60026778151839       -0.60050421417628
20
 energy: -27.122253543127 gnorm: 0.001258311385 xtb: 6.7.1 (edcfbbe)
C           -3.36325569020614       -1.06316744985913        0.27757880402045
C           -1.98403542795199       -0.48971079343986        0.57816118964551
C           -1.33489323416780        0.08324613600284       -0.69053731037768
C            0.00385081562430        0.67875783340779       -0.34882991157132
O            0.21763598639697        1.86473786429240       -0.19037071395924
O            0.93629364259597       -0.25042822247407       -0.20341129090331
C            2.25549101776164        0.18044091884079        0.16941556662680
C            3.12934934721901       -1.04813674117935        0.33280182638311
H           -4.02002716436858       -0.28996309284298       -0.11314772510971
H           -3.29197372994877       -1.86020177567148       -0.45803536584287
H           -3.80666382005716       -1.46674735121754        1.18382363833890
H           -1.33841449217304       -1.27004060838200        0.98449372575479
H           -2.06879449526903        0.30340334840722        1.32428490039409
H           -1.96499673480207        0.86663591278618       -1.11075723627242
H           -1.19313057174129       -0.71526813560363       -1.41816639919306
H            2.63402594504844        0.84690389894035       -0.61293466576312
H            2.18307996305475        0.75575327749493        1.09850163823854
H            4.13072149702089       -0.73987712412120        0.61486257146431
H            2.72255138530592       -1.69518704776077        1.10434790942656
H            3.17314507611959       -1.60065722784464       -0.60114560980535
20
 energy: -27.122258439234 gnorm: 0.000972730843 xtb: 6.7.1 (edcfbbe)
C           -3.35985802590952       -1.06534519576770        0.27815825267044
C           -1.98343275198887       -0.48665740336503        0.57766168437669
C           -1.33401872240198        0.08369175116424       -0.69194933030380
C            0.00242548619296        0.68304259339210       -0.34912284624357
O            0.21377199155477        1.86809736954614       -0.18759473631806
O            0.93688893714362       -0.24545840989689       -0.20676967646877
C            2.25683619811776        0.18208107905474        0.17131015265707
C            3.12565206750721       -1.04997701989851        0.33140705203448
H           -4.01968618483988       -0.29616212611336       -0.11491644458309
H           -3.28592925179153       -1.86445620731701       -0.45471751474724
H           -3.80196946633770       -1.46770543980609        1.18541664214750
H           -1.33580319594988       -1.26367611198427        0.98725943899296
H           -2.07119193188620        0.30876913736238        1.32103762831794
H           -1.96595312663441        0.86368631988238       -1.11585385446110
H           -1.18918167180611       -0.71704638616661       -1.41657167429491
H            2.63801682279642        0.85064169747689       -0.60757411443920
H            2.18183612674928        0.75294869782634        1.10255499077973
H            4.12955265488526       -0.74818385357716        0.61150097222269
H            2.71765481069808       -1.69621020194525        1.10279791528377
H            3.16434854936233       -1.60158667009146       -0.60309899612854
20
 energy: -27.122260177413 gnorm: 0.000451282311 xtb: 6.7.1 (edcfbbe)
C           -3.35901075989506       -1.06612110468266        0.27826052390467
C           -1.98319181411055       -0.48542369530868        0.57768139418196
C           -1.33382874785713        0.08391536499219       -0.69249811995354
C            0.00251804927890        0.68332849388696       -0.34906043018658
O            0.21385340440699        1.86830525316621       -0.18547066154776
O            0.93672457760231       -0.24526542370604       -0.20782639559782
C            2.25621413382218        0.18194039430284        0.17155321819106
C            3.12479601707567       -1.05050131517211        0.33101733643405
H           -4.01928363763832       -0.29796547629296       -0.11600535793363
H           -3.28363491509725       -1.86591006268360       -0.45369954136728
H           -3.80096030571145       -1.46789855279783        1.18585219522529
H           -1.33494782278818       -1.26117662512459        0.98858973455078
H           -2.07211639387619        0.31093898929856        1.31984445742482
H           -1.96567611041868        0.86352815324091       -1.11709272862506
H           -1.18830339469278       -0.71738792160589       -1.41621046282399
H            2.63807976142471        0.85117804220634       -0.60641291238967
H            2.18069727232357        0.75212574574699        1.10324901718041
H            4.12876863272868       -0.74878585419564        0.61041843198518
H            2.71685920887585       -1.69662746055983        1.10250401218565
H            3.16240216000837       -1.60170332493531       -0.60375816934355
20
 energy: -27.122262309542 gnorm: 0.000318126612 xtb: 6.7.1 (edcfbbe)
C           -3.35783413830773       -1.06755466134910        0.27829079125083
C           -1.98349060029990       -0.48268585252535        0.57786231689402
C           -1.33388277633613        0.08470799376516       -0.69321387382649
C            0.00269290318680        0.68321503503658       -0.34909954660618
O            0.21429772743334        1.86777283142780       -0.18075076894141
O            0.93662024390849       -0.24583426657393       -0.21070798572655
C            2.25531966240171        0.18113783016538        0.17153267175490
C            3.12431839146071       -1.05120366362072        0.33041118474612
H           -4.01925973997224       -0.30179322472245       -0.11873386531404
H           -3.27934224318427       -1.86893788215090       -0.45161184263966
H           -3.79979462871026       -1.46811587080332        1.18643244168245
H           -1.33398940581026       -1.25579499520665        0.99171609267456
H           -2.07513200270667        0.31558909503265        1.31755125469082
H           -1.96514387966771        0.86415172560489       -1.11877153018036
H           -1.18811122452263       -0.71755563258129       -1.41560821956188
H            2.63824624411015        0.85171305443998       -0.60474602999104
H            2.17806145274131        0.75007374606984        1.10393673486539
H            4.12829348124902       -0.74885954700200        0.60882165724552
H            2.71710197856662       -1.69743382854857        1.10221855825784
H            3.16098786992127       -1.60209826668213       -0.60459449977983
20
 energy: -27.122263705893 gnorm: 0.000467753097 xtb: 6.7.1 (edcfbbe)
C           -3.35692566131381       -1.06887119269163        0.27813387204675
C           -1.98431806467021       -0.47996211252371        0.57806520496515
C           -1.33383816742770        0.08524374000596       -0.69360043658357
C            0.00266483702578        0.68317864175773       -0.34825655263475
O            0.21397534310124        1.86732300126297       -0.17616473477761
O            0.93689905102791       -0.24593568267344       -0.21310512403108
C            2.25498445689289        0.18054978760861        0.17124434495584
C            3.12408289732706       -1.05184293449679        0.32967596924527
H           -4.01949498171760       -0.30567906381337       -0.12188564564338
H           -3.27544673382640       -1.87203101481848       -0.44948405202885
H           -3.79912697497990       -1.46798661979086        1.18678879669737
H           -1.33378742110877       -1.25053921468325        0.99501563129261
H           -2.07872008755180        0.32019329970204        1.31535092247047
H           -1.96440726721677        0.86445923314823       -1.12052694018304
H           -1.18780006779082       -0.71814038058653       -1.41468440982462
H            2.63890499833878        0.85215497190601       -0.60367389661362
H            2.17650725653711        0.74840469638528        1.10426002200020
H            4.12815965340136       -0.74920196300697        0.60730442153722
H            2.71754431629499       -1.69807712937410        1.10184468997666
H            3.16010193311828       -1.60274644354185       -0.60536654137202
20
 energy: -27.122265166649 gnorm: 0.000354222474 xtb: 6.7.1 (edcfbbe)
C           -3.35646110231329       -1.07003103436680        0.27770048203008
C           -1.98576065627194       -0.47732906775848        0.57851402825236
C           -1.33380304349643        0.08555035738276       -0.69344496886310
C            0.00259682163348        0.68306290986738       -0.34719863233838
O            0.21316629382376        1.86672059815580       -0.17118978221830
O            0.93751882659946       -0.24594291548369       -0.21539406804936
C            2.25525571937733        0.18002368480336        0.17056018197579
C            3.12442610794444       -1.05230259261898        0.32889842017439
H           -4.02004509195826       -0.30963960226034       -0.12596279246545
H           -3.27181300688348       -1.87530726120113       -0.44721725819088
H           -3.79948418586870       -1.46732747244102        1.18674844644735
H           -1.33446294737623       -1.24534523369323        0.99906236439231
H           -2.08320679594603        0.32483770736423        1.31321939259594
H           -1.96348712006635        0.86458795451149       -1.12202269762498
H           -1.18766177490863       -0.71898713994540       -1.41323876079633
H            2.64001930781193        0.85223439188268       -0.60342039159261
H            2.17591057991949        0.74713449458971        1.10395400970969
H            4.12861956063178       -0.74952170685487        0.60609813569968
H            2.71838821455825       -1.69855142104480        1.10132510527720
H            3.16024360825106       -1.60337303111282       -0.60605567292042
20
 energy: -27.122267027785 gnorm: 0.000173871829 xtb: 6.7.1 (edcfbbe)
C           -3.35625276476764       -1.07151841404385        0.27682127757950
C           -1.98826714119762       -0.47378871331843        0.57942482770279
C           -1.33351283178816        0.08548758866982       -0.69268311914992
C            0.00249883418468        0.68288763129699       -0.34489972232478
O            0.21166205729805        1.86595079036849       -0.16400691013809
O            0.93871918327307       -0.24566085113710       -0.21793791242544
C            2.25624948196490        0.17969361994011        0.16922533162358
C            3.12511597334277       -1.05282033282826        0.32763256126816
H           -4.02064626451957       -0.31490040080274       -0.13258109694592
H           -3.26713688182062       -1.88000906795532       -0.44401734149593
H           -3.80124626234905       -1.46578551465394        1.18624623040154
H           -1.33636446259197       -1.23844882385493        1.00523112451664
H           -2.08999652352298        0.33115558607996        1.31054419596816
H           -1.96195929038026        0.86401844337984       -1.12408445473664
H           -1.18675234368393       -0.72084336876974       -1.41042400910128
H            2.64184302821013        0.85212785957360       -0.60416361433132
H            2.17636901976967        0.74634402506834        1.10284107159448
H            4.12945241807532       -0.75024174299710        0.60477069641898
H            2.71922087508885       -1.69902217837946        1.10019227189162
H            3.16096321087600       -1.60413251586042       -0.60719586682116
20
 energy: -27.122269025139 gnorm: 0.000252759570 xtb: 6.7.1 (edcfbbe)
C           -3.35623604032309       -1.07323282084806        0.27539532551045
C           -1.99170647302572       -0.46940307025292        0.58096893233979
C           -1.33293234636873        0.08495421943014       -0.69121900752787
C            0.00239295581811        0.68270348332199       -0.34151954335914
O            0.20947756680010        1.86499133733223       -0.15385683796525
O            0.94037565459851       -0.24504461171847       -0.22092715632500
C            2.25788015336137        0.17954300702180        0.16720465021277
C            3.12608196369243       -1.05338942199168        0.32579027884104
H           -4.02115749223132       -0.32164210521847       -0.14243700774053
H           -3.26091297071161       -1.88631255289648       -0.43951501236234
H           -3.80453791480463       -1.46292204716608        1.18517584870480
H           -1.33936646392817       -1.22964057129108        1.01418942155717
H           -2.09930021937378        0.33937546384634        1.30703928708872
H           -1.95979313154179        0.86238797037098       -1.12698566272592
H           -1.18468251272575       -0.72399198041985       -1.40573756256756
H            2.64432343546543        0.85184211867732       -0.60587867286574
H            2.17779726117454        0.74601632853520        1.10087473677605
H            4.13056249332585       -0.75152979883452        0.60335979376944
H            2.71965340397830       -1.69957560574148        1.09808119458086
H            3.16203999228160       -1.60463572238105       -0.60906746444679
20
 energy: -27.122270724832 gnorm: 0.000308277627 xtb: 6.7.1 (edcfbbe)
C           -3.35649369642859       -1.07512507708673        0.27372880896147
C           -1.99588727821831       -0.46435700711039        0.58289244374879
C           -1.33191422429492        0.08380718326148       -0.68930158388832
C            0.00239311535316        0.68243654286485       -0.33723123047334
O            0.20700915064872        1.86386797235155       -0.14185122752938
O            0.94242040505562       -0.24419960546582       -0.22397643371772
C            2.25997470459162        0.17972089783810        0.16484777529049
C            3.12716714037379       -1.05394092462529        0.32339875906155
H           -4.02109829748322       -0.32900735076636       -0.15428603092779
H           -3.25412666516480       -1.89357559856705       -0.43410010974503
H           -3.80935923986042       -1.45899664133696        1.18375643034543
H           -1.34356437216411       -1.21973359978856        1.02460462402825
H           -2.10993938288903        0.34870798778367        1.30317247111347
H           -1.95710608915083        0.85947373408574       -1.13058370854934
H           -1.18123758010570       -0.72836482805886       -1.39964037937248
H            2.64707840920988        0.85169593657816       -0.60818015919466
H            2.17991121056508        0.74619715063093        1.09849348628577
H            4.13165428829417       -0.75314334162735        0.60209946185930
H            2.71953771644943       -1.70035718454387        1.09487323936086
H            3.16354000068010       -1.60461262664135       -0.61178109516240
20
 energy: -27.122271680070 gnorm: 0.000208018722 xtb: 6.7.1 (edcfbbe)
C           -3.35701014513190       -1.07589843087884        0.27238717295500
C           -1.99882884074200       -0.46117244604185        0.58446023902046
C           -1.33104401694039        0.08235658894306       -0.68773180094662
C            0.00234226501974        0.68198653074049       -0.33377290409109
O            0.20509685337788        1.86279864743308       -0.13278997981685
O            0.94390120925508       -0.24362237911360       -0.22590241350161
C            2.26151164752681        0.18002087538484        0.16317115902183
C            3.12814356086620       -1.05410542592340        0.32139548553540
H           -4.02080734125450       -0.33363316464343       -0.16344553462678
H           -3.24964320598878       -1.89844284899324       -0.42984653279367
H           -3.81360888922071       -1.45509485784698        1.18247698341227
H           -1.34694783141080       -1.21316046955304        1.03258130602052
H           -2.11739737540338        0.35515945937380        1.30021041738841
H           -1.95501870033135        0.85635461503736       -1.13361833683800
H           -1.17799079674669       -0.73241588106763       -1.39450333039211
H            2.64882221444238        0.85189274394114       -0.60983378778343
H            2.18160205224765        0.74643041961137        1.09686163104671
H            4.13243757251791       -0.75411241033849        0.60155054125844
H            2.71921584305469       -1.70113845530830        1.09166694469133
H            3.16518324032382       -1.60370949098047       -0.61438171806528
20
 energy: -27.122272265721 gnorm: 0.000103882013 xtb: 6.7.1 (edcfbbe)
C           -3.35777560881985       -1.07585335892721        0.27180687755911
C           -2.00045733530293       -0.45981039811843        0.58523615895171
C           -1.33037233546261        0.08092546622294       -0.68692888707338
C            0.00241254390953        0.68139024249377       -0.33208652660079
O            0.20408936802291        1.86191660621300       -0.12826403411944
O            0.94481463229442       -0.24352088786297       -0.22668635202909
C            2.26236070062853        0.18032614854552        0.16255601191912
C            3.12902465464320       -1.05386986760260        0.32014505376504
H           -4.02027925273634       -0.33491854958081       -0.16793364399222
H           -3.24857458258556       -1.90045026316870       -0.42759233719020
H           -3.81669420667018       -1.45224528927369        1.18187133501710
H           -1.34938501745611       -1.21063006093078        1.03621855539791
H           -2.12054976883445        0.35801393639116        1.29889297683954
H           -1.95380153245737        0.85380823029888       -1.13534988089026
H           -1.17583359694845       -0.73525808547069       -1.39164876254252
H            2.64942387674572        0.85248619255907       -0.61030413834440
H            2.18238060826886        0.74642395739917        1.09642421013280
H            4.13293106484228       -0.75414666597824        0.60182511713484
H            2.71916398429286       -1.70189119104613        1.08908165211332
H            3.16708111908718       -1.60220254238738       -0.61632784455325
20
 energy: -27.122272900916 gnorm: 0.000144182598 xtb: 6.7.1 (edcfbbe)
C           -3.35894983647016       -1.07517443706268        0.27130197093322
C           -2.00194018859380       -0.45885656675352        0.58594245477227
C           -1.32964410330590        0.07892825407237       -0.68633804180311
C            0.00240152476495        0.68040546037901       -0.33034517564372
O            0.20275256788258        1.86070796684827       -0.12360659429295
O            0.94586776033841       -0.24364941973622       -0.22754669899398
C            2.26315244081552        0.18067312113208        0.16220155544994
C            3.13026577158998       -1.05336968751376        0.31866318616358
H           -4.01996419713401       -0.33519369408117       -0.17228025501405
H           -3.24845120915715       -1.90198967424993       -0.42527174663828
H           -3.82015447532387       -1.44850811159756        1.18147911506285
H           -1.35191158655819       -1.20888869404059        1.03974996007317
H           -2.12305737411948        0.36060273572085        1.29752360595946
H           -1.95253383098003        0.85058467793921       -1.13758292091522
H           -1.17344088440425       -0.73884558787237       -1.38878481811546
H            2.64984917411305        0.85370011936354       -0.61007909505999
H            2.18278310900351        0.74592605981263        1.09655294745553
H            4.13357445170934       -0.75367888146516        0.60240171350757
H            2.71946788506848       -1.70298485314220        1.08576112713150
H            3.16989231622267       -1.59989516797693       -0.61880674853740
20
 energy: -27.122273595995 gnorm: 0.000197782221 xtb: 6.7.1 (edcfbbe)
C           -3.36040429968679       -1.07396560695920        0.27110253427138
C           -2.00303183325401       -0.45859331336034        0.58627068574526
C           -1.32899864108733        0.07677668018526       -0.68611555156978
C            0.00239751619277        0.67915131261955       -0.32923775343424
O            0.20148078024329        1.85929276146678       -0.12032673983243
O            0.94681281060223       -0.24404475748663       -0.22810077385041
C            2.26368483157188        0.18093696665001        0.16228569931336
C            3.13177348855915       -1.05260242770676        0.31739556765288
H           -4.01990785092653       -0.33406877248611       -0.17480903877783
H           -3.24997209387099       -1.90224143049825       -0.42370004813673
H           -3.82325446739188       -1.44495841825506        1.18136176068586
H           -1.35424432705210       -1.20867041747618        1.04178019882747
H           -2.12398591107056        0.36198835236858        1.29657668090006
H           -1.95146521142459        0.84741855632696       -1.13963496822924
H           -1.17153895698329       -0.74229863459333       -1.38669424528085
H            2.64991002531272        0.85522116750289       -0.60912984783532
H            2.18275309136203        0.74501110126834        1.09730827653698
H            4.13439475624033       -0.75258346157454        0.60317143026578
H            2.72038926711325       -1.70410789893196        1.08257245729992
H            3.17316634101208       -1.59716813928415       -0.62114078305720
20
 energy: -27.122274483096 gnorm: 0.000201571835 xtb: 6.7.1 (edcfbbe)
C           -3.36225329741068       -1.07236290072273        0.27092091380789
C           -2.00438670959482       -0.45826892996208        0.58652194361739
C           -1.32828724133477        0.07409529690992       -0.68606806930614
C            0.00235899445088        0.67741174176493       -0.32802776678759
O            0.19980839676232        1.85736389109208       -0.11633254947350
O            0.94804345192433       -0.24476265151689       -0.22899955780428
C            2.26427791848632        0.18114362490812        0.16252864717249