      -----------------------------------------------------------      
     |                   =====================                   |     
     |                           x T B                           |     
     |                   =====================                   |     
     |                         S. Grimme                         |     
     |          Mulliken Center for Theoretical Chemistry        |     
     |                    University of Bonn                     |     
      -----------------------------------------------------------      

   * xtb version 6.7.1 (edcfbbe) compiled by 'albert@albert-system' on 2024-07-22

   xtb is free software: you can redistribute it and/or modify it under
   the terms of the GNU Lesser General Public License as published by
   the Free Software Foundation, either version 3 of the License, or
   (at your option) any later version.
   
   xtb is distributed in the hope that it will be useful,
   but WITHOUT ANY WARRANTY; without even the implied warranty of
   MERCHANTABILITY or FITNESS FOR A PARTICULAR PURPOSE.  See the
   GNU Lesser General Public License for more details.
   
   Cite this work as:
   * C. Bannwarth, E. Caldeweyher, S. Ehlert, A. Hansen, P. Pracht,
     J. Seibert, S. Spicher, S. Grimme, WIREs Comput. Mol. Sci., 2020, 11,
     e01493. DOI: 10.1002/wcms.1493
   
   for GFN2-xTB:
   * C. Bannwarth, S. Ehlert and S. Grimme., J. Chem. Theory Comput., 2019,
     15, 1652-1671. DOI: 10.1021/acs.jctc.8b01176
   for GFN1-xTB:
   * S. Grimme, C. Bannwarth, P. Shushkov, J. Chem. Theory Comput., 2017,
     13, 1989-2009. DOI: 10.1021/acs.jctc.7b00118
   for GFN0-xTB:
   * P. Pracht, E. Caldeweyher, S. Ehlert, S. Grimme, ChemRxiv, 2019, preprint.
     DOI: 10.26434/chemrxiv.8326202.v1
   for GFN-FF:
   * S. Spicher and S. Grimme, Angew. Chem. Int. Ed., 2020, 59, 15665-15673.
     DOI: 10.1002/anie.202004239
   
   for ALPB and GBSA implicit solvation:
   * S. Ehlert, M. Stahn, S. Spicher, S. Grimme, J. Chem. Theory Comput.,
     2021, 17, 4250-4261. DOI: 10.1021/acs.jctc.1c00471
   
   for ddCOSMO and CPCM-X implicit solvation:
   * M. Stahn, S. Ehlert, S. Grimme, J. Phys. Chem. A,
     2023, XX, XXXX-XXXX. DOI: 10.1021/acs.jpca.3c04382
   
   for DFT-D4:
   * E. Caldeweyher, C. Bannwarth and S. Grimme, J. Chem. Phys., 2017,
     147, 034112. DOI: 10.1063/1.4993215
   * E. Caldeweyher, S. Ehlert, A. Hansen, H. Neugebauer, S. Spicher,
     C. Bannwarth and S. Grimme, J. Chem. Phys., 2019, 150, 154122.
     DOI: 10.1063/1.5090222
   * E. Caldeweyher, J.-M. Mewes, S. Ehlert and S. Grimme, Phys. Chem. Chem. Phys.
     2020, 22, 8499-8512. DOI: 10.1039/D0CP00502A
   
   for sTDA-xTB:
   * S. Grimme and C. Bannwarth, J. Chem. Phys., 2016, 145, 054103.
     DOI: 10.1063/1.4959605
   
   in the mass-spec context:
   * V. Asgeirsson, C. Bauer and S. Grimme, Chem. Sci., 2017, 8, 4879.
     DOI: 10.1039/c7sc00601b
   * J. Koopman and S. Grimme, ACS Omega 2019, 4, 12, 15120-15133.
     DOI: 10.1021/acsomega.9b02011
   
   for metadynamics refer to:
   * S. Grimme, J. Chem. Theory Comput., 2019, 155, 2847-2862
     DOI: 10.1021/acs.jctc.9b00143
   
   for SPH calculations refer to:
   * S. Spicher and S. Grimme, J. Chem. Theory Comput., 2021, 17, 1701-1714
     DOI: 10.1021/acs.jctc.0c01306
   
   for ONIOM refer to:
   * C. Plett, A. Katbashev, S. Ehlert, S. Grimme, M. Bursch,
     Phys. Chem. Chem. Phys., 2023, 25, 17860-17868. DOI: 10.1039/D3CP02178E
   
   for DIPRO refer to:
   * J. Kohn, N. Gildemeister, S. Grimme, D. Fazzi, A. Hansen,
     J. Chem. Phys., 2023, just accepted.
   
   for PTB refer to:
   * S. Grimme, M. Mueller, A. Hansen, J. Chem. Phys., 2023, 158, 124111.
     DOI: 10.1063/5.0137838
   
   with help from (in alphabetical order)
   P. Atkinson, C. Bannwarth, F. Bohle, G. Brandenburg, E. Caldeweyher
   M. Checinski, S. Dohm, S. Ehlert, S. Ehrlich, I. Gerasimov, C. Hölzer
   A. Katbashev, J. Kohn, J. Koopman, C. Lavigne, S. Lehtola, F. März, M. Müller,
   F. Musil, H. Neugebauer, J. Pisarek, C. Plett, P. Pracht, F. Pultar,
   J. Seibert, P. Shushkov, S. Spicher, M. Stahn, M. Steiner, T. Strunk,
   J. Stückrath, T. Rose, and J. Unsleber
   
 * started run on 2025/04/11 at 17:10:20.096     
   ID    Z sym.   atoms
    1    6 C      1-7, 9-15, 18, 19
    2    8 O      8, 16, 20
    3    7 N      17
    4    1 H      21-33

           -------------------------------------------------
          |                Calculation Setup                |
           -------------------------------------------------

          program call               : /srv/scratch/z5358697/.xtb/bin/xtb xtb_opt.coord --opt normal --orca -I xtb_opt-xcontrol-inp
          hostname                   : k030
          coordinate file            : xtb_opt.coord
          omp threads                :                    16

           -------------------------------------------------
          |                   Orca driver                   |
           -------------------------------------------------
orca executable           : /apps/z_install_tree/linux-rocky8-ivybridge/gcc-12.2.0/orca-6.0.0-srtngmq3qlimg2qxbl6avaaiffipurdx/bin/orca
orca input file           : xtb_opt.inp
orca input line           : 
orca parallel             : true
orca number of threads    : 16
                         * ORCA takes the control...
  ------------------------------------------------------------------------

                                 *****************
                                 * O   R   C   A *
                                 *****************

                                            #,                                       
                                            ###                                      
                                            ####                                     
                                            #####                                    
                                            ######                                   
                                           ########,                                 
                                     ,,################,,,,,                         
                               ,,#################################,,                 
                          ,,##########################################,,             
                       ,#########################################, ''#####,          
                    ,#############################################,,   '####,        
                  ,##################################################,,,,####,       
                ,###########''''           ''''###############################       
              ,#####''   ,,,,##########,,,,          '''####'''          '####       
            ,##' ,,,,###########################,,,                        '##       
           ' ,,###''''                  '''############,,,                           
         ,,##''                                '''############,,,,        ,,,,,,###''
      ,#''                                            '''#######################'''  
     '                                                          ''''####''''         
             ,#######,   #######,   ,#######,      ##                                
            ,#'     '#,  ##    ##  ,#'     '#,    #''#        ,####,   ,####,        
            ##       ##  ##   ,#'  ##            #'  '#       #'       #'  '#        
            ##       ##  #######   ##           ,######,      #####,   #    #        
            '#,     ,#'  ##    ##  '#,     ,#' ,#      #,     #,   #   #,  ,#        
             '#######'   ##     ##  '#######'  #'      '#     '####' # '####'        



                #########################################################
                #                        -***-                          #
                #          Department of theory and spectroscopy        #
                #                                                       #
                #                      Frank Neese                      #
                #                                                       #
                #     Directorship, Architecture, Infrastructure        #
                #                    SHARK, DRIVERS                     #
                #        Core code/Algorithms in most modules           #
                #                                                       #
                #        Max Planck Institute fuer Kohlenforschung      #
                #                Kaiser Wilhelm Platz 1                 #
                #                 D-45470 Muelheim/Ruhr                 #
                #                      Germany                          #
                #                                                       #
                #                  All rights reserved                  #
                #                        -***-                          #
                #########################################################


                         Program Version 6.0.0  -   RELEASE  -


 With contributions from (in alphabetic order):
   Daniel Aravena         : Magnetic Suceptibility
   Michael Atanasov       : Ab Initio Ligand Field Theory (pilot matlab implementation)
   Alexander A. Auer      : GIAO ZORA, VPT2 properties, NMR spectrum
   Ute Becker             : All parallelization in ORCA, NUMFREQ, NUMCALC
   Giovanni Bistoni       : ED, misc. LED, open-shell LED, HFLD
   Martin Brehm           : Molecular dynamics
   Dmytro Bykov           : pre 5.0 version of the SCF Hessian
   Marcos Casanova-Páez   : Triplet and SCS-CIS(D). UHF-(DLPNO)-IP/EA/STEOM-CCSD. UHF-CVS-IP/STEOM-CCSD
   Vijay G. Chilkuri      : MRCI spin determinant printing, contributions to CSF-ICE
   Pauline Colinet        : FMM embedding
   Dipayan Datta          : RHF DLPNO-CCSD density
   Achintya Kumar Dutta   : EOM-CC, STEOM-CC
   Nicolas Foglia         : Exact transition moments, OPA infrastructure, MCD improvements
   Dmitry Ganyushin       : Spin-Orbit,Spin-Spin,Magnetic field MRCI
   Miquel Garcia          : C-PCM and meta-GGA Hessian, CCSD/C-PCM, Gaussian charge scheme
   Tiago L. C. Gouveia    : GS-ROHF, GS-ROCIS
   Yang Guo               : DLPNO-NEVPT2, F12-NEVPT2, CIM, IAO-localization
   Andreas Hansen         : Spin unrestricted coupled pair/coupled cluster methods
   Ingolf Harden          : AUTO-CI MPn and infrastructure 
   Benjamin Helmich-Paris : MC-RPA, TRAH-(SCF,CASSCF), AVAS, COSX integrals, SCF dyn. polar.
   Lee Huntington         : MR-EOM, pCC
   Robert Izsak           : Overlap fitted RIJCOSX, COSX-SCS-MP3, EOM
   Riya Kayal             : Wick's Theorem for AUTO-CI, AUTO-CI UHF-CCSDT
   Emily Kempfer          : AUTO-CI, RHF CISDT and CCSDT
   Christian Kollmar      : KDIIS, OOCD, Brueckner-CCSD(T), CCSD density, CASPT2, CASPT2-K, improved NEVPT2
   Axel Koslowski         : Symmetry handling
   Simone Kossmann        : Meta GGA functionals, TD-DFT gradient, OOMP2, (MP2 Hessian; deprecated post 5.0)
   Lucas Lang             : DCDCAS
   Marvin Lechner         : AUTO-CI (C++ implementation), FIC-MRCC
   Spencer Leger          : CASSCF response
   Dagmar Lenk            : GEPOL surface, SMD, ORCA-2-JSON
   Dimitrios Liakos       : Extrapolation schemes; Compound Job, initial MDCI parallelization
   Dimitrios Manganas     : Further ROCIS development; embedding schemes. LFT, Crystal Embedding
   Dimitrios Pantazis     : SARC Basis sets
   Anastasios Papadopoulos: AUTO-CI, single reference methods and gradients
   Taras Petrenko         : pre 6.0 DFT Hessian and TD-DFT gradient, (ASA, deprecated), ECA, 1-Electron XAS/XES, NRVS
   Peter Pinski           : DLPNO-MP2, DLPNO-MP2 Gradient
   Christoph Reimann      : Effective Core Potentials
   Marius Retegan         : Local ZFS, SOC
   Christoph Riplinger    : Optimizer, TS searches, QM/MM, DLPNO-CCSD(T), (RO)-DLPNO pert. Triples
   Michael Roemelt        : Original ROCIS implementation
   Masaaki Saitow         : Open-shell DLPNO-CCSD energy and density
   Barbara Sandhoefer     : DKH picture change effects
   Kantharuban Sivalingam : CASSCF convergence/infrastructure, NEVPT2 and variants, FIC-MRCI
   Bernardo de Souza      : ESD, SOC TD-DFT
   Georgi Stoychev        : AutoAux, RI-MP2 NMR, DLPNO-MP2 response, X2C
   Van Anh Tran           : RI-MP2 g-tensors
   Willem Van den Heuvel  : Paramagnetic NMR
   Zikuan Wang            : NOTCH, Electric field optimization 
   Frank Wennmohs         : Technical directorship and infrastructure
   Hang Xu                : AUTO-CI-Response properties 


 We gratefully acknowledge several colleagues who have allowed us to
 interface, adapt or use parts of their codes:
   Stefan Grimme, W. Hujo, H. Kruse, P. Pracht,  : VdW corrections, initial TS optimization,
                  C. Bannwarth, S. Ehlert,         DFT functionals, gCP, sTDA/sTD-DF
                  L. Wittmann, M. Mueller
   Ed Valeev, F. Pavosevic, A. Kumar             : LibInt (2-el integral package), F12 methods
   Garnet Chan, S. Sharma, J. Yang, R. Olivares  : DMRG
   Ulf Ekstrom                                   : XCFun DFT Library
   Mihaly Kallay                                 : mrcc  (arbitrary order and MRCC methods)
   Frank Weinhold                                : gennbo (NPA and NBO analysis)
   Simon Mueller                                 : openCOSMO-RS
   Christopher J. Cramer and Donald G. Truhlar   : smd solvation model
   Lars Goerigk                                  : TD-DFT with DH, B97 family of functionals
   V. Asgeirsson, H. Jonsson                     : NEB implementation
   FAccTs GmbH                                   : IRC, NEB, NEB-TS, DLPNO-Multilevel, CI-OPT
                                                   MM, QMMM, 2- and 3-layer-ONIOM, Crystal-QMMM,
                                                   LR-CPCM, SF, NACMEs, symmetry and pop. for TD-DFT,
                                                   nearIR, NL-DFT gradient (VV10), updates on ESD,
                                                   ML-optimized integration grids, MBIS, APM,
                                                   GOAT, DOCKER, SOLVATOR, interface openCOSMO-RS
   S Lehtola, MJT Oliveira, MAL Marques          : LibXC Library
   Liviu Ungur et al                             : ANISO software


 Your calculation uses the libint2 library for the computation of 2-el integrals
 For citations please refer to: http://libint.valeyev.net

 Your ORCA version has been built with support for libXC version: 6.2.2
 For citations please refer to: https://libxc.gitlab.io

 This ORCA versions uses:
   CBLAS   interface :  Fast vector & matrix operations
   LAPACKE interface :  Fast linear algebra routines
   SCALAPACK package :  Parallel linear algebra routines
   Shared memory     :  Shared parallel matrices
   BLAS/LAPACK       :  OpenBLAS 0.3.27  USE64BITINT DYNAMIC_ARCH NO_AFFINITY SkylakeX SINGLE_THREADED
        Core in use  :  SkylakeX
   Copyright (c) 2011-2014, The OpenBLAS Project




***************************************
The coordinates will be read from file: xtb_opt.xyz
***************************************


Your calculation utilizes the geometrical counterpoise correction gCP
Please cite in your paper:
H.Kruse, S. Grimme J.Chem.Phys., 136, (2012), 154101 
   

Your calculation utilizes the atom-pairwise dispersion correction
based on EEQ partial charges (D4)


Your calculation utilizes the SMD solvation module
Please cite in your paper:
A.V. Marenich, C.J. Cramer, D.G. Truhlar J. Phys. Chem. B, 113, (2009), 6378 

================================================================================

----- Orbital basis set information -----
Your calculation utilizes the basis: def2-mTZVPP
   Stefan Grimme, Andreas Hansen, Sebastian Ehlert, and Jan-Michael Mewes 
   J. Chem. Phys. 154, 064103 (2021). DOI: 10.1063/5.0040021

----- AuxJ basis set information -----
Your calculation utilizes the auxiliary basis: def2/J
   F. Weigend, Phys. Chem. Chem. Phys. 8, 1057 (2006).

================================================================================
                                        WARNINGS
                       Please study these warnings very carefully!
================================================================================

WARNING: Old DensityContainer found on disk!
         Will remove this file - 
         If you want to keep old densities, please start your calculation with a different basename. 

Using LibXC functional ID 497 : Re-regularized SCAN exchange by Furness et al
[ 1]  J. W. Furness, A. D. Kaplan, J. Ning, J. P. Perdew, and J. Sun.,  J. Phys. Chem. Lett. 11, 8208-8215 (2020)
[ 2]  J. W. Furness, A. D. Kaplan, J. Ning, J. P. Perdew, and J. Sun.,  J. Phys. Chem. Lett. 11, 9248-9248 (2020)
Using LibXC functional ID 498 : Re-regularized SCAN correlation by Furness et al
[ 1]  J. W. Furness, A. D. Kaplan, J. Ning, J. P. Perdew, and J. Sun.,  J. Phys. Chem. Lett. 11, 8208-8215 (2020)
[ 2]  J. W. Furness, A. D. Kaplan, J. Ning, J. P. Perdew, and J. Sun.,  J. Phys. Chem. Lett. 11, 9248-9248 (2020)
Using LibXC functional ID 497 : Re-regularized SCAN exchange by Furness et al
[ 1]  J. W. Furness, A. D. Kaplan, J. Ning, J. P. Perdew, and J. Sun.,  J. Phys. Chem. Lett. 11, 8208-8215 (2020)
[ 2]  J. W. Furness, A. D. Kaplan, J. Ning, J. P. Perdew, and J. Sun.,  J. Phys. Chem. Lett. 11, 9248-9248 (2020)
Using LibXC functional ID 498 : Re-regularized SCAN correlation by Furness et al
[ 1]  J. W. Furness, A. D. Kaplan, J. Ning, J. P. Perdew, and J. Sun.,  J. Phys. Chem. Lett. 11, 8208-8215 (2020)
[ 2]  J. W. Furness, A. D. Kaplan, J. Ning, J. P. Perdew, and J. Sun.,  J. Phys. Chem. Lett. 11, 9248-9248 (2020)

================================================================================
                                       INPUT FILE
================================================================================
NAME = xtb_opt.inp
|  1> ! r2scan-3c def2/J RI DEFGRID2 scfconv7 ENGRAD tightSCF miniprint
|  2> %cpcm
|  3>     smd true
|  4>     smdsolvent "water"
|  5> end
|  6> * xyzfile 0 1 xtb_opt.xyz
|  7> 
|  8>                          ****END OF INPUT****
================================================================================

                     *******************************
                     * Energy+Gradient Calculation *
                     *******************************

---------------------------------
CARTESIAN COORDINATES (ANGSTROEM)
---------------------------------
  C     -4.621710   -1.005407    0.276776
  C     -3.934259   -2.201940    0.066969
  C     -2.559293   -2.195523   -0.125605
  C     -1.849602   -0.991634   -0.108220
  C     -2.543528    0.210940    0.104098
  C     -3.928631    0.195790    0.293999
  C     -1.815882    1.491317    0.125553
  O     -2.417220    2.559963    0.278220
  C     -0.341772    1.456858   -0.035122
  C      0.334478    2.662049    0.047619
  C      1.726092    2.685991   -0.090242
  C      2.436190    1.530708   -0.312440
  C      1.783628    0.273213   -0.418032
  C      0.352934    0.235735   -0.264852
  C     -0.379828   -1.013813   -0.318163
  O      0.174019   -2.116682   -0.530129
  N      2.481709   -0.851292   -0.685156
  C      3.928759   -0.995227   -0.683969
  C      4.498570   -1.325444    0.691159
  O      4.275516   -0.293645    1.660499
  H     -5.696115   -1.014379    0.426841
  H     -4.475502   -3.142325    0.054234
  H     -2.025086   -3.124192   -0.288892
  H     -4.450257    1.132373    0.455827
  H     -0.219498    3.575916    0.223069
  H      2.258051    3.629178   -0.018265
  H      3.512642    1.583941   -0.407681
  H      1.924901   -1.701871   -0.676569
  H      4.410053   -0.101432   -1.090603
  H      4.179410   -1.823278   -1.355988
  H      5.572507   -1.532266    0.580046
  H      4.014783   -2.223399    1.087983
  H      4.760196    0.490096    1.368748

----------------------------
CARTESIAN COORDINATES (A.U.)
----------------------------
  NO LB      ZA    FRAG     MASS         X           Y           Z
   0 C     6.0000    0    12.011   -8.733765   -1.899944    0.523031
   1 C     6.0000    0    12.011   -7.434672   -4.161064    0.126553
   2 C     6.0000    0    12.011   -4.836362   -4.148938   -0.237359
   3 C     6.0000    0    12.011   -3.495241   -1.873917   -0.204506
   4 C     6.0000    0    12.011   -4.806571    0.398618    0.196718
   5 C     6.0000    0    12.011   -7.424036    0.369989    0.555578
   6 C     6.0000    0    12.011   -3.431519    2.818180    0.237260
   7 O     8.0000    0    15.999   -4.567885    4.837628    0.525759
   8 C     6.0000    0    12.011   -0.645855    2.753062   -0.066371
   9 C     6.0000    0    12.011    0.632071    5.030544    0.089986
  10 C     6.0000    0    12.011    3.261842    5.075787   -0.170532
  11 C     6.0000    0    12.011    4.603732    2.892619   -0.590426
  12 C     6.0000    0    12.011    3.370569    0.516298   -0.789965
  13 C     6.0000    0    12.011    0.666950    0.445475   -0.500498
  14 C     6.0000    0    12.011   -0.717772   -1.915829   -0.601240
  15 O     8.0000    0    15.999    0.328847   -3.999950   -1.001799
  16 N     7.0000    0    14.007    4.689749   -1.608708   -1.294757
  17 C     6.0000    0    12.011    7.424279   -1.880707   -1.292514
  18 C     6.0000    0    12.011    8.501065   -2.504727    1.306102
  19 O     8.0000    0    15.999    8.079555   -0.554908    3.137889
  20 H     1.0000    0     1.008  -10.764097   -1.916899    0.806613
  21 H     1.0000    0     1.008   -8.457473   -5.938133    0.102488
  22 H     1.0000    0     1.008   -3.826857   -5.903867   -0.545926
  23 H     1.0000    0     1.008   -8.409768    2.139875    0.861389
  24 H     1.0000    0     1.008   -0.414791    6.757502    0.421538
  25 H     1.0000    0     1.008    4.267098    6.858152   -0.034515
  26 H     1.0000    0     1.008    6.637932    2.993215   -0.770406
  27 H     1.0000    0     1.008    3.637535   -3.216070   -1.278530
  28 H     1.0000    0     1.008    8.333792   -0.191679   -2.060941
  29 H     1.0000    0     1.008    7.897939   -3.445496   -2.562446
  30 H     1.0000    0     1.008   10.530512   -2.895563    1.096129
  31 H     1.0000    0     1.008    7.586840   -4.201615    2.055991
  32 H     1.0000    0     1.008    8.995467    0.926148    2.586559

------------------------------------------------------------------------------
                   ___                                                        
                  /   \      - P O W E R E D   B Y -                         
                 /     \                                                     
                 |  |  |   _    _      __       _____    __    __             
                 |  |  |  | |  | |    /  \     |  _  \  |  |  /  |          
                  \  \/   | |  | |   /    \    | | | |  |  | /  /          
                 / \  \   | |__| |  /  /\  \   | |_| |  |  |/  /          
                |  |  |   |  __  | /  /__\  \  |    /   |      \           
                |  |  |   | |  | | |   __   |  |    \   |  |\   \          
                \     /   | |  | | |  |  |  |  | |\  \  |  | \   \       
                 \___/    |_|  |_| |__|  |__|  |_| \__\ |__|  \__/        
                                                                              
                      - O R C A' S   B I G   F R I E N D -                    
                                      &                                       
                       - I N T E G R A L  F E E D E R -                       
                                                                              
 v1 FN, 2020, v2 2021, v3 2022-2024                                           
------------------------------------------------------------------------------


----------------------
SHARK INTEGRAL PACKAGE
----------------------

Number of atoms                             ...     33
Number of basis functions                   ...    465
Number of shells                            ...    223
Maximum angular momentum                    ...      2
Integral batch strategy                     ... SHARK/LIBINT Hybrid
RI-J (if used) integral strategy            ... SPLIT-RIJ (Revised 2003 algorithm where possible)
Printlevel                                  ...      1
Contraction scheme used                     ... SEGMENTED contraction
Prescreening option                         ... SCHWARTZ
   Thresh                                   ... 3.000e-11
   Tcut                                     ... 1.000e-12
   Tpresel                                  ... 1.000e-12 
Coulomb Range Separation                    ... NOT USED
Exchange Range Separation                   ... NOT USED
Multipole approximations                    ... NOT USED
Finite Nucleus Model                        ... NOT USED
CABS basis                                  ... NOT available
Auxiliary Coulomb fitting basis             ... AVAILABLE
   # of basis functions in Aux-J            ...   1123
   # of shells in Aux-J                     ...    365
   Maximum angular momentum in Aux-J        ...      4
Auxiliary J/K fitting basis                 ... NOT available
Auxiliary Correlation fitting basis         ... NOT available
Auxiliary 'external' fitting basis          ... NOT available

Checking pre-screening integrals            ... done (  0.0 sec) Dimension = 223
Check shell pair data                       ... done (  0.0 sec)
Shell pair information
Shell pair cut-off parameter TPreSel        ...   1.0e-12
Total number of shell pairs                 ...     24976
Shell pairs after pre-screening             ...     18499
Total number of primitive shell pairs       ...     92714
Primitive shell pairs kept                  ...     43947
          la=0 lb=0:   5565 shell pairs
          la=1 lb=0:   7028 shell pairs
          la=1 lb=1:   2203 shell pairs
          la=2 lb=0:   2131 shell pairs
          la=2 lb=1:   1353 shell pairs
          la=2 lb=2:    219 shell pairs

Calculating one electron integrals          ... done (  0.1 sec)
Calculating RI/J V-Matrix + Cholesky decomp.... done (  0.2 sec)
Calculating Nuclear repulsion               ... done (  0.0 sec) ENN=   1466.929240925650 Eh

Diagonalization of the overlap matrix:
Smallest eigenvalue                        ... 6.400e-06
Time for diagonalization                   ...    0.028 sec
Threshold for overlap eigenvalues          ... 1.000e-07
Number of eigenvalues below threshold      ... 0
Time for construction of square roots      ...    0.038 sec
Total time needed                          ...    0.081 sec

-------------------
DFT GRID GENERATION
-------------------

General Integration Accuracy     IntAcc      ... 4.388
Radial Grid Type                 RadialGrid  ... OptM3 with GC (2021)
Angular Grid (max. ang.)         AngularGrid ... 4 (Lebedev-302)
Angular grid pruning method      GridPruning ... 4 (adaptive)
Weight generation scheme         WeightScheme... mBecke (2022)
Basis function cutoff            BFCut       ... 1.0000e-11
Integration weight cutoff        WCut        ... 1.0000e-14
Partially contracted basis set               ... off
Rotationally invariant grid construction     ... off
Angular grids for H and He will be reduced by one unit
Diffuse basis detected: some atoms will have their outermost
                        angular grid increased by 1.

Total number of grid points                  ...   161865
Total number of batches                      ...     2548
Average number of points per batch           ...       63
Average number of grid points per atom       ...     4905
Initializing property integral containers    ... done (  0.0 sec)

SHARK setup successfully completed in   3.3 seconds

Maximum memory used throughout the entire STARTUP-calculation: 84.7 MB
Occupation numbers will be reassigned to an Aufbau configuration
             **** ENERGY FILE WAS UPDATED (xtb_opt.en.tmp) ****
Finished Guess after   0.6 sec
Maximum memory used throughout the entire GUESS-calculation: 45.5 MB
--------------------
CPCM SOLVATION MODEL
--------------------
CPCM parameters:
  Epsilon                                         ...      78.3550
  Refrac                                          ...       1.3328
  Rsolv                                           ...       1.3000
  Surface type                                    ... GAUSSIAN VDW
  Discretization scheme                           ... Constant charge density
    Threshold for H atoms                         ...       5.0000 (charges/Ang^2)
    Threshold for non-H atoms                     ...       5.0000 (charges/Ang^2)
  Epsilon function type                           ...         CPCM
Solvent:                                          ... WATER
SMD-CDS solvent descriptors:
  Soln                                            ...       1.3328
  Soln25                                          ...       1.3323
  Sola                                            ...       0.0000
  Solb                                            ...       0.0000
  Solg                                            ...       0.0000
  Solc                                            ...       0.0000
  Solh                                            ...       0.0000
Radii:
  Scheme                                          ... Element-dependent radii
  Radius for C  used is    3.4960 Bohr (=   1.8500 Ang.)
  Radius for O  used is    2.8724 Bohr (=   1.5200 Ang.)
  Radius for N  used is    3.5716 Bohr (=   1.8900 Ang.)
  Radius for H  used is    2.2677 Bohr (=   1.2000 Ang.)
Calculating surface                               ...        done! (  0.0s)
Cavity surface points                             ...         2451
Cavity Volume                                     ...    1731.9305
Cavity Surface-area                               ...     976.9874
Calculating surface distance matrix               ...        done! (  0.1s)
Performing Cholesky decomposition & store         ...        done! (  0.3s)
Overall time for CPCM initialization              ...                 0.4s

----------------------------------------D-I-I-S--------------------------------------------
Iteration    Energy (Eh)           Delta-E    RMSDP     MaxDP     DIISErr   Damp  Time(sec)
-------------------------------------------------------------------------------------------
               ***  Starting incremental Fock matrix formation  ***
                              *** Initializing SOSCF ***
---------------------------------------S-O-S-C-F--------------------------------------
Iteration    Energy (Eh)           Delta-E    RMSDP     MaxDP     MaxGrad    Time(sec)
--------------------------------------------------------------------------------------
    1    -897.8176585032936146     0.00e+00  6.87e-06  5.23e-04  1.63e-05    16.9
               *** Restarting incremental Fock matrix formation ***
    2    -897.8176584654590897     3.78e-08  1.35e-05  1.04e-03  4.11e-05    15.8
    3    -897.8176580816068508     3.84e-07  1.11e-05  8.37e-04  9.52e-05    10.8
    4    -897.8176585650742254    -4.83e-07  7.43e-06  4.79e-04  8.89e-06    10.8
                  *** Gradient check signals convergence ***

               *****************************************************
               *                     SUCCESS                       *
               *           SCF CONVERGED AFTER   4 CYCLES          *
               *****************************************************


SMD CDS free energy correction energy :                 5.54904     Kcal/mol
Total Energy after SMD CDS correction =              -897.808815606 Eh
             **** ENERGY FILE WAS UPDATED (xtb_opt.en.tmp) ****

----------------
TOTAL SCF ENERGY
----------------

Total Energy       :       -897.80881560627722 Eh          -24430.61990 eV

Components:
Nuclear Repulsion  :       1466.92924092565022 Eh           39917.17400 eV
Electronic Energy  :      -2364.70348952571248 Eh          -64346.85328 eV
One Electron Energy:      -4134.99314867419616 Eh         -112518.88392 eV
Two Electron Energy:       1770.28965914848368 Eh           48172.03064 eV
CPCM Dielectric    :         -0.04340996501191 Eh              -1.18125 eV
SMD CDS (Gcds)     :          0.00884295879704 Eh               0.24063 eV

Virial components:
Potential Energy   :      -1791.71700850353818 Eh          -48755.09846 eV
Kinetic Energy     :        893.90819289726085 Eh           24324.47856 eV
Virial Ratio       :          2.00436356075491

DFT components:
N(Alpha)           :       69.999957997789 electrons
N(Beta)            :       69.999957997789 electrons
N(Total)           :      139.999915995577 electrons
E(X)               :     -119.476222053459 Eh       
E(C)               :       -4.614095891308 Eh       
E(XC)              :     -124.090317944767 Eh       

CPCM Solvation Model Properties:
Surface-charge          :         -0.05711612352160
Corrected charge        :         -0.00000000000000
Outlying charge corr.   :          0.00019139532051 Eh               0.00521 eV
Free-energy (cav+disp)  :          0.00884295879704 Eh               0.24063 eV

---------------
SCF CONVERGENCE
---------------

  Last Energy change         ...    4.8347e-07  Tolerance :   1.0000e-07
  Last MAX-Density change    ...    4.7869e-04  Tolerance :   1.0000e-07
  Last RMS-Density change    ...    7.4276e-06  Tolerance :   5.0000e-09
  Last DIIS Error            ...    1.5411e-04  Tolerance :   1.0000e-07
  Last Orbital Gradient      ...    8.8906e-06  Tolerance :   1.0000e-04
  Last Orbital Rotation      ...    1.5376e-05  Tolerance :   1.0000e-04


----------------
ORBITAL ENERGIES
----------------

  NO   OCC          E(Eh)            E(eV) 
   0   2.0000     -18.956421      -515.8304 
   1   2.0000     -18.948855      -515.6246 
   2   2.0000     -18.945509      -515.5335 
   3   2.0000     -14.187217      -386.0538 
   4   2.0000     -10.133772      -275.7540 
   5   2.0000     -10.129162      -275.6285 
   6   2.0000     -10.104355      -274.9535 
   7   2.0000     -10.077808      -274.2311 
   8   2.0000     -10.066557      -273.9249 
   9   2.0000     -10.063262      -273.8353 
  10   2.0000     -10.062655      -273.8188 
  11   2.0000     -10.061095      -273.7763 
  12   2.0000     -10.059014      -273.7197 
  13   2.0000     -10.052398      -273.5397 
  14   2.0000     -10.052036      -273.5298 
  15   2.0000     -10.051499      -273.5152 
  16   2.0000     -10.050636      -273.4917 
  17   2.0000     -10.050556      -273.4895 
  18   2.0000     -10.047915      -273.4177 
  19   2.0000     -10.044332      -273.3202 
  20   2.0000      -1.012433       -27.5497 
  21   2.0000      -1.006444       -27.3867 
  22   2.0000      -0.986861       -26.8539 
  23   2.0000      -0.918066       -24.9818 
  24   2.0000      -0.848475       -23.0882 
  25   2.0000      -0.830300       -22.5936 
  26   2.0000      -0.770342       -20.9621 
  27   2.0000      -0.741239       -20.1701 
  28   2.0000      -0.735877       -20.0242 
  29   2.0000      -0.728668       -19.8281 
  30   2.0000      -0.692958       -18.8563 
  31   2.0000      -0.649613       -17.6769 
  32   2.0000      -0.627467       -17.0742 
  33   2.0000      -0.610030       -16.5998 
  34   2.0000      -0.595788       -16.2122 
  35   2.0000      -0.566642       -15.4191 
  36   2.0000      -0.550216       -14.9722 
  37   2.0000      -0.518869       -14.1191 
  38   2.0000      -0.514392       -13.9973 
  39   2.0000      -0.489788       -13.3278 
  40   2.0000      -0.475374       -12.9356 
  41   2.0000      -0.461089       -12.5469 
  42   2.0000      -0.446198       -12.1417 
  43   2.0000      -0.443719       -12.0742 
  44   2.0000      -0.434258       -11.8167 
  45   2.0000      -0.429852       -11.6969 
  46   2.0000      -0.419902       -11.4261 
  47   2.0000      -0.415299       -11.3009 
  48   2.0000      -0.409635       -11.1467 
  49   2.0000      -0.406855       -11.0711 
  50   2.0000      -0.404418       -11.0048 
  51   2.0000      -0.397225       -10.8090 
  52   2.0000      -0.384181       -10.4541 
  53   2.0000      -0.379375       -10.3233 
  54   2.0000      -0.363860        -9.9011 
  55   2.0000      -0.352964        -9.6046 
  56   2.0000      -0.345472        -9.4008 
  57   2.0000      -0.337628        -9.1873 
  58   2.0000      -0.336460        -9.1555 
  59   2.0000      -0.328322        -8.9341 
  60   2.0000      -0.322557        -8.7772 
  61   2.0000      -0.311277        -8.4703 
  62   2.0000      -0.291399        -7.9294 
  63   2.0000      -0.263581        -7.1724 
  64   2.0000      -0.255718        -6.9585 
  65   2.0000      -0.251913        -6.8549 
  66   2.0000      -0.249064        -6.7774 
  67   2.0000      -0.243389        -6.6230 
  68   2.0000      -0.231293        -6.2938 
  69   2.0000      -0.194111        -5.2820 
  70   0.0000      -0.133558        -3.6343 
  71   0.0000      -0.081726        -2.2239 
  72   0.0000      -0.050138        -1.3643 
  73   0.0000      -0.029895        -0.8135 
  74   0.0000       0.021884         0.5955 
  75   0.0000       0.027374         0.7449 
  76   0.0000       0.065679         1.7872 
  77   0.0000       0.074496         2.0271 
  78   0.0000       0.083587         2.2745 
  79   0.0000       0.100939         2.7467 
  80   0.0000       0.104698         2.8490 
*Only the first 10 virtual orbitals were printed.
Total SCF time: 0 days 0 hours 0 min 55 sec 
Finished LeanSCF after  56.2 sec

Maximum memory used throughout the entire LEANSCF-calculation: 84.9 MB


-------------------------------------------------------------------------------
                          DFT DISPERSION CORRECTION                            
                                                                               
                                DFTD4 V3.4.0                                   
-------------------------------------------------------------------------------
-------------------------   ----------------
Dispersion correction           -0.015726417
-------------------------   ----------------

------------------   -----------------
gCP correction             0.015984956
------------------   -----------------

-------------------------   --------------------
FINAL SINGLE POINT ENERGY      -897.808557066620
-------------------------   --------------------

------------------------------------------------------------------------------
                         ORCA SCF GRADIENT CALCULATION
------------------------------------------------------------------------------

Nuc. rep. gradient        (SHARK) ... done (  0.0 sec)
HCore & Overlap gradient  (SHARK) ... done (  2.0 sec)
Split-RIJ-J gradient      (SHARK) ... done ( 11.7 sec)
XC gradient                       ... done ( 27.3 sec)
CPCM gradient                     ... done (  5.3 sec)
SMD gradient                      ... done (  0.0 sec)
Dispersion correction             ... done (  0.1 sec)

-------------------
DISPERSION GRADIENT
-------------------

   1   C   :   -0.000124329   -0.000036149    0.000014591
   2   C   :   -0.000100518   -0.000091402    0.000006071
   3   C   :   -0.000061844   -0.000131664   -0.000004981
   4   C   :   -0.000068464   -0.000084752   -0.000003300
   5   C   :   -0.000105578    0.000018247    0.000014170
   6   C   :   -0.000138176    0.000023849    0.000021365
   7   C   :   -0.000076012    0.000114986    0.000018148
   8   O   :   -0.000072647    0.000126468    0.000019017
   9   C   :   -0.000014956    0.000121114    0.000005164
  10   C   :    0.000011376    0.000166479    0.000011166
  11   C   :    0.000048338    0.000168389   -0.000003270
  12   C   :    0.000082111    0.000113718   -0.000026426
  13   C   :    0.000069106    0.000013595   -0.000042108
  14   C   :    0.000009473    0.000013355   -0.000026015
  15   C   :   -0.000009868   -0.000106838   -0.000027634
  16   O   :    0.000008417   -0.000144771   -0.000036489
  17   N   :    0.000077661   -0.000088638   -0.000061328
  18   C   :    0.000123637   -0.000056454   -0.000031244
  19   C   :    0.000103425   -0.000062670    0.000034554
  20   O   :    0.000114798   -0.000008209    0.000084070
  21   H   :   -0.000046396   -0.000006247    0.000006424
  22   H   :   -0.000028120   -0.000037398    0.000000929
  23   H   :   -0.000004339   -0.000058252   -0.000005067
  24   H   :   -0.000045819    0.000029719    0.000009413
  25   H   :   -0.000005386    0.000056621    0.000007802
  26   H   :    0.000019375    0.000056067    0.000001494
  27   H   :    0.000036646    0.000038044   -0.000010010
  28   H   :    0.000021103   -0.000039313   -0.000020106
  29   H   :    0.000041596   -0.000015896   -0.000019759
  30   H   :    0.000034094   -0.000030843   -0.000023729
  31   H   :    0.000029589   -0.000016310    0.000015785
  32   H   :    0.000037814   -0.000025575    0.000027068
  33   H   :    0.000033894   -0.000019272    0.000044235

Difference to translation invariance:
           :    0.0000000000   -0.0000000000   -0.0000000000

Difference to rotation invariance:
           :   -0.0000000000    0.0000000000   -0.0000000000

Norm of the Dispersion gradient    ...    0.0006217526
RMS gradient                       ...    0.0000624885
MAX gradient                       ...    0.0001683887
gCP correction                   ... done

------------------
CARTESIAN GRADIENT
------------------

   1   C   :    0.000002136    0.000008042    0.000007618
   2   C   :    0.000004511    0.000000847    0.000005318
   3   C   :   -0.000027671   -0.000016007   -0.000014660
   4   C   :   -0.000013138    0.000031753   -0.000014337
   5   C   :    0.000050638   -0.000028940    0.000013769
   6   C   :   -0.000050703   -0.000007117    0.000031748
   7   C   :    0.000000988    0.000059589   -0.000107028
   8   O   :    0.000006737   -0.000013429    0.000015631
   9   C   :   -0.000040987   -0.000046701   -0.000007318
  10   C   :    0.000070955    0.000042970    0.000020767
  11   C   :   -0.000064555    0.000025777    0.000009521
  12   C   :   -0.000019105   -0.000013036    0.000008349
  13   C   :   -0.000028270    0.000041674    0.000081808
  14   C   :   -0.000004318    0.000020620   -0.000064996
  15   C   :    0.000080685   -0.000143549    0.000092648
  16   O   :   -0.000073840    0.000116933   -0.000013239
  17   N   :    0.000002422   -0.000038407   -0.000087006
  18   C   :    0.000109843   -0.000110786   -0.000103967
  19   C   :   -0.000202429    0.000210909    0.000205542
  20   O   :    0.000105052   -0.000210039   -0.000021515
  21   H   :    0.000007346   -0.000000659    0.000006959
  22   H   :   -0.000004578    0.000013121    0.000022457
  23   H   :   -0.000013048    0.000000117    0.000009241
  24   H   :    0.000027152   -0.000009921   -0.000006256
  25   H   :   -0.000018055   -0.000020914   -0.000005900
  26   H   :    0.000017225   -0.000010542    0.000019463
  27   H   :   -0.000008588   -0.000007259    0.000018031
  28   H   :    0.000057634    0.000004104    0.000004653
  29   H   :   -0.000006509    0.000010754    0.000015011
  30   H   :    0.000017199    0.000029028   -0.000033313
  31   H   :   -0.000012798   -0.000068242   -0.000014895
  32   H   :   -0.000026264    0.000035414   -0.000016427
  33   H   :    0.000054335    0.000093896   -0.000077678

Difference to translation invariance:
           :    0.0000000000   -0.0000000000   -0.0000000000

Difference to rotation invariance:
           :   -0.0000824309    0.0004928731   -0.0004178775

Norm of the Cartesian gradient     ...    0.0006113004
RMS gradient                       ...    0.0000614380
MAX gradient                       ...    0.0002109092

-------
TIMINGS
-------

Total SCF gradient time     ....       50.994 sec

Densities                   ....       0.005 sec  (  0.0%)
One electron gradient       ....       2.006 sec  (  3.9%)
RI-J Coulomb gradient       ....      11.684 sec  ( 22.9%)
XC gradient                 ....      27.330 sec  ( 53.6%)
CPCM gradient               ....       5.340 sec  ( 10.5%)
   A-Matrix (El+Nuc)        ....       0.212 sec  (  0.4%)
   Potential                ....       5.128 sec  ( 10.1%)
SMD gradient                ....       0.019 sec  (  0.0%)

Maximum memory used throughout the entire SCFGRAD-calculation: 72.5 MB

------------------------------------------------------------------------------
                              ORCA PROPERTY CALCULATIONS
------------------------------------------------------------------------------

GBWName                                 ... xtb_opt.gbw
Number of atoms                         ...     33
Number of basis functions               ...    465
Max core memory                         ...   1024 MB

Electric properties:
Dipole moment                           ... YES
Quadrupole moment                       ...  NO
Static polarizability (Dipole/Dipole)   ...  NO
Static polarizability (Dipole/Quad.)    ...  NO
Static polarizability (Quad./Quad.)     ...  NO
Static polarizability (Velocity)        ...  NO

Atomic electric properties:
Dipole moment                           ...  NO
Quadrupole moment                       ...  NO
Static polarizability                   ...  NO

Choice of electric origin               ... Center of mass
Position of electric origin             ...    -0.013361    -0.011603     0.030308

General magnetic properties:
Magnetizability                         ...  NO

EPR properties:
g-Tensor (aka g-matrix)                 ...  NO
Zero-Field splitting spin-orbit         ...  NO
Zero-field splitting spin-spin          ...  NO
Hyperfine couplings                     ...  NO (   0 nuclei)
Quadrupole couplings                    ...  NO (   0 nuclei)
Contact density                         ...  NO (   0 nuclei)

NMR properties:
Chemical shifts                         ...  NO (   0 nuclei)
Spin-rotation constants                 ...  NO (   0 nuclei)
Spin-spin couplings                     ...  NO (   0 nuclei,    0 pairs)

Choice of magnetic origin               ... GIAO
Position of magnetic origin             ...     0.000000     0.000000     0.000000

Properties with geometric perturbations:
SCF Hessian                             ...  NO
IR spectrum                             ...  NO
VCD spectrum                            ...  NO
X-ray spectroscopy properties:
SCF XES/XAS/RIXS spectra                ...  NO


-------------
DIPOLE MOMENT
-------------

Method             : SCF
Type of density    : Electron Density
Multiplicity       :   1
Irrep              :   0
Energy             :  -897.8088156062772214 Eh
Relativity type    : 
Basis              : AO
                                X                 Y                 Z
Electronic contribution:    -10.755584183       3.221642016      -0.909090289
Nuclear contribution   :     13.045321664      -3.916065364       0.157224220
                        -----------------------------------------
Total Dipole Moment    :      2.289737480      -0.694423347      -0.751866069
                        -----------------------------------------
Magnitude (a.u.)       :      2.508071789
Magnitude (Debye)      :      6.375011858



--------------------
Rotational spectrum 
--------------------
 
Rotational constants in cm-1:             0.021780             0.007636             0.005983 
Rotational constants in MHz :           652.948631           228.919714           179.370496 

Dipole components along the rotational axes: 
x,y,z [a.u.] :     2.251797     0.809149    -0.751739 
x,y,z [Debye]:     5.723614     2.056692    -1.910768 

 

Dipole moment calculation done in   0.0 sec 

Maximum memory used throughout the entire PROP-calculation: 42.7 MB

--------------------------------
SUGGESTED CITATIONS FOR THIS RUN
--------------------------------

Below you find a list of papers that are relevant to this ORCA run
We neither can nor want to force you to cite these papers, but we appreciate if you do
You receive ORCA, which is the product of decades of hard work by many enthusiastic individuals, for free
The only thing we kindly ask in return is that you cite our papers,
We deeply appreciate it, if you show your appreciation for ORCA by not just citing the generic ORCA reference.

Please note that relegating all ORCA citations to the supporting information does *not* help us.
SI sections are not indexed - citations you put there will not count into any citation statistics
But we need these citations in order to attract the funding resources that allow us to do what we are doing

Therefore, if you are a happy ORCA user, please consider citing a few of the papers listed below in the main body of your paper

In addition to the list printed below, the program has created the file xtb_opt.bibtex that contains the list in bibtex format
You can import this file easily into all common literature databanks and citation aid programs


List of essential papers. We consider these as the minimum necessary citations

  1. Neese,F.
     Software update: the ORCA program system, version 5.0
     WIRES Comput. Molec. Sci., 2022 12(1)e1606
     doi.org/10.1002/wcms.1606
  2. Grimme,S.; Hansen,A.; Ehlert,S.; Mewes,J.
     r2SCAN-3c: A 'Swiss army knife' composite electronic-structure method
     J. Chem. Phys., 2021 154 064103
     doi.org/10.1063/5.0040021

List of papers to cite with high priority. The work reported in these papers was absolutely
necessary for this run to complete.
Our perspective: the developers of density functionals and basis sets usually get cited in chemistry papers
Good! But without the algorithms to do something with them, the functionals or basis sets would not do anything.
Hence, in our opinion, the algorithm design and method developments papers are equally worthy of getting cited

  1. Neese,F.
     An improvement of the resolution of the identity approximation for the formation of the Coulomb matrix
     J. Comp. Chem., 2003 24(14)1740-1747
     doi.org/10.1002/jcc.10318
  2. Garcia-Rates,M.; Neese,F.
     Effect of the Solute Cavity on the Solvation Energy and its Derivatives within the Framework of the Gaussian Charge Scheme
     J. Comput. Chem., 2020 41 922-939
     doi.org/10.1002/jcc.26139
  3. Neese,F.
     The SHARK Integral Generation and Digestion System
     J. Comp. Chem., 2022  1-16
     doi.org/10.1002/jcc.26942
  4. Lehtola,S.; Steigemann,C.; Oliveira,M.; Marques,M.
     Recent developments in Libxc - A comprehensive library of functionals for density functional theory
     Software X, 2018 7 
     doi.org/10.1016/j.softx.2017.11.002
  5. Caldeweyher,E.; Bannwarth,C.; Grimme,S.
     Extension of the D3 dispersion coefficient model
     J. Chem. Phys., 2017 147 034112-XXXX
     doi.org/10.1063/1.4993215
  6. Caldeweyher,E.; Ehlert,S.; Hansen,A.; Neugebauer,H.; Spicher,S.; Bannwarth,C.; Grimme,S.
     A generally applicable atomic-charge dependent London dispersion correction
     J. Chem. Phys., 2019 150 154122-XXXX
     doi.org/10.1063/1.5090222
  7. Caldeweyher,E.; Mewes,J.; Ehlert,S.; Grimme,S.
     Extension and evaluation of the D4 London-dispersion model for periodic systems
     Phys. Chem. Chem. Phys., 2020 22(16)8499-8512
     doi.org/10.1039/D0CP00502A

List of suggested additional citations. These are papers that are important in the 'surrounding' of 
of this run, or papers that preceded the highly important papers. If you like your results we are grateful for a citation.

  1. Neese,F.
     The ORCA program system
     WIRES Comput. Molec. Sci., 2012 2(1)73-78
     doi.org/10.1002/wcms.81
  2. Neese,F.
     Software update: the ORCA program system, version 4.0
     WIRES Comput. Molec. Sci., 2018 8(1)1-6
     doi.org/10.1002/wcms.1327
  3. Neese,F.; Wennmohs,F.; Becker,U.; Riplinger,C.
     The ORCA quantum chemistry program package
     J. Chem. Phys., 2020 152 Art. No. L224108
     doi.org/10.1063/5.0004608

List of optional additional citations

  1. Neese,F.
     Approximate second-order SCF convergence for spin unrestricted wavefunctions
     Chem. Phys. Lett., 2000 325(1-3)93-98
     doi.org/10.1016/s0009-2614(00)00662-x

Timings for individual modules:

Sum of individual times          ...      111.686 sec (=   1.861 min)
Startup calculation              ...        3.406 sec (=   0.057 min)   3.0 %
SCF iterations                   ...       56.920 sec (=   0.949 min)  51.0 %
Property calculations            ...        0.171 sec (=   0.003 min)   0.2 %
SCF Gradient evaluation          ...       51.189 sec (=   0.853 min)  45.8 %
                             ****ORCA TERMINATED NORMALLY****
TOTAL RUN TIME: 0 days 0 hours 1 minutes 52 seconds 736 msec
  ------------------------------------------------------------------------
          * successful ORCA run, taking over control again...

         :::::::::::::::::::::::::::::::::::::::::::::::::::::
         ::                  ORCA SUMMARY                   ::
         :::::::::::::::::::::::::::::::::::::::::::::::::::::
         :: total energy            -897.808557066620 Eh    ::
         :: gradient norm              0.000611300429 Eh/a0 ::
         :: HOMO-LUMO gap              0.000000000000 eV    ::
         :::::::::::::::::::::::::::::::::::::::::::::::::::::

      ----------------------------------------------------------- 
     |                       L-ANC optimizer                     |
      ----------------------------------------------------------- 
          low memory version by Sebastian Ehlert

          ...................................................
          :                      SETUP                      :
          :.................................................:
          :   energy convergence        0.5000000E-05 Eh    :
          :   grad. convergence         0.1000000E-02 Eh/a0 :
          :   optimization log               true           :
          :   writing optlog all                1     steps :
          :   Hessian reset                     8     steps :
          :   maximium step len.        1.0000000     a0    :
          :   LBFGS images                      8           :
          ...................................................
 * calculating model hessian...
Using Lindh-Hessian (1995)
 Shifting diagonal of input Hessian by   1.000000000000000E-002
 Lowest  eigenvalues of input Hessian
    0.000000    0.000000    0.000000    0.000000    0.000000    0.000000
    0.010656    0.011347    0.012307    0.012901    0.013452    0.016823
    0.018073    0.019787    0.022141    0.024612    0.026560    0.029709
 Highest eigenvalues
    1.922440    1.941470    2.018589    2.058847    2.085877    2.193599
 

........................................................................
.............................. CYCLE    1 ..............................
........................................................................
                         * ORCA takes the control...
  ------------------------------------------------------------------------

                                 *****************
                                 * O   R   C   A *
                                 *****************

                                            #,                                       
                                            ###                                      
                                            ####                                     
                                            #####                                    
                                            ######                                   
                                           ########,                                 
                                     ,,################,,,,,                         
                               ,,#################################,,                 
                          ,,##########################################,,             
                       ,#########################################, ''#####,          
                    ,#############################################,,   '####,        
                  ,##################################################,,,,####,       
                ,###########''''           ''''###############################       
              ,#####''   ,,,,##########,,,,          '''####'''          '####       
            ,##' ,,,,###########################,,,                        '##       
           ' ,,###''''                  '''############,,,                           
         ,,##''                                '''############,,,,        ,,,,,,###''
      ,#''                                            '''#######################'''  
     '                                                          ''''####''''         
             ,#######,   #######,   ,#######,      ##                                
            ,#'     '#,  ##    ##  ,#'     '#,    #''#        ,####,   ,####,        
            ##       ##  ##   ,#'  ##            #'  '#       #'       #'  '#        
            ##       ##  #######   ##           ,######,      #####,   #    #        
            '#,     ,#'  ##    ##  '#,     ,#' ,#      #,     #,   #   #,  ,#        
             '#######'   ##     ##  '#######'  #'      '#     '####' # '####'        



                #########################################################
                #                        -***-                          #
                #          Department of theory and spectroscopy        #
                #                                                       #
                #                      Frank Neese                      #
                #                                                       #
                #     Directorship, Architecture, Infrastructure        #
                #                    SHARK, DRIVERS                     #
                #        Core code/Algorithms in most modules           #
                #                                                       #
                #        Max Planck Institute fuer Kohlenforschung      #
                #                Kaiser Wilhelm Platz 1                 #
                #                 D-45470 Muelheim/Ruhr                 #
                #                      Germany                          #
                #                                                       #
                #                  All rights reserved                  #
                #                        -***-                          #
                #########################################################


                         Program Version 6.0.0  -   RELEASE  -


 With contributions from (in alphabetic order):
   Daniel Aravena         : Magnetic Suceptibility
   Michael Atanasov       : Ab Initio Ligand Field Theory (pilot matlab implementation)
   Alexander A. Auer      : GIAO ZORA, VPT2 properties, NMR spectrum
   Ute Becker             : All parallelization in ORCA, NUMFREQ, NUMCALC
   Giovanni Bistoni       : ED, misc. LED, open-shell LED, HFLD
   Martin Brehm           : Molecular dynamics
   Dmytro Bykov           : pre 5.0 version of the SCF Hessian
   Marcos Casanova-Páez   : Triplet and SCS-CIS(D). UHF-(DLPNO)-IP/EA/STEOM-CCSD. UHF-CVS-IP/STEOM-CCSD
   Vijay G. Chilkuri      : MRCI spin determinant printing, contributions to CSF-ICE
   Pauline Colinet        : FMM embedding
   Dipayan Datta          : RHF DLPNO-CCSD density
   Achintya Kumar Dutta   : EOM-CC, STEOM-CC
   Nicolas Foglia         : Exact transition moments, OPA infrastructure, MCD improvements
   Dmitry Ganyushin       : Spin-Orbit,Spin-Spin,Magnetic field MRCI
   Miquel Garcia          : C-PCM and meta-GGA Hessian, CCSD/C-PCM, Gaussian charge scheme
   Tiago L. C. Gouveia    : GS-ROHF, GS-ROCIS
   Yang Guo               : DLPNO-NEVPT2, F12-NEVPT2, CIM, IAO-localization
   Andreas Hansen         : Spin unrestricted coupled pair/coupled cluster methods
   Ingolf Harden          : AUTO-CI MPn and infrastructure 
   Benjamin Helmich-Paris : MC-RPA, TRAH-(SCF,CASSCF), AVAS, COSX integrals, SCF dyn. polar.
   Lee Huntington         : MR-EOM, pCC
   Robert Izsak           : Overlap fitted RIJCOSX, COSX-SCS-MP3, EOM
   Riya Kayal             : Wick's Theorem for AUTO-CI, AUTO-CI UHF-CCSDT
   Emily Kempfer          : AUTO-CI, RHF CISDT and CCSDT
   Christian Kollmar      : KDIIS, OOCD, Brueckner-CCSD(T), CCSD density, CASPT2, CASPT2-K, improved NEVPT2
   Axel Koslowski         : Symmetry handling
   Simone Kossmann        : Meta GGA functionals, TD-DFT gradient, OOMP2, (MP2 Hessian; deprecated post 5.0)
   Lucas Lang             : DCDCAS
   Marvin Lechner         : AUTO-CI (C++ implementation), FIC-MRCC
   Spencer Leger          : CASSCF response
   Dagmar Lenk            : GEPOL surface, SMD, ORCA-2-JSON
   Dimitrios Liakos       : Extrapolation schemes; Compound Job, initial MDCI parallelization
   Dimitrios Manganas     : Further ROCIS development; embedding schemes. LFT, Crystal Embedding
   Dimitrios Pantazis     : SARC Basis sets
   Anastasios Papadopoulos: AUTO-CI, single reference methods and gradients
   Taras Petrenko         : pre 6.0 DFT Hessian and TD-DFT gradient, (ASA, deprecated), ECA, 1-Electron XAS/XES, NRVS
   Peter Pinski           : DLPNO-MP2, DLPNO-MP2 Gradient
   Christoph Reimann      : Effective Core Potentials
   Marius Retegan         : Local ZFS, SOC
   Christoph Riplinger    : Optimizer, TS searches, QM/MM, DLPNO-CCSD(T), (RO)-DLPNO pert. Triples
   Michael Roemelt        : Original ROCIS implementation
   Masaaki Saitow         : Open-shell DLPNO-CCSD energy and density
   Barbara Sandhoefer     : DKH picture change effects
   Kantharuban Sivalingam : CASSCF convergence/infrastructure, NEVPT2 and variants, FIC-MRCI
   Bernardo de Souza      : ESD, SOC TD-DFT
   Georgi Stoychev        : AutoAux, RI-MP2 NMR, DLPNO-MP2 response, X2C
   Van Anh Tran           : RI-MP2 g-tensors
   Willem Van den Heuvel  : Paramagnetic NMR
   Zikuan Wang            : NOTCH, Electric field optimization 
   Frank Wennmohs         : Technical directorship and infrastructure
   Hang Xu                : AUTO-CI-Response properties 


 We gratefully acknowledge several colleagues who have allowed us to
 interface, adapt or use parts of their codes:
   Stefan Grimme, W. Hujo, H. Kruse, P. Pracht,  : VdW corrections, initial TS optimization,
                  C. Bannwarth, S. Ehlert,         DFT functionals, gCP, sTDA/sTD-DF
                  L. Wittmann, M. Mueller
   Ed Valeev, F. Pavosevic, A. Kumar             : LibInt (2-el integral package), F12 methods
   Garnet Chan, S. Sharma, J. Yang, R. Olivares  : DMRG
   Ulf Ekstrom                                   : XCFun DFT Library
   Mihaly Kallay                                 : mrcc  (arbitrary order and MRCC methods)
   Frank Weinhold                                : gennbo (NPA and NBO analysis)
   Simon Mueller                                 : openCOSMO-RS
   Christopher J. Cramer and Donald G. Truhlar   : smd solvation model
   Lars Goerigk                                  : TD-DFT with DH, B97 family of functionals
   V. Asgeirsson, H. Jonsson                     : NEB implementation
   FAccTs GmbH                                   : IRC, NEB, NEB-TS, DLPNO-Multilevel, CI-OPT
                                                   MM, QMMM, 2- and 3-layer-ONIOM, Crystal-QMMM,
                                                   LR-CPCM, SF, NACMEs, symmetry and pop. for TD-DFT,
                                                   nearIR, NL-DFT gradient (VV10), updates on ESD,
                                                   ML-optimized integration grids, MBIS, APM,
                                                   GOAT, DOCKER, SOLVATOR, interface openCOSMO-RS
   S Lehtola, MJT Oliveira, MAL Marques          : LibXC Library
   Liviu Ungur et al                             : ANISO software


 Your calculation uses the libint2 library for the computation of 2-el integrals
 For citations please refer to: http://libint.valeyev.net

 Your ORCA version has been built with support for libXC version: 6.2.2
 For citations please refer to: https://libxc.gitlab.io

 This ORCA versions uses:
   CBLAS   interface :  Fast vector & matrix operations
   LAPACKE interface :  Fast linear algebra routines
   SCALAPACK package :  Parallel linear algebra routines
   Shared memory     :  Shared parallel matrices
   BLAS/LAPACK       :  OpenBLAS 0.3.27  USE64BITINT DYNAMIC_ARCH NO_AFFINITY SkylakeX SINGLE_THREADED
        Core in use  :  SkylakeX
   Copyright (c) 2011-2014, The OpenBLAS Project




***************************************
The coordinates will be read from file: xtb_opt.xyz
***************************************


Your calculation utilizes the geometrical counterpoise correction gCP
Please cite in your paper:
H.Kruse, S. Grimme J.Chem.Phys., 136, (2012), 154101 
   

Your calculation utilizes the atom-pairwise dispersion correction
based on EEQ partial charges (D4)


Your calculation utilizes the SMD solvation module
Please cite in your paper:
A.V. Marenich, C.J. Cramer, D.G. Truhlar J. Phys. Chem. B, 113, (2009), 6378 

================================================================================

----- Orbital basis set information -----
Your calculation utilizes the basis: def2-mTZVPP
   Stefan Grimme, Andreas Hansen, Sebastian Ehlert, and Jan-Michael Mewes 
   J. Chem. Phys. 154, 064103 (2021). DOI: 10.1063/5.0040021

----- AuxJ basis set information -----
Your calculation utilizes the auxiliary basis: def2/J
   F. Weigend, Phys. Chem. Chem. Phys. 8, 1057 (2006).

================================================================================
                                        WARNINGS
                       Please study these warnings very carefully!
================================================================================

WARNING: Old DensityContainer found on disk!
         Will remove this file - 
         If you want to keep old densities, please start your calculation with a different basename. 

Using LibXC functional ID 497 : Re-regularized SCAN exchange by Furness et al
[ 1]  J. W. Furness, A. D. Kaplan, J. Ning, J. P. Perdew, and J. Sun.,  J. Phys. Chem. Lett. 11, 8208-8215 (2020)
[ 2]  J. W. Furness, A. D. Kaplan, J. Ning, J. P. Perdew, and J. Sun.,  J. Phys. Chem. Lett. 11, 9248-9248 (2020)
Using LibXC functional ID 498 : Re-regularized SCAN correlation by Furness et al
[ 1]  J. W. Furness, A. D. Kaplan, J. Ning, J. P. Perdew, and J. Sun.,  J. Phys. Chem. Lett. 11, 8208-8215 (2020)
[ 2]  J. W. Furness, A. D. Kaplan, J. Ning, J. P. Perdew, and J. Sun.,  J. Phys. Chem. Lett. 11, 9248-9248 (2020)
Using LibXC functional ID 497 : Re-regularized SCAN exchange by Furness et al
[ 1]  J. W. Furness, A. D. Kaplan, J. Ning, J. P. Perdew, and J. Sun.,  J. Phys. Chem. Lett. 11, 8208-8215 (2020)
[ 2]  J. W. Furness, A. D. Kaplan, J. Ning, J. P. Perdew, and J. Sun.,  J. Phys. Chem. Lett. 11, 9248-9248 (2020)
Using LibXC functional ID 498 : Re-regularized SCAN correlation by Furness et al
[ 1]  J. W. Furness, A. D. Kaplan, J. Ning, J. P. Perdew, and J. Sun.,  J. Phys. Chem. Lett. 11, 8208-8215 (2020)
[ 2]  J. W. Furness, A. D. Kaplan, J. Ning, J. P. Perdew, and J. Sun.,  J. Phys. Chem. Lett. 11, 9248-9248 (2020)

================================================================================
                                       INPUT FILE
================================================================================
NAME = xtb_opt.inp
|  1> ! r2scan-3c def2/J RI DEFGRID2 scfconv7 ENGRAD tightSCF miniprint
|  2> %cpcm
|  3>     smd true
|  4>     smdsolvent "water"
|  5> end
|  6> * xyzfile 0 1 xtb_opt.xyz
|  7> 
|  8>                          ****END OF INPUT****
================================================================================

                     *******************************
                     * Energy+Gradient Calculation *
                     *******************************

---------------------------------
CARTESIAN COORDINATES (ANGSTROEM)
---------------------------------
  C     -4.621730   -1.005388    0.276378
  C     -3.934182   -2.201902    0.066656
  C     -2.559158   -2.195402   -0.125548
  C     -1.849602   -0.991476   -0.108019
  C     -2.543562    0.211056    0.104519
  C     -3.928714    0.195867    0.293891
  C     -1.815712    1.491292    0.127114
  O     -2.417090    2.560001    0.279230
  C     -0.341654    1.456964   -0.034485
  C      0.334669    2.662140    0.047450
  C      1.726271    2.686015   -0.091103
  C      2.436317    1.530689   -0.313188
  C      1.783566    0.273217   -0.418057
  C      0.352940    0.235833   -0.264432
  C     -0.379945   -1.013586   -0.318526
  O      0.173973   -2.116629   -0.529932
  N      2.481417   -0.851526   -0.684308
  C      3.928434   -0.995340   -0.683596
  C      4.499584   -1.325728    0.690857
  O      4.273617   -0.294569    1.660501
  H     -5.696170   -1.014399    0.426286
  H     -4.475376   -3.142325    0.053429
  H     -2.024852   -3.123977   -0.289112
  H     -4.450485    1.132368    0.455974
  H     -0.219060    3.576142    0.223062
  H      2.258129    3.629309   -0.019798
  H      3.512747    1.583890   -0.408919
  H      1.924375   -1.701976   -0.675673
  H      4.409458   -0.101627   -1.090749
  H      4.178793   -1.823591   -1.355469
  H      5.574002   -1.530088    0.579814
  H      4.017393   -2.224752    1.087343
  H      4.757861    0.489817    1.370124

----------------------------
CARTESIAN COORDINATES (A.U.)
----------------------------
  NO LB      ZA    FRAG     MASS         X           Y           Z
   0 C     6.0000    0    12.011   -8.733805   -1.899907    0.522279
   1 C     6.0000    0    12.011   -7.434526   -4.160992    0.125962
   2 C     6.0000    0    12.011   -4.836108   -4.148708   -0.237252
   3 C     6.0000    0    12.011   -3.495241   -1.873618   -0.204126
   4 C     6.0000    0    12.011   -4.806636    0.398837    0.197512
   5 C     6.0000    0    12.011   -7.424193    0.370134    0.555374
   6 C     6.0000    0    12.011   -3.431198    2.818133    0.240211
   7 O     8.0000    0    15.999   -4.567638    4.837701    0.527669
   8 C     6.0000    0    12.011   -0.645632    2.753262   -0.065167
   9 C     6.0000    0    12.011    0.632432    5.030715    0.089668
  10 C     6.0000    0    12.011    3.262180    5.075834   -0.172160
  11 C     6.0000    0    12.011    4.603971    2.892582   -0.591839
  12 C     6.0000    0    12.011    3.370451    0.516305   -0.790013
  13 C     6.0000    0    12.011    0.666960    0.445661   -0.499704
  14 C     6.0000    0    12.011   -0.717993   -1.915400   -0.601926
  15 O     8.0000    0    15.999    0.328761   -3.999850   -1.001426
  16 N     7.0000    0    14.007    4.689199   -1.609150   -1.293154
  17 C     6.0000    0    12.011    7.423665   -1.880920   -1.291810
  18 C     6.0000    0    12.011    8.502982   -2.505262    1.305530
  19 O     8.0000    0    15.999    8.075966   -0.556654    3.137892
  20 H     1.0000    0     1.008  -10.764201   -1.916937    0.805564
  21 H     1.0000    0     1.008   -8.457236   -5.938133    0.100966
  22 H     1.0000    0     1.008   -3.826415   -5.903460   -0.546343
  23 H     1.0000    0     1.008   -8.410198    2.139865    0.861666
  24 H     1.0000    0     1.008   -0.413964    6.757929    0.421525
  25 H     1.0000    0     1.008    4.267246    6.858399   -0.037414
  26 H     1.0000    0     1.008    6.638129    2.993119   -0.772745
  27 H     1.0000    0     1.008    3.636542   -3.216268   -1.276838
  28 H     1.0000    0     1.008    8.332668   -0.192048   -2.061217
  29 H     1.0000    0     1.008    7.896775   -3.446087   -2.561464
  30 H     1.0000    0     1.008   10.533337   -2.891448    1.095690
  31 H     1.0000    0     1.008    7.591773   -4.204172    2.054780
  32 H     1.0000    0     1.008    8.991054    0.925619    2.589160

------------------------------------------------------------------------------
                   ___                                                        
                  /   \      - P O W E R E D   B Y -                         
                 /     \                                                     
                 |  |  |   _    _      __       _____    __    __             
                 |  |  |  | |  | |    /  \     |  _  \  |  |  /  |          
                  \  \/   | |  | |   /    \    | | | |  |  | /  /          
                 / \  \   | |__| |  /  /\  \   | |_| |  |  |/  /          
                |  |  |   |  __  | /  /__\  \  |    /   |      \           
                |  |  |   | |  | | |   __   |  |    \   |  |\   \          
                \     /   | |  | | |  |  |  |  | |\  \  |  | \   \       
                 \___/    |_|  |_| |__|  |__|  |_| \__\ |__|  \__/        
                                                                              
                      - O R C A' S   B I G   F R I E N D -                    
                                      &                                       
                       - I N T E G R A L  F E E D E R -                       
                                                                              
 v1 FN, 2020, v2 2021, v3 2022-2024                                           
------------------------------------------------------------------------------


----------------------
SHARK INTEGRAL PACKAGE
----------------------

Number of atoms                             ...     33
Number of basis functions                   ...    465
Number of shells                            ...    223
Maximum angular momentum                    ...      2
Integral batch strategy                     ... SHARK/LIBINT Hybrid
RI-J (if used) integral strategy            ... SPLIT-RIJ (Revised 2003 algorithm where possible)
Printlevel                                  ...      1
Contraction scheme used                     ... SEGMENTED contraction
Prescreening option                         ... SCHWARTZ
   Thresh                                   ... 3.000e-11
   Tcut                                     ... 1.000e-12
   Tpresel                                  ... 1.000e-12 
Coulomb Range Separation                    ... NOT USED
Exchange Range Separation                   ... NOT USED
Multipole approximations                    ... NOT USED
Finite Nucleus Model                        ... NOT USED
CABS basis                                  ... NOT available
Auxiliary Coulomb fitting basis             ... AVAILABLE
   # of basis functions in Aux-J            ...   1123
   # of shells in Aux-J                     ...    365
   Maximum angular momentum in Aux-J        ...      4
Auxiliary J/K fitting basis                 ... NOT available
Auxiliary Correlation fitting basis         ... NOT available
Auxiliary 'external' fitting basis          ... NOT available

Checking pre-screening integrals            ... done (  0.0 sec) Dimension = 223
Check shell pair data                       ... done (  0.0 sec)
Shell pair information
Shell pair cut-off parameter TPreSel        ...   1.0e-12
Total number of shell pairs                 ...     24976
Shell pairs after pre-screening             ...     18500
Total number of primitive shell pairs       ...     92714
Primitive shell pairs kept                  ...     43953
          la=0 lb=0:   5566 shell pairs
          la=1 lb=0:   7028 shell pairs
          la=1 lb=1:   2203 shell pairs
          la=2 lb=0:   2131 shell pairs
          la=2 lb=1:   1353 shell pairs
          la=2 lb=2:    219 shell pairs

Calculating one electron integrals          ... done (  0.1 sec)
Calculating RI/J V-Matrix + Cholesky decomp.... done (  0.2 sec)
Calculating Nuclear repulsion               ... done (  0.0 sec) ENN=   1466.953759526348 Eh

Diagonalization of the overlap matrix:
Smallest eigenvalue                        ... 6.388e-06
Time for diagonalization                   ...    0.026 sec
Threshold for overlap eigenvalues          ... 1.000e-07
Number of eigenvalues below threshold      ... 0
Time for construction of square roots      ...    0.036 sec
Total time needed                          ...    0.082 sec

-------------------
DFT GRID GENERATION
-------------------

General Integration Accuracy     IntAcc      ... 4.388
Radial Grid Type                 RadialGrid  ... OptM3 with GC (2021)
Angular Grid (max. ang.)         AngularGrid ... 4 (Lebedev-302)
Angular grid pruning method      GridPruning ... 4 (adaptive)
Weight generation scheme         WeightScheme... mBecke (2022)
Basis function cutoff            BFCut       ... 1.0000e-11
Integration weight cutoff        WCut        ... 1.0000e-14
Partially contracted basis set               ... off
Rotationally invariant grid construction     ... off
Angular grids for H and He will be reduced by one unit
Diffuse basis detected: some atoms will have their outermost
                        angular grid increased by 1.

Total number of grid points                  ...   161866
Total number of batches                      ...     2548
Average number of points per batch           ...       63
Average number of grid points per atom       ...     4905
Initializing property integral containers    ... done (  0.0 sec)

SHARK setup successfully completed in   3.6 seconds

Maximum memory used throughout the entire STARTUP-calculation: 84.7 MB
Occupation numbers will be reassigned to an Aufbau configuration
             **** ENERGY FILE WAS UPDATED (xtb_opt.en.tmp) ****
Finished Guess after   0.9 sec
Maximum memory used throughout the entire GUESS-calculation: 45.5 MB
--------------------
CPCM SOLVATION MODEL
--------------------
CPCM parameters:
  Epsilon                                         ...      78.3550
  Refrac                                          ...       1.3328
  Rsolv                                           ...       1.3000
  Surface type                                    ... GAUSSIAN VDW
  Discretization scheme                           ... Constant charge density
    Threshold for H atoms                         ...       5.0000 (charges/Ang^2)
    Threshold for non-H atoms                     ...       5.0000 (charges/Ang^2)
  Epsilon function type                           ...         CPCM
Solvent:                                          ... WATER
SMD-CDS solvent descriptors:
  Soln                                            ...       1.3328
  Soln25                                          ...       1.3323
  Sola                                            ...       0.0000
  Solb                                            ...       0.0000
  Solg                                            ...       0.0000
  Solc                                            ...       0.0000
  Solh                                            ...       0.0000
Radii:
  Scheme                                          ... Element-dependent radii
  Radius for C  used is    3.4960 Bohr (=   1.8500 Ang.)
  Radius for O  used is    2.8724 Bohr (=   1.5200 Ang.)
  Radius for N  used is    3.5716 Bohr (=   1.8900 Ang.)
  Radius for H  used is    2.2677 Bohr (=   1.2000 Ang.)
Calculating surface                               ...        done! (  0.0s)
Cavity surface points                             ...         2451
Cavity Volume                                     ...    1731.9587
Cavity Surface-area                               ...     976.9763
Calculating surface distance matrix               ...        done! (  0.0s)
Performing Cholesky decomposition & store         ...        done! (  0.3s)
Overall time for CPCM initialization              ...                 0.3s

----------------------------------------D-I-I-S--------------------------------------------
Iteration    Energy (Eh)           Delta-E    RMSDP     MaxDP     DIISErr   Damp  Time(sec)
[...]
                          DFT DISPERSION CORRECTION                            
                                                                               
                                DFTD4 V3.4.0                                   
-------------------------------------------------------------------------------
-------------------------   ----------------
Dispersion correction           -0.015726615
-------------------------   ----------------

------------------   -----------------
gCP correction             0.015986275
------------------   -----------------

-------------------------   --------------------
FINAL SINGLE POINT ENERGY      -897.808558751636
-------------------------   --------------------

------------------------------------------------------------------------------
                         ORCA SCF GRADIENT CALCULATION
------------------------------------------------------------------------------

Nuc. rep. gradient        (SHARK) ... done (  0.0 sec)
HCore & Overlap gradient  (SHARK) ... done (  2.0 sec)
Split-RIJ-J gradient      (SHARK) ... done ( 12.1 sec)
XC gradient                       ... done ( 28.0 sec)
CPCM gradient                     ... done (  5.4 sec)
SMD gradient                      ... done (  0.0 sec)
Dispersion correction             ... done (  0.0 sec)

-------------------
DISPERSION GRADIENT
-------------------

   1   C   :   -0.000124334   -0.000036147    0.000014555
   2   C   :   -0.000100522   -0.000091404    0.000006041
   3   C   :   -0.000061849   -0.000131664   -0.000004993
   4   C   :   -0.000068473   -0.000084743   -0.000003291
   5   C   :   -0.000105581    0.000018256    0.000014203
   6   C   :   -0.000138179    0.000023852    0.000021348
   7   C   :   -0.000076006    0.000114982    0.000018278
   8   O   :   -0.000072638    0.000126464    0.000019078
   9   C   :   -0.000014963    0.000121124    0.000005213
  10   C   :    0.000011375    0.000166488    0.000011143
  11   C   :    0.000048353    0.000168391   -0.000003354
  12   C   :    0.000082127    0.000113705   -0.000026496
  13   C   :    0.000069118    0.000013596   -0.000042115
  14   C   :    0.000009471    0.000013358   -0.000025983
  15   C   :   -0.000009871   -0.000106826   -0.000027670
  16   O   :    0.000008417   -0.000144772   -0.000036487
  17   N   :    0.000077653   -0.000088644   -0.000061273
  18   C   :    0.000123641   -0.000056455   -0.000031243
  19   C   :    0.000103421   -0.000062648    0.000034562
  20   O   :    0.000114807   -0.000008246    0.000084129
  21   H   :   -0.000046398   -0.000006248    0.000006410
  22   H   :   -0.000028121   -0.000037400    0.000000914
  23   H   :   -0.000004339   -0.000058253   -0.000005074
  24   H   :   -0.000045819    0.000029717    0.000009409
  25   H   :   -0.000005382    0.000056623    0.000007799
  26   H   :    0.000019379    0.000056067    0.000001457
  27   H   :    0.000036644    0.000038049   -0.000010053
  28   H   :    0.000021093   -0.000039328   -0.000020082
  29   H   :    0.000041600   -0.000015901   -0.000019761
  30   H   :    0.000034102   -0.000030854   -0.000023715
  31   H   :    0.000029602   -0.000016304    0.000015778
  32   H   :    0.000037775   -0.000025540    0.000027027
  33   H   :    0.000033898   -0.000019295    0.000044243

Difference to translation invariance:
           :   -0.0000000000   -0.0000000000   -0.0000000000

Difference to rotation invariance:
           :   -0.0000000000   -0.0000000000    0.0000000000

Norm of the Dispersion gradient    ...    0.0006217686
RMS gradient                       ...    0.0000624901
MAX gradient                       ...    0.0001683912
gCP correction                   ... done

------------------
CARTESIAN GRADIENT
------------------

   1   C   :    0.000002606    0.000013897    0.000012597
   2   C   :    0.000009874   -0.000002898    0.000009050
   3   C   :    0.000004666   -0.000003461    0.000031833
   4   C   :   -0.000019093    0.000024244    0.000024740
   5   C   :    0.000004618   -0.000008661   -0.000035766
   6   C   :   -0.000024797   -0.000007378   -0.000026779
   7   C   :    0.000041956   -0.000031594    0.000174935
   8   O   :   -0.000013875    0.000007562   -0.000086977
   9   C   :   -0.000018966   -0.000009950   -0.000034948
  10   C   :    0.000042742    0.000018795   -0.000021703
  11   C   :   -0.000030916    0.000013853    0.000026644
  12   C   :   -0.000000063   -0.000026630    0.000008165
  13   C   :   -0.000028004    0.000032364    0.000012076
  14   C   :    0.000005835    0.000029178    0.000023563
  15   C   :    0.000009842   -0.000064262   -0.000151400
  16   O   :   -0.000020218    0.000034645    0.000055742
  17   N   :   -0.000079572    0.000000913   -0.000119798
  18   C   :   -0.000006335    0.000013780    0.000076995
  19   C   :    0.000064930    0.000038654    0.000072465
  20   O   :    0.000038309   -0.000058724   -0.000109438
  21   H   :    0.000000375    0.000000806    0.000020245
  22   H   :   -0.000005039    0.000001213    0.000004313
  23   H   :   -0.000004797   -0.000004832    0.000002697
  24   H   :    0.000007715    0.000008143    0.000002194
  25   H   :   -0.000014139   -0.000007089   -0.000004870
  26   H   :    0.000007840   -0.000007406    0.000017290
  27   H   :    0.000009541   -0.000006157    0.000009053
  28   H   :    0.000042301    0.000006229    0.000002408
  29   H   :   -0.000003167    0.000025170    0.000003005
  30   H   :    0.000011397    0.000013993    0.000028689
  31   H   :    0.000026225   -0.000080314    0.000005505
  32   H   :   -0.000067666    0.000023375   -0.000000710
  33   H   :    0.000005877    0.000012541   -0.000031815

Difference to translation invariance:
           :    0.0000000000    0.0000000000   -0.0000000000

Difference to rotation invariance:
           :   -0.0000692796    0.0004903309   -0.0003870911

Norm of the Cartesian gradient     ...    0.0004033763
RMS gradient                       ...    0.0000405408
MAX gradient                       ...    0.0001749347

-------
TIMINGS
-------

Total SCF gradient time     ....       52.093 sec

Densities                   ....       0.005 sec  (  0.0%)
One electron gradient       ....       2.045 sec  (  3.9%)
RI-J Coulomb gradient       ....      12.122 sec  ( 23.3%)
XC gradient                 ....      28.049 sec  ( 53.8%)
CPCM gradient               ....       5.369 sec  ( 10.3%)
   A-Matrix (El+Nuc)        ....       0.216 sec  (  0.4%)
   Potential                ....       5.153 sec  (  9.9%)
SMD gradient                ....       0.016 sec  (  0.0%)

Maximum memory used throughout the entire SCFGRAD-calculation: 72.5 MB

------------------------------------------------------------------------------
                              ORCA PROPERTY CALCULATIONS
------------------------------------------------------------------------------

GBWName                                 ... xtb_opt.gbw
Number of atoms                         ...     33
Number of basis functions               ...    465
Max core memory                         ...   1024 MB

Electric properties:
Dipole moment                           ... YES
Quadrupole moment                       ...  NO
Static polarizability (Dipole/Dipole)   ...  NO
Static polarizability (Dipole/Quad.)    ...  NO
Static polarizability (Quad./Quad.)     ...  NO
Static polarizability (Velocity)        ...  NO

Atomic electric properties:
Dipole moment                           ...  NO
Quadrupole moment                       ...  NO
Static polarizability                   ...  NO

Choice of electric origin               ... Center of mass
Position of electric origin             ...    -0.013473    -0.011663     0.030544

General magnetic properties:
Magnetizability                         ...  NO

EPR properties:
g-Tensor (aka g-matrix)                 ...  NO
Zero-Field splitting spin-orbit         ...  NO
Zero-field splitting spin-spin          ...  NO
Hyperfine couplings                     ...  NO (   0 nuclei)
Quadrupole couplings                    ...  NO (   0 nuclei)
Contact density                         ...  NO (   0 nuclei)

NMR properties:
Chemical shifts                         ...  NO (   0 nuclei)
Spin-rotation constants                 ...  NO (   0 nuclei)
Spin-spin couplings                     ...  NO (   0 nuclei,    0 pairs)

Choice of magnetic origin               ... GIAO
Position of magnetic origin             ...     0.000000     0.000000     0.000000

Properties with geometric perturbations:
SCF Hessian                             ...  NO
IR spectrum                             ...  NO
VCD spectrum                            ...  NO
X-ray spectroscopy properties:
SCF XES/XAS/RIXS spectra                ...  NO


-------------
DIPOLE MOMENT
-------------

Method             : SCF
Type of density    : Electron Density
Multiplicity       :   1
Irrep              :   0
Energy             :  -897.8088184119668540 Eh
Relativity type    : 
Basis              : AO
                                X                 Y                 Z
Electronic contribution:    -10.756292726       3.221788782      -0.905581622
Nuclear contribution   :     13.046705740      -3.915289780       0.153428496
                        -----------------------------------------
Total Dipole Moment    :      2.290413013      -0.693500998      -0.752153126
                        -----------------------------------------
Magnitude (a.u.)       :      2.508519430
Magnitude (Debye)      :      6.376149670



--------------------
Rotational spectrum 
--------------------
 
Rotational constants in cm-1:             0.021780             0.007637             0.005984 
Rotational constants in MHz :           652.935930           228.943050           179.382328 

Dipole components along the rotational axes: 
x,y,z [a.u.] :     2.252581     0.808136    -0.751973 
x,y,z [Debye]:     5.725607     2.054118    -1.911364 

 

Dipole moment calculation done in   0.0 sec 

Maximum memory used throughout the entire PROP-calculation: 42.7 MB

--------------------------------
SUGGESTED CITATIONS FOR THIS RUN
--------------------------------

Below you find a list of papers that are relevant to this ORCA run
We neither can nor want to force you to cite these papers, but we appreciate if you do
You receive ORCA, which is the product of decades of hard work by many enthusiastic individuals, for free
The only thing we kindly ask in return is that you cite our papers,
We deeply appreciate it, if you show your appreciation for ORCA by not just citing the generic ORCA reference.

Please note that relegating all ORCA citations to the supporting information does *not* help us.
SI sections are not indexed - citations you put there will not count into any citation statistics
But we need these citations in order to attract the funding resources that allow us to do what we are doing

Therefore, if you are a happy ORCA user, please consider citing a few of the papers listed below in the main body of your paper

In addition to the list printed below, the program has created the file xtb_opt.bibtex that contains the list in bibtex format
You can import this file easily into all common literature databanks and citation aid programs


List of essential papers. We consider these as the minimum necessary citations

  1. Neese,F.
     Software update: the ORCA program system, version 5.0
     WIRES Comput. Molec. Sci., 2022 12(1)e1606
     doi.org/10.1002/wcms.1606
  2. Grimme,S.; Hansen,A.; Ehlert,S.; Mewes,J.
     r2SCAN-3c: A 'Swiss army knife' composite electronic-structure method
     J. Chem. Phys., 2021 154 064103
     doi.org/10.1063/5.0040021

List of papers to cite with high priority. The work reported in these papers was absolutely
necessary for this run to complete.
Our perspective: the developers of density functionals and basis sets usually get cited in chemistry papers
Good! But without the algorithms to do something with them, the functionals or basis sets would not do anything.
Hence, in our opinion, the algorithm design and method developments papers are equally worthy of getting cited

  1. Neese,F.
     An improvement of the resolution of the identity approximation for the formation of the Coulomb matrix
     J. Comp. Chem., 2003 24(14)1740-1747
     doi.org/10.1002/jcc.10318
  2. Garcia-Rates,M.; Neese,F.
     Effect of the Solute Cavity on the Solvation Energy and its Derivatives within the Framework of the Gaussian Charge Scheme
     J. Comput. Chem., 2020 41 922-939
     doi.org/10.1002/jcc.26139
  3. Neese,F.
     The SHARK Integral Generation and Digestion System
     J. Comp. Chem., 2022  1-16
     doi.org/10.1002/jcc.26942
  4. Lehtola,S.; Steigemann,C.; Oliveira,M.; Marques,M.
     Recent developments in Libxc - A comprehensive library of functionals for density functional theory
     Software X, 2018 7 
     doi.org/10.1016/j.softx.2017.11.002
  5. Caldeweyher,E.; Bannwarth,C.; Grimme,S.
     Extension of the D3 dispersion coefficient model
     J. Chem. Phys., 2017 147 034112-XXXX
     doi.org/10.1063/1.4993215
  6. Caldeweyher,E.; Ehlert,S.; Hansen,A.; Neugebauer,H.; Spicher,S.; Bannwarth,C.; Grimme,S.
     A generally applicable atomic-charge dependent London dispersion correction
     J. Chem. Phys., 2019 150 154122-XXXX
     doi.org/10.1063/1.5090222
  7. Caldeweyher,E.; Mewes,J.; Ehlert,S.; Grimme,S.
     Extension and evaluation of the D4 London-dispersion model for periodic systems
     Phys. Chem. Chem. Phys., 2020 22(16)8499-8512
     doi.org/10.1039/D0CP00502A

List of suggested additional citations. These are papers that are important in the 'surrounding' of 
of this run, or papers that preceded the highly important papers. If you like your results we are grateful for a citation.

  1. Neese,F.
     The ORCA program system
     WIRES Comput. Molec. Sci., 2012 2(1)73-78
     doi.org/10.1002/wcms.81
  2. Neese,F.
     Software update: the ORCA program system, version 4.0
     WIRES Comput. Molec. Sci., 2018 8(1)1-6
     doi.org/10.1002/wcms.1327
  3. Neese,F.; Wennmohs,F.; Becker,U.; Riplinger,C.
     The ORCA quantum chemistry program package
     J. Chem. Phys., 2020 152 Art. No. L224108
     doi.org/10.1063/5.0004608

List of optional additional citations

  1. Neese,F.
     Approximate second-order SCF convergence for spin unrestricted wavefunctions
     Chem. Phys. Lett., 2000 325(1-3)93-98
     doi.org/10.1016/s0009-2614(00)00662-x

Timings for individual modules:

Sum of individual times          ...      113.169 sec (=   1.886 min)
Startup calculation              ...        3.912 sec (=   0.065 min)   3.5 %
SCF iterations                   ...       56.800 sec (=   0.947 min)  50.2 %
Property calculations            ...        0.178 sec (=   0.003 min)   0.2 %
SCF Gradient evaluation          ...       52.280 sec (=   0.871 min)  46.2 %
                             ****ORCA TERMINATED NORMALLY****
TOTAL RUN TIME: 0 days 0 hours 1 minutes 54 seconds 310 msec
  ------------------------------------------------------------------------
          * successful ORCA run, taking over control again...

         :::::::::::::::::::::::::::::::::::::::::::::::::::::
         ::                  ORCA SUMMARY                   ::
         :::::::::::::::::::::::::::::::::::::::::::::::::::::
         :: total energy            -897.808558751636 Eh    ::
         :: gradient norm              0.000403376340 Eh/a0 ::
         :: HOMO-LUMO gap              0.000000000000 eV    ::
         :::::::::::::::::::::::::::::::::::::::::::::::::::::

           -------------------------------------------------
          |                Property Printout                |
           -------------------------------------------------
           -------------------------------------------------
          |                Geometry Summary                 |
           -------------------------------------------------

      molecular mass/u    :      267.2799221
   center of mass at/Å    :       -0.0071256      -0.0061710       0.0161669
  moments of inertia/u·Å² :        0.7740024E+03   0.2207410E+04   0.2817287E+04
rotational constants/cm⁻¹ :        0.2177982E-01   0.7636836E-02   0.5983640E-02

 * 29 selected distances

     #   Z          #   Z                                           value/Å
     1   6 C        2   6 C                                       1.3958345
     2   6 C        3   6 C                                       1.3884071
     3   6 C        4   6 C                                       1.3975747
     4   6 C        5   6 C                                       1.4045765
     1   6 C        6   6 C                                       1.3869355
     5   6 C        6   6 C                                       1.3981197
     7   6 C        8   8 O                                       1.2356924
     9   6 C       10   6 C                                       1.3844040
    10   6 C       11   6 C                                       1.3986872
    11   6 C       12   6 C                                       1.3741421
    12   6 C       13   6 C                                       1.4206747
     9   6 C       14   6 C                                       1.4235502
    13   6 C       17   7 N                                       1.3501602
    17   7 N       18   6 C                                       1.4541463
    18   6 C       19   6 C                                       1.5246281 (max)
    19   6 C       20   8 O                                       1.4333737
     1   6 C       21   1 H                                       1.0848841
     2   6 C       22   1 H                                       1.0851092
     3   6 C       23   1 H                                       1.0837382
     6   6 C       24   1 H                                       1.0842282
    10   6 C       25   1 H                                       1.0829847
    11   6 C       26   1 H                                       1.0852461
    12   6 C       27   1 H                                       1.0819871
    17   7 N       28   1 H                                       1.0166788
    18   6 C       29   1 H                                       1.0935628
    18   6 C       30   1 H                                       1.0954868
    19   6 C       31   1 H                                       1.0993030
    19   6 C       32   1 H                                       1.0945111
    20   8 O       33   1 H                                       0.9664735 (min)

 * 6 distinct bonds (by element types)

   Z      Z             #   av. dist./Å        max./Å        min./Å
   1 H    6 C          11     1.0882765     1.0993030     1.0819871
   6 C    6 C          12     1.4081279     1.5246281     1.3741421
   1 H    7 N           1     1.0166788     1.0166788     1.0166788
   6 C    7 N           2     1.4021532     1.4541463     1.3501602
   1 H    8 O           1     0.9664735     0.9664735     0.9664735
   6 C    8 O           2     1.3345331     1.4333737     1.2356924


optimized geometry written to: xtbopt.coord


           -------------------------------------------------
          | TOTAL ENERGY             -897.808558751636 Eh   |
          | GRADIENT NORM               0.000403376340 Eh/α |
           -------------------------------------------------

------------------------------------------------------------------------
 * finished run on 2025/04/11 at 17:15:50.824     
------------------------------------------------------------------------
 total:
 * wall-time:     0 d,  0 h,  5 min, 30.727 sec
 *  cpu-time:     0 d,  0 h,  0 min,  3.691 sec
 * ratio c/w:     0.011 speedup
 SCF:
 * wall-time:     0 d,  0 h,  1 min, 52.820 sec
 *  cpu-time:     0 d,  0 h,  0 min,  1.221 sec
 * ratio c/w:     0.011 speedup
 ANC optimizer:
 * wall-time:     0 d,  0 h,  3 min, 37.698 sec
 *  cpu-time:     0 d,  0 h,  0 min,  1.936 sec
 * ratio c/w:     0.009 speedup

