33
 energy: -897.808557066620 gnorm: 0.000611300429 xtb: 6.7.1 (edcfbbe)
C           -4.62170957284659       -1.00540716156699        0.27677616509210
C           -3.93425919179087       -2.20194012335125        0.06696896273846
C           -2.55929252565102       -2.19552324192232       -0.12560475067993
C           -1.84960209277754       -0.99163441481262       -0.10822016537663
C           -2.54352798228835        0.21093980251499        0.10409847247748
C           -3.92863055165958        0.19578958993995        0.29399916450629
C           -1.81588190919043        1.49131683247800        0.12555273510525
O           -2.41722042499516        2.55996257997835        0.27821989159992
C           -0.34177158259305        1.45685757755413       -0.03512208790541
C            0.33447750966015        2.66204947682367        0.04761865478544
C            1.72609240485239        2.68599101458258       -0.09024152801679
C            2.43618992154031        1.53070800299438       -0.31244020184898
C            1.78362840411194        0.27321316607356       -0.41803160601324
C            0.35293447957464        0.23573525517354       -0.26485214997285
C           -0.37982832326578       -1.01381304645597       -0.31816260996420
O            0.17401852823062       -2.11668221203153       -0.53012919312146
N            2.48170854714629       -0.85129168660631       -0.68515595900007
C            3.92875912370308       -0.99522706048998       -0.68396887573999
C            4.49856996074914       -1.32544436465439        0.69115942798523
O            4.27551646978069       -0.29364475093168        1.66049908891066
H           -5.69611458471357       -1.01437933083920        0.42684131611370
H           -4.47550199000005       -3.14232464111062        0.05423434345828
H           -2.02508551487156       -3.12419182928133       -0.28889175698906
H           -4.45025746735252        1.13237322918555        0.45582745379667
H           -0.21949788263228        3.57591612692318        0.22306855669493
H            2.25805095305972        3.62917767053999       -0.01826458853604
H            3.51264221707697        1.58394096154440       -0.40768111649420
H            1.92490068845527       -1.70187068147357       -0.67656901625220
H            4.41005294796775       -0.10143216746396       -1.09060321556957
H            4.17940950932313       -1.82327769657291       -1.35598824452750
H            5.57250670093980       -1.53226568289884        0.58004630578070
H            4.01478272409211       -2.22339876549712        1.08798344627730
H            4.76019588569900        0.49009646642318        1.36874813256320
33
 energy: -897.808558725612 gnorm: 0.000423246838 xtb: 6.7.1 (edcfbbe)
C           -4.62173038616511       -1.00538751598364        0.27637836776683
C           -3.93418160564029       -2.20190193894074        0.06665605162877
C           -2.55915829061808       -2.19540172369657       -0.12554837073690
C           -1.84960202181809       -0.99147591939790       -0.10801889475534
C           -2.54356208281058        0.21105554580241        0.10451897731306
C           -3.92871398400076        0.19586652948466        0.29389104523962
C           -1.81571161556243        1.49129162252638        0.12711394834966
O           -2.41708976785658        2.56000132693234        0.27923033826745
C           -0.34165361986891        1.45696374723381       -0.03448496524251
C            0.33466855171852        2.66213967039941        0.04745025460505
C            1.72627142202804        2.68601541906671       -0.09110318231789
C            2.43631675415149        1.53068856500581       -0.31318767888419
C            1.78356580606190        0.27321696662362       -0.41805705740351
C            0.35293982096802        0.23583346898447       -0.26443198408277
C           -0.37994533580570       -1.01358613373395       -0.31852575348610
O            0.17397298609278       -2.11662939993255       -0.52993175085861
N            2.48141742804696       -0.85152565123009       -0.68430754225959
C            3.92843433970487       -0.99533982333032       -0.68359631999631
C            4.49958443854309       -1.32572776518771        0.69085694436740
O            4.27361698510654       -0.29456854576864        1.66050082113948
H           -5.69616965733291       -1.01439937066018        0.42628629044878
H           -4.47537643317779       -3.14232473556210        0.05342875808637
H           -2.02485154073829       -3.12397668435869       -0.28911221383259
H           -4.45048520662699        1.13236772776427        0.45597383507154
H           -0.21906042601765        3.57614209753499        0.22306165327093
H            2.25812912651710        3.62930855323107       -0.01979839615226
H            3.51274650823973        1.58389024883602       -0.40891919157370
H            1.92437534176348       -1.70197559914520       -0.67567346147460
H            4.40945807837768       -0.10162727422637       -1.09074925777762
H            4.17879323117643       -1.82359058507258       -1.35546854862203
H            5.57400202259740       -1.53008834368573        0.57981420662562
H            4.01739305941584       -2.22475205363395        1.08734289466513
H            4.75786090816225        0.48981664666812        1.37012441498311
33
 energy: -897.808558725612 gnorm: 0.000423246838 xtb: 6.7.1 (edcfbbe)
C           -4.62173038616511       -1.00538751598364        0.27637836776683
C           -3.93418160564029       -2.20190193894074        0.06665605162877
C           -2.55915829061808       -2.19540172369657       -0.12554837073690
C           -1.84960202181809       -0.99147591939790       -0.10801889475534
C           -2.54356208281058        0.21105554580241        0.10451897731306
C           -3.92871398400076        0.19586652948466        0.29389104523962
C           -1.81571161556243        1.49129162252638        0.12711394834966
O           -2.41708976785658        2.56000132693234        0.27923033826745
C           -0.34165361986891        1.45696374723381       -0.03448496524251
C            0.33466855171852        2.66213967039941        0.04745025460505
C            1.72627142202804        2.68601541906671       -0.09110318231789
C            2.43631675415149        1.53068856500581       -0.31318767888419
C            1.78356580606190        0.27321696662362       -0.41805705740351
C            0.35293982096802        0.23583346898447       -0.26443198408277
C           -0.37994533580570       -1.01358613373395       -0.31852575348610
O            0.17397298609278       -2.11662939993255       -0.52993175085861
N            2.48141742804696       -0.85152565123009       -0.68430754225959
C            3.92843433970487       -0.99533982333032       -0.68359631999631
C            4.49958443854309       -1.32572776518771        0.69085694436740
O            4.27361698510654       -0.29456854576864        1.66050082113948
H           -5.69616965733291       -1.01439937066018        0.42628629044878
H           -4.47537643317779       -3.14232473556210        0.05342875808637
H           -2.02485154073829       -3.12397668435869       -0.28911221383259
H           -4.45048520662699        1.13236772776427        0.45597383507154
H           -0.21906042601765        3.57614209753499        0.22306165327093
H            2.25812912651710        3.62930855323107       -0.01979839615226
H            3.51274650823973        1.58389024883602       -0.40891919157370
H            1.92437534176348       -1.70197559914520       -0.67567346147460
H            4.40945807837768       -0.10162727422637       -1.09074925777762
H            4.17879323117643       -1.82359058507258       -1.35546854862203
H            5.57400202259740       -1.53008834368573        0.57981420662562
H            4.01739305941584       -2.22475205363395        1.08734289466513
H            4.75786090816225        0.48981664666812        1.37012441498311
