14
 energy: -455.527007788267 gnorm: 0.020488030394 xtb: 6.7.1 (edcfbbe)
C           -2.98767692152392       -0.88990109909434       -0.22304720529884
C           -2.55142532353060        0.29076765102885        0.63763659448255
C           -1.78259581798992        1.35172508419899       -0.16821785927454
C           -0.34249534455177        1.52557244617602        0.26541114491761
I            0.87506684628777       -0.25200200171167       -0.05629278202494
H           -2.12718924694261       -1.37792076891059       -0.67498569199910
H           -3.51491207845755       -1.62347512621940        0.38178022756918
H           -3.65299701621874       -0.55786382694720       -1.01686932295060
H           -1.92442560885276       -0.07762908063440        1.45249952134364
H           -3.43535467112230        0.74158893552862        1.09101664238346
H           -1.81847946950582        1.10350403388899       -1.23071284664536
H           -2.25735722360029        2.32882184233196       -0.04727600222095
H           -0.26639534621805        1.72934480556632        1.33022931448946
H            0.14948187316624        2.31500344702584       -0.29661653113144
14
 energy: -455.527728572838 gnorm: 0.005894694040 xtb: 6.7.1 (edcfbbe)
C           -2.99879305697730       -0.90018353020126       -0.21994897228472
C           -2.55916792077571        0.28597186375130        0.63536561419746
C           -1.78088753590954        1.34910826942352       -0.16494570153373
C           -0.34460556147398        1.54847328699979        0.26642604580993
I            0.89217768667064       -0.24330550855506       -0.05671602224993
H           -2.13426333477620       -1.38789831441576       -0.67836128432750
H           -3.53099726585945       -1.64379554828223        0.37938974760744
H           -3.66488294700862       -0.57002230468459       -1.02206121175482
H           -1.93268285680280       -0.07477845481956        1.45885249281024
H           -3.44190800197240        0.74095416581825        1.09440826905863
H           -1.81516632553929        1.11707259037189       -1.23451626571469
H           -2.25144247184860        2.33293438138978       -0.04533143070887
H           -0.24780478878629        1.73467570475954        1.33608801210165
H            0.17366918602243        2.31832964650365       -0.30409414408887
14
 energy: -455.527774881145 gnorm: 0.002824386101 xtb: 6.7.1 (edcfbbe)
C           -3.00084116971691       -0.90103173570608       -0.22002708548094
C           -2.55863241198740        0.28453118668072        0.63574840791803
C           -1.77933880315995        1.34840870614756       -0.16446660706243
C           -0.34602825628488        1.55006958614079        0.26614265882846
I            0.90931290977501       -0.25063604349483       -0.05292386805515
H           -2.13823604908068       -1.39293275203540       -0.68239102588049
H           -3.53558210456226       -1.64647067435984        0.37851719019064
H           -3.66925203103862       -0.57323935527074       -1.02424416193444
H           -1.93412629368601       -0.07480879391270        1.46328861622492
H           -3.44039772642293        0.74319316312593        1.09601863218166
H           -1.81435476935230        1.12501336637483       -1.23701601988255
H           -2.25015449952284        2.33445330058267       -0.04289345304311
H           -0.24675335682266        1.73984112021997        1.33530915867685
H            0.16762947179444        2.32114501985235       -0.30650774048784
14
 energy: -455.527793704243 gnorm: 0.000921886293 xtb: 6.7.1 (edcfbbe)
C           -3.00139590908724       -0.90110135332752       -0.22040204783452
C           -2.55832071017926        0.28356970992838        0.63550822416890
C           -1.77805482490975        1.34694136752240       -0.16420767788517
C           -0.34715840985493        1.55120287387110        0.26685899481746
I            0.90851337191827       -0.24199010934129       -0.05026294035174
H           -2.14031082253163       -1.39497229206513       -0.68380360917882
H           -3.53678263984145       -1.64590664045178        0.37849037372907
H           -3.67062880170870       -0.57343684796712       -1.02422925975214
H           -1.93488399937442       -0.07605747534711        1.46386405075252
H           -3.43992907803239        0.74346359235524        1.09518392607386
H           -1.81407266602218        1.12573687562754       -1.23717597004304
H           -2.24947855142767        2.33322978199027       -0.04160354872736
H           -0.24351698147025        1.73932774247715        1.33560815519817
H            0.16926498406974        2.31752877943873       -0.30927414766543
14
 energy: -455.527794127775 gnorm: 0.000913363858 xtb: 6.7.1 (edcfbbe)
C           -3.00165391971025       -0.90127737058727       -0.22063771791064
C           -2.55728994084243        0.28264555163834        0.63462468319179
C           -1.77560673940748        1.34607424308209       -0.16318735639687
C           -0.34527139642092        1.55273387305132        0.26699054508724
I            0.90390636922761       -0.24431488025322       -0.04973617373484
H           -2.14171544343814       -1.39569364991728       -0.68436435755279
H           -3.53706348207269       -1.64505739800171        0.37865476030633
H           -3.67096745848346       -0.57209264303027       -1.02305992715017
H           -1.93440083010354       -0.07817865602699        1.46233294292886
H           -3.43901941533452        0.74227435815262        1.09363257982087
H           -1.81229184144289        1.12422255117562       -1.23557060455576
H           -2.24856938020850        2.33134536517177       -0.04046602100376
H           -0.24454346219867        1.74420114897566        1.33498666830064
H            0.16773172792345        2.32065340584200       -0.30964569217113
14
 energy: -455.527794127775 gnorm: 0.000913363858 xtb: 6.7.1 (edcfbbe)
C           -3.00165391971025       -0.90127737058727       -0.22063771791064
C           -2.55728994084243        0.28264555163834        0.63462468319179
C           -1.77560673940748        1.34607424308209       -0.16318735639687
C           -0.34527139642092        1.55273387305132        0.26699054508724
I            0.90390636922761       -0.24431488025322       -0.04973617373484
H           -2.14171544343814       -1.39569364991728       -0.68436435755279
H           -3.53706348207269       -1.64505739800171        0.37865476030633
H           -3.67096745848346       -0.57209264303027       -1.02305992715017
H           -1.93440083010354       -0.07817865602699        1.46233294292886
H           -3.43901941533452        0.74227435815262        1.09363257982087
H           -1.81229184144289        1.12422255117562       -1.23557060455576
H           -2.24856938020850        2.33134536517177       -0.04046602100376
H           -0.24454346219867        1.74420114897566        1.33498666830064
H            0.16773172792345        2.32065340584200       -0.30964569217113
