11
 energy: -1038.250350634077 gnorm: 0.027267710646 xtb: 6.7.1 (edcfbbe)
C            0.04859358692153        1.51698521477222       -0.26808004541879
C           -1.32310322298630        0.99238411053975        0.12557530655565
Cl          -1.57710179529886       -0.72181001571985       -0.38475714647050
C            1.19636570193014        0.99363026954030        0.58071068655733
Cl           1.61073167021376       -0.72215807112001        0.19624742068696
H            0.23868198580577        1.30392892827781       -1.32031194408507
H            0.02456425861089        2.60081837095249       -0.13780010456106
H           -1.46453298454897        1.00966752714741        1.20436888233369
H           -2.10854308783435        1.55954662359108       -0.36848539476329
H            0.95266378512215        1.01423493754943        1.64103539492719
H            2.10545313103298        1.55926742279095        0.39005339337284
11
 energy: -1038.252438615556 gnorm: 0.015782620799 xtb: 6.7.1 (edcfbbe)
C            0.04891571090633        1.47853708111860       -0.26934282793442
C           -1.33673315049427        0.98397856491689        0.11627344444244
Cl          -1.73219532274501       -0.72048176990113       -0.41190873855218
C            1.21233714633459        0.98512728179083        0.57693552501746
Cl           1.76564885740701       -0.72083265780889        0.22457317014139
H            0.24074420268116        1.30148235137718       -1.33142981452169
H            0.02280503421723        2.56694777840473       -0.12674932063223
H           -1.47371190854921        1.01318031700133        1.19888183882413
H           -2.10288357360426        1.60039983826681       -0.35697777980134
H            0.96276774438154        1.01789658160770        1.63921092615367
H            2.09608082398090        1.60025760649623        0.39909076307507
11
 energy: -1038.252770614497 gnorm: 0.007126960962 xtb: 6.7.1 (edcfbbe)
C            0.04979178304121        1.46457048536414       -0.27412663557202
C           -1.33677931964055        0.98956941350886        0.11974220355056
Cl          -1.71756521416673       -0.72187569148843       -0.41337655441735
C            1.21110373839876        0.99061921474000        0.58015361217610
Cl           1.75282121004069       -0.72209309555570        0.21734246661855
H            0.24226483985010        1.29806795363887       -1.33919438443347
H            0.02309855286376        2.55430492414919       -0.12804078215101
H           -1.47468182691312        1.01267105380412        1.20330928380846
H           -2.09899254304285        1.61193061725912       -0.35282093744447
H            0.96189542267351        1.01679124345649        1.64363524529230
H            2.09081892214249        1.61193680708654        0.40193375523404
11
 energy: -1038.252835471459 gnorm: 0.003620085958 xtb: 6.7.1 (edcfbbe)
C            0.04974878536695        1.46686054974951       -0.27397452012253
C           -1.33313161966646        0.99243736407214        0.12068606788611
Cl          -1.70937985416407       -0.72481006481808       -0.41091397184349
C            1.20727553758041        0.99331799280976        0.57970578007154
Cl           1.74482907234184       -0.72492105728051        0.21611494821206
H            0.24209956441496        1.29907458770481       -1.33821960323409
H            0.02358122900864        2.55765727576636       -0.13062236355322
H           -1.47193845860797        1.01086735494925        1.20406756199255
H           -2.09653235130250        1.61084188453283       -0.35294858599014
H            0.95886527085310        1.01421488736886        1.64331803830191
H            2.08835828903271        1.61095228456818        0.40134395354938
11
 energy: -1038.252858383541 gnorm: 0.001104842121 xtb: 6.7.1 (edcfbbe)
C            0.04951184391119        1.46901018612241       -0.27268017358389
C           -1.33161515686142        0.99513441274605        0.12117401441465
Cl          -1.70622814106849       -0.72727549926325       -0.40998926619375
C            1.20561512602769        0.99583021319895        0.57963173776469
Cl           1.74220270704965       -0.72714743728883        0.21471734009419
H            0.24175153768580        1.29966551637650       -1.33636074781922
H            0.02406132622791        2.56066822355724       -0.13292777483487
H           -1.47066346069911        1.01058125680264        1.20423236307727
H           -2.09755873194476        1.60842429123422       -0.35379882311676
H            0.95730718604470        1.01286145107372        1.64299286809968
H            2.08939116656321        1.60874053119603        0.40156578125695
11
 energy: -1038.252860606115 gnorm: 0.000443041710 xtb: 6.7.1 (edcfbbe)
C            0.04948278517213        1.47020962345098       -0.27249146334165
C           -1.33162197585680        0.99599261148382        0.12172611912040
Cl          -1.70636410706694       -0.72851317374311       -0.40974121813565
C            1.20538570097580        0.99648562786199        0.58015153309317
Cl           1.74290845640231       -0.72812755591741        0.21372770271317
H            0.24171992025206        1.30023349595407       -1.33619037805549
H            0.02426760629472        2.56191104595363       -0.13387902415544
H           -1.47137885953848        1.01124623634424        1.20451539551213
H           -2.09868278263561        1.60705145415190       -0.35462622458842
H            0.95752464867577        1.01240167257156        1.64345012576700
H            2.09053399314531        1.60760213395525        0.40191475680596
11
 energy: -1038.252860606115 gnorm: 0.000443041710 xtb: 6.7.1 (edcfbbe)
C            0.04948278517213        1.47020962345098       -0.27249146334165
C           -1.33162197585680        0.99599261148382        0.12172611912040
Cl          -1.70636410706694       -0.72851317374311       -0.40974121813565
C            1.20538570097580        0.99648562786199        0.58015153309317
Cl           1.74290845640231       -0.72812755591741        0.21372770271317
H            0.24171992025206        1.30023349595407       -1.33619037805549
H            0.02426760629472        2.56191104595363       -0.13387902415544
H           -1.47137885953848        1.01124623634424        1.20451539551213
H           -2.09868278263561        1.60705145415190       -0.35462622458842
H            0.95752464867577        1.01240167257156        1.64345012576700
H            2.09053399314531        1.60760213395525        0.40191475680596
