      -----------------------------------------------------------      
     |                   =====================                   |     
     |                           x T B                           |     
     |                   =====================                   |     
     |                         S. Grimme                         |     
     |          Mulliken Center for Theoretical Chemistry        |     
     |                    University of Bonn                     |     
      -----------------------------------------------------------      

   * xtb version 6.7.1 (edcfbbe) compiled by 'albert@albert-system' on 2024-07-22

   xtb is free software: you can redistribute it and/or modify it under
   the terms of the GNU Lesser General Public License as published by
   the Free Software Foundation, either version 3 of the License, or
   (at your option) any later version.
   
   xtb is distributed in the hope that it will be useful,
   but WITHOUT ANY WARRANTY; without even the implied warranty of
   MERCHANTABILITY or FITNESS FOR A PARTICULAR PURPOSE.  See the
   GNU Lesser General Public License for more details.
   
   Cite this work as:
   * C. Bannwarth, E. Caldeweyher, S. Ehlert, A. Hansen, P. Pracht,
     J. Seibert, S. Spicher, S. Grimme, WIREs Comput. Mol. Sci., 2020, 11,
     e01493. DOI: 10.1002/wcms.1493
   
   for GFN2-xTB:
   * C. Bannwarth, S. Ehlert and S. Grimme., J. Chem. Theory Comput., 2019,
     15, 1652-1671. DOI: 10.1021/acs.jctc.8b01176
   for GFN1-xTB:
   * S. Grimme, C. Bannwarth, P. Shushkov, J. Chem. Theory Comput., 2017,
     13, 1989-2009. DOI: 10.1021/acs.jctc.7b00118
   for GFN0-xTB:
   * P. Pracht, E. Caldeweyher, S. Ehlert, S. Grimme, ChemRxiv, 2019, preprint.
     DOI: 10.26434/chemrxiv.8326202.v1
   for GFN-FF:
   * S. Spicher and S. Grimme, Angew. Chem. Int. Ed., 2020, 59, 15665-15673.
     DOI: 10.1002/anie.202004239
   
   for ALPB and GBSA implicit solvation:
   * S. Ehlert, M. Stahn, S. Spicher, S. Grimme, J. Chem. Theory Comput.,
     2021, 17, 4250-4261. DOI: 10.1021/acs.jctc.1c00471
   
   for ddCOSMO and CPCM-X implicit solvation:
   * M. Stahn, S. Ehlert, S. Grimme, J. Phys. Chem. A,
     2023, XX, XXXX-XXXX. DOI: 10.1021/acs.jpca.3c04382
   
   for DFT-D4:
   * E. Caldeweyher, C. Bannwarth and S. Grimme, J. Chem. Phys., 2017,
     147, 034112. DOI: 10.1063/1.4993215
   * E. Caldeweyher, S. Ehlert, A. Hansen, H. Neugebauer, S. Spicher,
     C. Bannwarth and S. Grimme, J. Chem. Phys., 2019, 150, 154122.
     DOI: 10.1063/1.5090222
   * E. Caldeweyher, J.-M. Mewes, S. Ehlert and S. Grimme, Phys. Chem. Chem. Phys.
     2020, 22, 8499-8512. DOI: 10.1039/D0CP00502A
   
   for sTDA-xTB:
   * S. Grimme and C. Bannwarth, J. Chem. Phys., 2016, 145, 054103.
     DOI: 10.1063/1.4959605
   
   in the mass-spec context:
   * V. Asgeirsson, C. Bauer and S. Grimme, Chem. Sci., 2017, 8, 4879.
     DOI: 10.1039/c7sc00601b
   * J. Koopman and S. Grimme, ACS Omega 2019, 4, 12, 15120-15133.
     DOI: 10.1021/acsomega.9b02011
   
   for metadynamics refer to:
   * S. Grimme, J. Chem. Theory Comput., 2019, 155, 2847-2862
     DOI: 10.1021/acs.jctc.9b00143
   
   for SPH calculations refer to:
   * S. Spicher and S. Grimme, J. Chem. Theory Comput., 2021, 17, 1701-1714
     DOI: 10.1021/acs.jctc.0c01306
   
   for ONIOM refer to:
   * C. Plett, A. Katbashev, S. Ehlert, S. Grimme, M. Bursch,
     Phys. Chem. Chem. Phys., 2023, 25, 17860-17868. DOI: 10.1039/D3CP02178E
   
   for DIPRO refer to:
   * J. Kohn, N. Gildemeister, S. Grimme, D. Fazzi, A. Hansen,
     J. Chem. Phys., 2023, just accepted.
   
   for PTB refer to:
   * S. Grimme, M. Mueller, A. Hansen, J. Chem. Phys., 2023, 158, 124111.
     DOI: 10.1063/5.0137838
   
   with help from (in alphabetical order)
   P. Atkinson, C. Bannwarth, F. Bohle, G. Brandenburg, E. Caldeweyher
   M. Checinski, S. Dohm, S. Ehlert, S. Ehrlich, I. Gerasimov, C. Hölzer
   A. Katbashev, J. Kohn, J. Koopman, C. Lavigne, S. Lehtola, F. März, M. Müller,
   F. Musil, H. Neugebauer, J. Pisarek, C. Plett, P. Pracht, F. Pultar,
   J. Seibert, P. Shushkov, S. Spicher, M. Stahn, M. Steiner, T. Strunk,
   J. Stückrath, T. Rose, and J. Unsleber
   
 * started run on 2025/04/11 at 15:59:02.575     
   ID    Z sym.   atoms
    1    6 C      1-5, 8
    2    8 O      6, 7
    3    1 H      9-20

           -------------------------------------------------
          |                Calculation Setup                |
           -------------------------------------------------

          program call               : /srv/scratch/z5358697/.xtb/bin/xtb gas.coord --gfn2 --sp --chrg 0 --norestart --parallel 1
          hostname                   : k068
          coordinate file            : gas.coord
          omp threads                :                     1


           -------------------------------------------------
          |                 G F N 2 - x T B                 |
           -------------------------------------------------

        Reference                      10.1021/acs.jctc.8b01176
      * Hamiltonian:
        H0-scaling (s, p, d)           1.850000    2.230000    2.230000
        zeta-weighting                 0.500000
      * Dispersion:
        s8                             2.700000
        a1                             0.520000
        a2                             5.000000
        s9                             5.000000
      * Repulsion:
        kExp                           1.500000    1.000000
        rExp                           1.000000
      * Coulomb:
        alpha                          2.000000
        third order                    shell-resolved
        anisotropic                    true
        a3                             3.000000
        a5                             4.000000
        cn-shift                       1.200000
        cn-exp                         4.000000
        max-rad                        5.000000


          ...................................................
          :                      SETUP                      :
          :.................................................:
          :  # basis functions                  44          :
          :  # atomic orbitals                  44          :
          :  # shells                           28          :
          :  # electrons                        48          :
          :  max. iterations                   250          :
          :  Hamiltonian                  GFN2-xTB          :
          :  restarted?                      false          :
          :  GBSA solvation                  false          :
          :  PC potential                    false          :
          :  electronic temp.          300.0000000     K    :
          :  accuracy                    1.0000000          :
          :  -> integral cutoff          0.2500000E+02      :
          :  -> integral neglect         0.1000000E-07      :
          :  -> SCF convergence          0.1000000E-05 Eh   :
          :  -> wf. convergence          0.1000000E-03 e    :
          :  Broyden damping             0.4000000          :
          :  net charge                          0          :
          :  unpaired electrons                  0          :
          ...................................................

 iter      E             dE          RMSdq      gap      omega  full diag
   1    -27.3523209 -0.273523E+02  0.391E+00    5.95       0.0  T
   2    -27.4213271 -0.690062E-01  0.204E+00    4.73       1.0  T
   3    -27.4242227 -0.289554E-02  0.113E+00    5.21       1.0  T
   4    -27.4265259 -0.230326E-02  0.182E-01    4.91       1.0  T
   5    -27.4268389 -0.313010E-03  0.739E-02    4.98       1.0  T
   6    -27.4268443 -0.535331E-05  0.192E-02    4.98       1.2  T
   7    -27.4268451 -0.805620E-06  0.729E-03    4.98       3.1  T
   8    -27.4268452 -0.145076E-06  0.174E-03    4.98      12.8  T
   9    -27.4268452 -0.567547E-08  0.905E-04    4.98      24.7  T
  10    -27.4268453 -0.236798E-08  0.192E-04    4.98     116.7  T

   *** convergence criteria satisfied after 10 iterations ***

         #    Occupation            Energy/Eh            Energy/eV
      -------------------------------------------------------------
         1        2.0000           -0.7442921             -20.2532
       ...           ...                  ...                  ...
        18        2.0000           -0.4751699             -12.9300
        19        2.0000           -0.4602697             -12.5246
        20        2.0000           -0.4481207             -12.1940
        21        2.0000           -0.4437670             -12.0755
        22        2.0000           -0.4340171             -11.8102
        23        2.0000           -0.4324101             -11.7665
        24        2.0000           -0.4103242             -11.1655 (HOMO)
        25                         -0.2274664              -6.1897 (LUMO)
        26                          0.0035213               0.0958
        27                          0.0921391               2.5072
        28                          0.1010062               2.7485
        29                          0.1186500               3.2286
       ...                                ...                  ...
        44                          0.6277886              17.0830
      -------------------------------------------------------------
                  HL-Gap            0.1828578 Eh            4.9758 eV
             Fermi-level           -0.3188953 Eh           -8.6776 eV

 SCC (total)                   0 d,  0 h,  0 min,  0.019 sec
 SCC setup                      ...        0 min,  0.000 sec (  0.875%)
 Dispersion                     ...        0 min,  0.000 sec (  0.564%)
 classical contributions        ...        0 min,  0.000 sec (  0.120%)
 integral evaluation            ...        0 min,  0.002 sec (  7.881%)
 iterations                     ...        0 min,  0.012 sec ( 64.564%)
 molecular gradient             ...        0 min,  0.005 sec ( 25.101%)
 printout                       ...        0 min,  0.000 sec (  0.823%)

         :::::::::::::::::::::::::::::::::::::::::::::::::::::
         ::                     SUMMARY                     ::
         :::::::::::::::::::::::::::::::::::::::::::::::::::::
         :: total energy             -27.111560003284 Eh    ::
         :: gradient norm              0.027040724495 Eh/a0 ::
         :: HOMO-LUMO gap              4.975814401238 eV    ::
         ::.................................................::
         :: SCC energy               -27.426869454446 Eh    ::
         :: -> isotropic ES            0.047036685758 Eh    ::
         :: -> anisotropic ES          0.003232941533 Eh    ::
         :: -> anisotropic XC          0.007712120210 Eh    ::
         :: -> dispersion             -0.011570816773 Eh    ::
         :: repulsion energy           0.315309451163 Eh    ::
         :: add. restraining           0.000000000000 Eh    ::
         :: total charge              -0.000000000000 e     ::
         :::::::::::::::::::::::::::::::::::::::::::::::::::::

           -------------------------------------------------
          |                Property Printout                |
           -------------------------------------------------

    * Orbital Energies and Occupations

         #    Occupation            Energy/Eh            Energy/eV
      -------------------------------------------------------------
         1        2.0000           -0.7442921             -20.2532
       ...           ...                  ...                  ...
        12        2.0000           -0.5223009             -14.2125
        13        2.0000           -0.5125965             -13.9485
        14        2.0000           -0.5084653             -13.8360
        15        2.0000           -0.4989264             -13.5765
        16        2.0000           -0.4842946             -13.1783
        17        2.0000           -0.4763361             -12.9618
        18        2.0000           -0.4751699             -12.9300
        19        2.0000           -0.4602697             -12.5246
        20        2.0000           -0.4481207             -12.1940
        21        2.0000           -0.4437670             -12.0755
        22        2.0000           -0.4340171             -11.8102
        23        2.0000           -0.4324101             -11.7665
        24        2.0000           -0.4103242             -11.1655 (HOMO)
        25                         -0.2274664              -6.1897 (LUMO)
        26                          0.0035213               0.0958
        27                          0.0921391               2.5072
        28                          0.1010062               2.7485
        29                          0.1186500               3.2286
        30                          0.1307109               3.5568
        31                          0.1354321               3.6853
        32                          0.1392462               3.7891
        33                          0.1441361               3.9221
        34                          0.1716481               4.6708
        35                          0.1837463               5.0000
       ...                                ...                  ...
        44                          0.6277886              17.0830
      -------------------------------------------------------------
                  HL-Gap            0.1828578 Eh            4.9758 eV
             Fermi-level           -0.3188953 Eh           -8.6776 eV

     #   Z          covCN         q      C6AA      α(0)
     1   6 C        3.752    -0.105    22.573     6.775
     2   6 C        3.800    -0.055    21.557     6.611
     3   6 C        3.804    -0.053    21.519     6.604
     4   6 C        3.804    -0.091    22.230     6.712
     5   6 C        2.718     0.355    20.975     7.497
     6   8 O        0.856    -0.421    22.111     6.304
     7   8 O        1.704    -0.260    18.307     5.777
     8   6 C        3.649     0.030    20.390     6.487
     9   1 H        0.925     0.039     2.456     2.451
    10   1 H        0.925     0.036     2.507     2.476
    11   1 H        0.925     0.036     2.503     2.474
    12   1 H        0.924     0.036     2.499     2.472
    13   1 H        0.924     0.034     2.526     2.486
    14   1 H        0.924     0.034     2.526     2.486
    15   1 H        0.924     0.053     2.282     2.362
    16   1 H        0.925     0.072     2.063     2.246
    17   1 H        0.925     0.058     2.222     2.331
    18   1 H        0.924     0.066     2.132     2.284
    19   1 H        0.925     0.070     2.082     2.256
    20   1 H        0.924     0.065     2.144     2.290

 Mol. C6AA /au·bohr⁶  :       3023.065630
 Mol. C8AA /au·bohr⁸  :      64070.064795
 Mol. α(0) /au        :         81.381401


Wiberg/Mayer (AO) data.
largest (>0.10) Wiberg bond orders for each atom

 ---------------------------------------------------------------------------
     #   Z sym  total        # sym  WBO       # sym  WBO       # sym  WBO
 ---------------------------------------------------------------------------
     1   6 C    3.997 --     2 C    1.020     9 H    0.987    11 H    0.987
                            10 H    0.986
     2   6 C    3.997 --     1 C    1.020     3 C    1.006    13 H    0.978
                            12 H    0.977
     3   6 C    3.993 --     2 C    1.006     4 C    0.985    14 H    0.979
                            15 H    0.976
     4   6 C    3.994 --     3 C    0.985    17 H    0.976     5 C    0.975
                            16 H    0.953
     5   6 C    3.914 --     6 O    1.741     7 O    1.141     4 C    0.975
     6   8 O    2.020 --     5 C    1.741     7 O    0.173
     7   8 O    2.310 --     5 C    1.141     8 C    0.952     6 O    0.173
     8   6 C    3.925 --    19 H    0.982    20 H    0.978    18 H    0.978
                             7 O    0.952
     9   1 H    0.998 --     1 C    0.987
    10   1 H    0.999 --     1 C    0.986
    11   1 H    0.998 --     1 C    0.987
    12   1 H    0.998 --     2 C    0.977
    13   1 H    0.999 --     2 C    0.978
    14   1 H    0.999 --     3 C    0.979
    15   1 H    0.997 --     3 C    0.976
    16   1 H    0.995 --     4 C    0.953
    17   1 H    0.997 --     4 C    0.976
    18   1 H    0.996 --     8 C    0.978
    19   1 H    0.995 --     8 C    0.982
    20   1 H    0.996 --     8 C    0.978
 ---------------------------------------------------------------------------

Topologies differ in total number of bonds
Writing topology from bond orders to xtbtopo.mol

molecular dipole:
                 x           y           z       tot (Debye)
 q only:       -0.039      -0.371       0.662
   full:        0.001      -0.434       0.731       2.160
molecular quadrupole (traceless):
                xx          xy          yy          xz          yz          zz
 q only:        8.046      -0.717      -2.636       2.983       2.379      -5.410
  q+dip:        6.301      -1.277      -1.454       3.187       3.068      -4.847
   full:        6.988      -1.185      -1.551       3.093       3.665      -5.437


           -------------------------------------------------
          | TOTAL ENERGY              -27.111560003284 Eh   |
          | GRADIENT NORM               0.027040724495 Eh/α |
          | HOMO-LUMO GAP               4.975814401238 eV   |
           -------------------------------------------------

------------------------------------------------------------------------
 * finished run on 2025/04/11 at 15:59:02.632     
------------------------------------------------------------------------
 total:
 * wall-time:     0 d,  0 h,  0 min,  0.057 sec
 *  cpu-time:     0 d,  0 h,  0 min,  0.021 sec
 * ratio c/w:     0.370 speedup
 SCF:
 * wall-time:     0 d,  0 h,  0 min,  0.019 sec
 *  cpu-time:     0 d,  0 h,  0 min,  0.014 sec
 * ratio c/w:     0.696 speedup

