
                                 *****************
                                 * O   R   C   A *
                                 *****************

                                            #,                                       
                                            ###                                      
                                            ####                                     
                                            #####                                    
                                            ######                                   
                                           ########,                                 
                                     ,,################,,,,,                         
                               ,,#################################,,                 
                          ,,##########################################,,             
                       ,#########################################, ''#####,          
                    ,#############################################,,   '####,        
                  ,##################################################,,,,####,       
                ,###########''''           ''''###############################       
              ,#####''   ,,,,##########,,,,          '''####'''          '####       
            ,##' ,,,,###########################,,,                        '##       
           ' ,,###''''                  '''############,,,                           
         ,,##''                                '''############,,,,        ,,,,,,###''
      ,#''                                            '''#######################'''  
     '                                                          ''''####''''         
             ,#######,   #######,   ,#######,      ##                                
            ,#'     '#,  ##    ##  ,#'     '#,    #''#        ,####,   ,####,        
            ##       ##  ##   ,#'  ##            #'  '#       #'       #'  '#        
            ##       ##  #######   ##           ,######,      #####,   #    #        
            '#,     ,#'  ##    ##  '#,     ,#' ,#      #,     #,   #   #,  ,#        
             '#######'   ##     ##  '#######'  #'      '#     '####' # '####'        



                #########################################################
                #                        -***-                          #
                #          Department of theory and spectroscopy        #
                #                                                       #
                #                      Frank Neese                      #
                #                                                       #
                #     Directorship, Architecture, Infrastructure        #
                #                    SHARK, DRIVERS                     #
                #        Core code/Algorithms in most modules           #
                #                                                       #
                #        Max Planck Institute fuer Kohlenforschung      #
                #                Kaiser Wilhelm Platz 1                 #
                #                 D-45470 Muelheim/Ruhr                 #
                #                      Germany                          #
                #                                                       #
                #                  All rights reserved                  #
                #                        -***-                          #
                #########################################################


                         Program Version 6.0.0  -   RELEASE  -


 With contributions from (in alphabetic order):
   Daniel Aravena         : Magnetic Suceptibility
   Michael Atanasov       : Ab Initio Ligand Field Theory (pilot matlab implementation)
   Alexander A. Auer      : GIAO ZORA, VPT2 properties, NMR spectrum
   Ute Becker             : All parallelization in ORCA, NUMFREQ, NUMCALC
   Giovanni Bistoni       : ED, misc. LED, open-shell LED, HFLD
   Martin Brehm           : Molecular dynamics
   Dmytro Bykov           : pre 5.0 version of the SCF Hessian
   Marcos Casanova-Páez   : Triplet and SCS-CIS(D). UHF-(DLPNO)-IP/EA/STEOM-CCSD. UHF-CVS-IP/STEOM-CCSD
   Vijay G. Chilkuri      : MRCI spin determinant printing, contributions to CSF-ICE
   Pauline Colinet        : FMM embedding
   Dipayan Datta          : RHF DLPNO-CCSD density
   Achintya Kumar Dutta   : EOM-CC, STEOM-CC
   Nicolas Foglia         : Exact transition moments, OPA infrastructure, MCD improvements
   Dmitry Ganyushin       : Spin-Orbit,Spin-Spin,Magnetic field MRCI
   Miquel Garcia          : C-PCM and meta-GGA Hessian, CCSD/C-PCM, Gaussian charge scheme
   Tiago L. C. Gouveia    : GS-ROHF, GS-ROCIS
   Yang Guo               : DLPNO-NEVPT2, F12-NEVPT2, CIM, IAO-localization
   Andreas Hansen         : Spin unrestricted coupled pair/coupled cluster methods
   Ingolf Harden          : AUTO-CI MPn and infrastructure 
   Benjamin Helmich-Paris : MC-RPA, TRAH-(SCF,CASSCF), AVAS, COSX integrals, SCF dyn. polar.
   Lee Huntington         : MR-EOM, pCC
   Robert Izsak           : Overlap fitted RIJCOSX, COSX-SCS-MP3, EOM
   Riya Kayal             : Wick's Theorem for AUTO-CI, AUTO-CI UHF-CCSDT
   Emily Kempfer          : AUTO-CI, RHF CISDT and CCSDT
   Christian Kollmar      : KDIIS, OOCD, Brueckner-CCSD(T), CCSD density, CASPT2, CASPT2-K, improved NEVPT2
   Axel Koslowski         : Symmetry handling
   Simone Kossmann        : Meta GGA functionals, TD-DFT gradient, OOMP2, (MP2 Hessian; deprecated post 5.0)
   Lucas Lang             : DCDCAS
   Marvin Lechner         : AUTO-CI (C++ implementation), FIC-MRCC
   Spencer Leger          : CASSCF response
   Dagmar Lenk            : GEPOL surface, SMD, ORCA-2-JSON
   Dimitrios Liakos       : Extrapolation schemes; Compound Job, initial MDCI parallelization
   Dimitrios Manganas     : Further ROCIS development; embedding schemes. LFT, Crystal Embedding
   Dimitrios Pantazis     : SARC Basis sets
   Anastasios Papadopoulos: AUTO-CI, single reference methods and gradients
   Taras Petrenko         : pre 6.0 DFT Hessian and TD-DFT gradient, (ASA, deprecated), ECA, 1-Electron XAS/XES, NRVS
   Peter Pinski           : DLPNO-MP2, DLPNO-MP2 Gradient
   Christoph Reimann      : Effective Core Potentials
   Marius Retegan         : Local ZFS, SOC
   Christoph Riplinger    : Optimizer, TS searches, QM/MM, DLPNO-CCSD(T), (RO)-DLPNO pert. Triples
   Michael Roemelt        : Original ROCIS implementation
   Masaaki Saitow         : Open-shell DLPNO-CCSD energy and density
   Barbara Sandhoefer     : DKH picture change effects
   Kantharuban Sivalingam : CASSCF convergence/infrastructure, NEVPT2 and variants, FIC-MRCI
   Bernardo de Souza      : ESD, SOC TD-DFT
   Georgi Stoychev        : AutoAux, RI-MP2 NMR, DLPNO-MP2 response, X2C
   Van Anh Tran           : RI-MP2 g-tensors
   Willem Van den Heuvel  : Paramagnetic NMR
   Zikuan Wang            : NOTCH, Electric field optimization 
   Frank Wennmohs         : Technical directorship and infrastructure
   Hang Xu                : AUTO-CI-Response properties 


 We gratefully acknowledge several colleagues who have allowed us to
 interface, adapt or use parts of their codes:
   Stefan Grimme, W. Hujo, H. Kruse, P. Pracht,  : VdW corrections, initial TS optimization,
                  C. Bannwarth, S. Ehlert,         DFT functionals, gCP, sTDA/sTD-DF
                  L. Wittmann, M. Mueller
   Ed Valeev, F. Pavosevic, A. Kumar             : LibInt (2-el integral package), F12 methods
   Garnet Chan, S. Sharma, J. Yang, R. Olivares  : DMRG
   Ulf Ekstrom                                   : XCFun DFT Library
   Mihaly Kallay                                 : mrcc  (arbitrary order and MRCC methods)
   Frank Weinhold                                : gennbo (NPA and NBO analysis)
   Simon Mueller                                 : openCOSMO-RS
   Christopher J. Cramer and Donald G. Truhlar   : smd solvation model
   Lars Goerigk                                  : TD-DFT with DH, B97 family of functionals
   V. Asgeirsson, H. Jonsson                     : NEB implementation
   FAccTs GmbH                                   : IRC, NEB, NEB-TS, DLPNO-Multilevel, CI-OPT
                                                   MM, QMMM, 2- and 3-layer-ONIOM, Crystal-QMMM,
                                                   LR-CPCM, SF, NACMEs, symmetry and pop. for TD-DFT,
                                                   nearIR, NL-DFT gradient (VV10), updates on ESD,
                                                   ML-optimized integration grids, MBIS, APM,
                                                   GOAT, DOCKER, SOLVATOR, interface openCOSMO-RS
   S Lehtola, MJT Oliveira, MAL Marques          : LibXC Library
   Liviu Ungur et al                             : ANISO software


 Your calculation uses the libint2 library for the computation of 2-el integrals
 For citations please refer to: http://libint.valeyev.net

 Your ORCA version has been built with support for libXC version: 6.2.2
 For citations please refer to: https://libxc.gitlab.io

 This ORCA versions uses:
   CBLAS   interface :  Fast vector & matrix operations
   LAPACKE interface :  Fast linear algebra routines
   SCALAPACK package :  Parallel linear algebra routines
   Shared memory     :  Shared parallel matrices
   BLAS/LAPACK       :  OpenBLAS 0.3.27  USE64BITINT DYNAMIC_ARCH NO_AFFINITY SkylakeX SINGLE_THREADED
        Core in use  :  SkylakeX
   Copyright (c) 2011-2014, The OpenBLAS Project


Your calculation utilizes the geometrical counterpoise correction gCP
Please cite in your paper:
H.Kruse, S. Grimme J.Chem.Phys., 136, (2012), 154101 
   

Your calculation utilizes the atom-pairwise dispersion correction
based on EEQ partial charges (D4)


Your calculation utilizes the SMD solvation module
Please cite in your paper:
A.V. Marenich, C.J. Cramer, D.G. Truhlar J. Phys. Chem. B, 113, (2009), 6378 

================================================================================

----- Orbital basis set information -----
Your calculation utilizes the basis: def2-mTZVPP
   Stefan Grimme, Andreas Hansen, Sebastian Ehlert, and Jan-Michael Mewes 
   J. Chem. Phys. 154, 064103 (2021). DOI: 10.1063/5.0040021

----- AuxJ basis set information -----
Your calculation utilizes the auxiliary basis: def2/J
   F. Weigend, Phys. Chem. Chem. Phys. 8, 1057 (2006).

================================================================================
                                        WARNINGS
                       Please study these warnings very carefully!
================================================================================

Using LibXC functional ID 497 : Re-regularized SCAN exchange by Furness et al
[ 1]  J. W. Furness, A. D. Kaplan, J. Ning, J. P. Perdew, and J. Sun.,  J. Phys. Chem. Lett. 11, 8208-8215 (2020)
[ 2]  J. W. Furness, A. D. Kaplan, J. Ning, J. P. Perdew, and J. Sun.,  J. Phys. Chem. Lett. 11, 9248-9248 (2020)
Using LibXC functional ID 498 : Re-regularized SCAN correlation by Furness et al
[ 1]  J. W. Furness, A. D. Kaplan, J. Ning, J. P. Perdew, and J. Sun.,  J. Phys. Chem. Lett. 11, 8208-8215 (2020)
[ 2]  J. W. Furness, A. D. Kaplan, J. Ning, J. P. Perdew, and J. Sun.,  J. Phys. Chem. Lett. 11, 9248-9248 (2020)
Using LibXC functional ID 497 : Re-regularized SCAN exchange by Furness et al
[ 1]  J. W. Furness, A. D. Kaplan, J. Ning, J. P. Perdew, and J. Sun.,  J. Phys. Chem. Lett. 11, 8208-8215 (2020)
[ 2]  J. W. Furness, A. D. Kaplan, J. Ning, J. P. Perdew, and J. Sun.,  J. Phys. Chem. Lett. 11, 9248-9248 (2020)
Using LibXC functional ID 498 : Re-regularized SCAN correlation by Furness et al
[ 1]  J. W. Furness, A. D. Kaplan, J. Ning, J. P. Perdew, and J. Sun.,  J. Phys. Chem. Lett. 11, 8208-8215 (2020)
[ 2]  J. W. Furness, A. D. Kaplan, J. Ning, J. P. Perdew, and J. Sun.,  J. Phys. Chem. Lett. 11, 9248-9248 (2020)

================================================================================
                                       INPUT FILE
================================================================================
NAME = sp_solv.inp
|  1> ! r2scan-3c def2/J RI DEFGRID2 scfconv6 printgap
|  2> %output
|  3>     printlevel normal
|  4> end
|  5> %cpcm
|  6>     smd true
|  7>     smdsolvent "water"
|  8> end
|  9> * xyz 0 1
| 10> C -2.7275353207 0.1474654561 -0.0517686611
| 11> C -1.2993208629 0.2054738841 0.4733305012
| 12> C -0.3032002892 -0.1482760942 -0.6421989263
| 13> N 1.0402357499 -0.0859715285 -0.0895301559
| 14> O 1.6172768995 0.9826217135 -0.1096255666
| 15> O 1.5016039516 -1.0941582046 0.4064155138
| 16> H -2.9642094742 -0.8505340781 -0.4099069064
| 17> H -3.4214627401 0.4012627729 0.744048768
| 18> H -2.8654449757 0.852168486 -0.8670000843
| 19> H -1.1771526877 -0.5001279159 1.2971803508
| 20> H -1.0787363405 1.2085210613 0.8430384531
| 21> H -0.4824437532 -1.1644265366 -0.99429498
| 22> H -0.3757077271 0.5794954959 -1.4508394953
| 23> *
| 24> 
| 25>                          ****END OF INPUT****
================================================================================

                       ****************************
                       * Single Point Calculation *
                       ****************************

---------------------------------
CARTESIAN COORDINATES (ANGSTROEM)
---------------------------------
  C     -2.727535    0.147465   -0.051769
  C     -1.299321    0.205474    0.473331
  C     -0.303200   -0.148276   -0.642199
  N      1.040236   -0.085972   -0.089530
  O      1.617277    0.982622   -0.109626
  O      1.501604   -1.094158    0.406416
  H     -2.964209   -0.850534   -0.409907
  H     -3.421463    0.401263    0.744049
  H     -2.865445    0.852168   -0.867000
  H     -1.177153   -0.500128    1.297180
  H     -1.078736    1.208521    0.843038
  H     -0.482444   -1.164427   -0.994295
  H     -0.375708    0.579495   -1.450839

----------------------------
CARTESIAN COORDINATES (A.U.)
----------------------------
  NO LB      ZA    FRAG     MASS         X           Y           Z
   0 C     6.0000    0    12.011   -5.154295    0.278669   -0.097829
   1 C     6.0000    0    12.011   -2.455361    0.388289    0.894465
   2 C     6.0000    0    12.011   -0.572966   -0.280201   -1.213580
   3 N     7.0000    0    14.007    1.965761   -0.162463   -0.169187
   4 O     8.0000    0    15.999    3.056210    1.856886   -0.207162
   5 O     8.0000    0    15.999    2.837620   -2.067659    0.768014
   6 H     1.0000    0     1.008   -5.601544   -1.607276   -0.774612
   7 H     1.0000    0     1.008   -6.465628    0.758277    1.406048
   8 H     1.0000    0     1.008   -5.414906    1.610365   -1.638393
   9 H     1.0000    0     1.008   -2.224496   -0.945105    2.451316
  10 H     1.0000    0     1.008   -2.038516    2.283774    1.593112
  11 H     1.0000    0     1.008   -0.911687   -2.200447   -1.878945
  12 H     1.0000    0     1.008   -0.709985    1.095088   -2.741689

--------------------------------
INTERNAL COORDINATES (ANGSTROEM)
--------------------------------
 C      0   0   0     0.000000000000     0.00000000     0.00000000
 C      1   0   0     1.522790414153     0.00000000     0.00000000
 C      2   1   0     1.536815261544   110.41684580     0.00000000
 N      3   2   1     1.454009979276   108.24695535   180.31578514
 O      4   3   2     1.214607685926   118.05803260   272.04070264
 O      4   3   2     1.214604091340   118.07311305    89.55804912
 H      1   2   3     1.086407256946   110.67014573    60.43312911
 H      1   2   3     1.085943701059   109.73788118   180.12915570
 H      1   2   3     1.086382854552   110.67771129   299.84042305
 H      2   1   3     1.091571132763   109.91333999   239.64265205
 H      2   1   3     1.091533389736   109.95828486   120.37776502
 H      3   2   1     1.090257571406   110.02276318   298.52578843
 H      3   2   1     1.090324899165   109.97411223    62.12245905

---------------------------
INTERNAL COORDINATES (A.U.)
---------------------------
 C      0   0   0     0.000000000000     0.00000000     0.00000000
 C      1   0   0     2.877656842110     0.00000000     0.00000000
 C      2   1   0     2.904159962748   110.41684580     0.00000000
 N      3   2   1     2.747680656821   108.24695535   180.31578514
 O      4   3   2     2.295275886556   118.05803260   272.04070264
 O      4   3   2     2.295269093773   118.07311305    89.55804912
 H      1   2   3     2.053012185533   110.67014573    60.43312911
 H      1   2   3     2.052136191858   109.73788118   180.12915570
 H      1   2   3     2.052966071691   110.67771129   299.84042305
 H      2   1   3     2.062770496616   109.91333999   239.64265205
 H      2   1   3     2.062699172633   109.95828486   120.37776502
 H      3   2   1     2.060288225391   110.02276318   298.52578843
 H      3   2   1     2.060415456418   109.97411223    62.12245905

---------------------
BASIS SET INFORMATION
---------------------
There are 4 groups of distinct atoms

 Group   1 Type C   : 11s6p1d contracted to 5s3p1d pattern {62111/411/1}
 Group   2 Type N   : 11s6p2d contracted to 5s3p2d pattern {62111/411/11}
 Group   3 Type O   : 11s6p2d contracted to 5s3p2d pattern {62111/411/11}
 Group   4 Type H   : 4s1p contracted to 2s1p pattern {31/1}

Atom   0C    basis set group =>   1
Atom   1C    basis set group =>   1
Atom   2C    basis set group =>   1
Atom   3N    basis set group =>   2
Atom   4O    basis set group =>   3
Atom   5O    basis set group =>   3
Atom   6H    basis set group =>   4
Atom   7H    basis set group =>   4
Atom   8H    basis set group =>   4
Atom   9H    basis set group =>   4
Atom  10H    basis set group =>   4
Atom  11H    basis set group =>   4
Atom  12H    basis set group =>   4
---------------------------------
AUXILIARY/J BASIS SET INFORMATION
---------------------------------
There are 4 groups of distinct atoms

 Group   1 Type C   : 12s5p4d2f1g contracted to 6s4p3d1f1g pattern {711111/2111/211/2/1}
 Group   2 Type N   : 12s5p4d2f1g contracted to 6s4p3d1f1g pattern {711111/2111/211/2/1}
 Group   3 Type O   : 12s5p4d2f1g contracted to 6s4p3d1f1g pattern {711111/2111/211/2/1}
 Group   4 Type H   : 5s2p1d contracted to 3s1p1d pattern {311/2/1}

Atom   0C    basis set group =>   1
Atom   1C    basis set group =>   1
Atom   2C    basis set group =>   1
Atom   3N    basis set group =>   2
Atom   4O    basis set group =>   3
Atom   5O    basis set group =>   3
Atom   6H    basis set group =>   4
Atom   7H    basis set group =>   4
Atom   8H    basis set group =>   4
Atom   9H    basis set group =>   4
Atom  10H    basis set group =>   4
Atom  11H    basis set group =>   4
Atom  12H    basis set group =>   4

Checking for AutoStart:
The File: sp_solv.gbw exists
Trying to determine its content:
     ... Fine, the file contains calculation information
     ... Fine, the calculation information was read
     ... Fine, the file contains a basis set
     ... Fine, the basis set was read
     ... Fine, the file contains a geometry
     ... Fine, the geometry was read
     ... Fine, the file contains a set of orbitals
     ... Fine, the orbitals can be read
     => possible old guess file was deleted
     => GBW file was renamed to GES file
     => GES file is set as startup file
     => Guess is set to MORead
     ... now leaving AutoStart

------------------------------------------------------------------------------
                             ORCA STARTUP CALCULATIONS
                           -- RI-GTO INTEGRALS CHOSEN --
------------------------------------------------------------------------------
------------------------------------------------------------------------------
                   ___                                                        
                  /   \      - P O W E R E D   B Y -                         
                 /     \                                                     
                 |  |  |   _    _      __       _____    __    __             
                 |  |  |  | |  | |    /  \     |  _  \  |  |  /  |          
                  \  \/   | |  | |   /    \    | | | |  |  | /  /          
                 / \  \   | |__| |  /  /\  \   | |_| |  |  |/  /          
                |  |  |   |  __  | /  /__\  \  |    /   |      \           
                |  |  |   | |  | | |   __   |  |    \   |  |\   \          
                \     /   | |  | | |  |  |  |  | |\  \  |  | \   \       
                 \___/    |_|  |_| |__|  |__|  |_| \__\ |__|  \__/        
                                                                              
                      - O R C A' S   B I G   F R I E N D -                    
                                      &                                       
                       - I N T E G R A L  F E E D E R -                       
                                                                              
 v1 FN, 2020, v2 2021, v3 2022-2024                                           
------------------------------------------------------------------------------


----------------------
SHARK INTEGRAL PACKAGE
----------------------

Number of atoms                             ...     13
Number of basis functions                   ...    164
Number of shells                            ...     78
Maximum angular momentum                    ...      2
Integral batch strategy                     ... SHARK/LIBINT Hybrid
RI-J (if used) integral strategy            ... SPLIT-RIJ (Revised 2003 algorithm where possible)
Printlevel                                  ...      1
Contraction scheme used                     ... SEGMENTED contraction
Prescreening option                         ... SCHWARTZ
   Thresh                                   ... 1.000e-10
   Tcut                                     ... 1.000e-11
   Tpresel                                  ... 1.000e-11 
Coulomb Range Separation                    ... NOT USED
Exchange Range Separation                   ... NOT USED
Multipole approximations                    ... NOT USED
Finite Nucleus Model                        ... NOT USED
CABS basis                                  ... NOT available
Auxiliary Coulomb fitting basis             ... AVAILABLE
   # of basis functions in Aux-J            ...    371
   # of shells in Aux-J                     ...    125
   Maximum angular momentum in Aux-J        ...      4
Auxiliary J/K fitting basis                 ... NOT available
Auxiliary Correlation fitting basis         ... NOT available
Auxiliary 'external' fitting basis          ... NOT available

Checking pre-screening integrals            ... done (  0.0 sec) Dimension = 78
Check shell pair data                       ... done (  0.0 sec)
Shell pair information
Shell pair cut-off parameter TPreSel        ...   1.0e-11
Total number of shell pairs                 ...      3081
Shell pairs after pre-screening             ...      2850
Total number of primitive shell pairs       ...     10884
Primitive shell pairs kept                  ...      7575
          la=0 lb=0:    891 shell pairs
          la=1 lb=0:   1022 shell pairs
          la=1 lb=1:    310 shell pairs
          la=2 lb=0:    372 shell pairs
          la=2 lb=1:    212 shell pairs
          la=2 lb=2:     43 shell pairs

Calculating one electron integrals          ... done (  0.0 sec)
Calculating RI/J V-Matrix + Cholesky decomp.... done (  0.2 sec)
Calculating Nuclear repulsion               ... done (  0.0 sec) ENN=    246.988383475597 Eh

Diagonalization of the overlap matrix:
Smallest eigenvalue                        ... 1.752e-04
Time for diagonalization                   ...    0.007 sec
Threshold for overlap eigenvalues          ... 1.000e-07
Number of eigenvalues below threshold      ... 0
Time for construction of square roots      ...    0.014 sec
Total time needed                          ...    0.031 sec

-------------------
DFT GRID GENERATION
-------------------

General Integration Accuracy     IntAcc      ... 4.388
Radial Grid Type                 RadialGrid  ... OptM3 with GC (2021)
Angular Grid (max. ang.)         AngularGrid ... 4 (Lebedev-302)
Angular grid pruning method      GridPruning ... 4 (adaptive)
Weight generation scheme         WeightScheme... mBecke (2022)
Basis function cutoff            BFCut       ... 1.0000e-10
Integration weight cutoff        WCut        ... 1.0000e-14
Partially contracted basis set               ... off
Rotationally invariant grid construction     ... off
Angular grids for H and He will be reduced by one unit
Diffuse basis detected: some atoms will have their outermost
                        angular grid increased by 1.

Total number of grid points                  ...    59523
Total number of batches                      ...      937
Average number of points per batch           ...       63
Average number of grid points per atom       ...     4579
Initializing property integral containers    ... done (  0.0 sec)

SHARK setup successfully completed in   1.1 seconds

Maximum memory used throughout the entire STARTUP-calculation: 26.9 MB
-------------------------------------------------------------------------------
                                 ORCA GUESS
                   Start orbitals & Density for SCF / CASSCF
-------------------------------------------------------------------------------

------------
SCF SETTINGS
------------
Hamiltonian:
 Density Functional     Method          .... DFT(GTOs)
  Functional kind                       .... Exchange
  Functional name                       .... Re-regularized SCAN exchange by Furness et al
  Functional family                     .... MGGA
  Functional refs                              
    [ 0] J. W. Furness, A. D. Kaplan, J. Ning, J. P. Perdew, and J. Sun.,  J. Phys. Chem. Lett. 11, 8208-8215 (2020), doi: 10.1021/acs.jpclett.0c02405
    [ 1] J. W. Furness, A. D. Kaplan, J. Ning, J. P. Perdew, and J. Sun.,  J. Phys. Chem. Lett. 11, 9248-9248 (2020), doi: 10.1021/acs.jpclett.0c03077
  Functional external parameters        .... 6
    Parameter  0 _c1        =  6.670000e-01 : c1 parameter        
    Parameter  1 _c2        =  8.000000e-01 : c2 parameter        
    Parameter  2 _d         =  1.240000e+00 : d parameter         
    Parameter  3 _k1        =  6.500000e-02 : k1 parameter        
    Parameter  4 _eta       =  1.000000e-03 : eta parameter       
    Parameter  5 _dp2       =  3.610000e-01 : dp2 parameter       
  Functional kind                       .... Correlation
  Functional name                       .... Re-regularized SCAN correlation by Furness et al
  Functional family                     .... MGGA
  Functional refs                              
    [ 0] J. W. Furness, A. D. Kaplan, J. Ning, J. P. Perdew, and J. Sun.,  J. Phys. Chem. Lett. 11, 8208-8215 (2020), doi: 10.1021/acs.jpclett.0c02405
    [ 1] J. W. Furness, A. D. Kaplan, J. Ning, J. P. Perdew, and J. Sun.,  J. Phys. Chem. Lett. 11, 9248-9248 (2020), doi: 10.1021/acs.jpclett.0c03077
  Functional external parameters        .... 1
    Parameter  0 _eta       =  1.000000e-03 : Regularization parameter
 Gradients option       PostSCFGGA      .... off
 RI-approximation to the Coulomb term is turned on
   Number of AuxJ basis functions       .... 371


General Settings:
 Integral files         IntName         .... sp_solv
 Hartree-Fock type      HFTyp           .... RHF
 Total Charge           Charge          ....    0
 Multiplicity           Mult            ....    1
 Number of Electrons    NEL             ....   48
 Basis Dimension        Dim             ....  164
 Nuclear Repulsion      ENuc            ....    246.9883834756 Eh

Convergence Acceleration:
 AO-DIIS                CNVDIIS         .... on
   Start iteration      DIISMaxIt       ....    12
   Startup error        DIISStart       ....  0.200000
   # of expansion vecs  DIISMaxEq       ....     5
   Bias factor          DIISBfac        ....   1.050
   Max. coefficient     DIISMaxC        ....  10.000
 MO-DIIS                CNVKDIIS        .... off
 Trust-Rad. Augm. Hess. CNVTRAH         .... auto
   Auto Start mean grad. ratio tolernc. ....  1.125000
   Auto Start start iteration           ....     1
   Auto Start num. interpolation iter.  ....    10
   Max. Number of Micro iterations      ....    24
   Max. Number of Macro iterations      .... Maxiter - #DIIS iter
   Number of Davidson start vectors     ....     2
   Converg. threshold    (grad. norm)   ....   3.330e-04
   Grad. Scal. Fac. for Micro threshold ....   0.100
   Minimum threshold for Micro iter.    ....   1.000e-02
   NR start threshold (gradient norm)   ....   1.000e-04
   Initial trust radius                 ....   0.400
   Minimum AH scaling param. (alpha)    ....   1.000
   Maximum AH scaling param. (alpha)    .... 1000.000
   Quad. conv. algorithm                .... NR
   White noise on init. David. guess    .... on
   Maximum white noise                  ....   0.010
   Pseudo random numbers                .... off
   Inactive MOs                         .... canonical
   Orbital update algorithm             .... Taylor
   Preconditioner                       .... Diag
   Full preconditioner red. dimension   ....   250
   COSX micro iterations for RIJONX calc.... off
 SOSCF                  CNVSOSCF        .... on
   Start iteration      SOSCFMaxIt      ....   150
   Startup grad/error   SOSCFStart      ....  0.003300
   Hessian update       SOSCFHessUp     .... L-BFGS
 Level Shifting         CNVShift        .... on
   Level shift para.    LevelShift      ....    0.2500
   Turn off err/grad.   ShiftErr        ....    0.0010
 Zerner damping         CNVZerner       .... off
 Static damping         CNVDamp         .... on
   Fraction old density DampFac         ....    0.7000
   Max. Damping (<1)    DampMax         ....    0.9800
   Min. Damping (>=0)   DampMin         ....    0.0000
   Turn off err/grad.   DampErr         ....    0.1000

SCF Procedure:
 Maximum # iterations   MaxIter         ....   125
 SCF integral mode      SCFMode         .... Direct
   Integral package                     .... SHARK and LIBINT hybrid scheme
 Reset frequency        DirectResetFreq ....    20
 Integral Threshold     Thresh          ....  1.000e-10 Eh
 Primitive CutOff       TCut            ....  1.000e-11 Eh

Convergence Tolerance:
 Convergence Check Mode ConvCheckMode   .... Total+1el-Energy
 Convergence forced     ConvForced      .... 0
 Energy Change          TolE            ....  1.000e-06 Eh
 1-El. energy change                    ....  1.000e-03 Eh
 Orbital Gradient       TolG            ....  3.330e-04
 Orbital Rotation angle TolX            ....  3.330e-04
 DIIS Error             TolErr          ....  1.000e-06

---------------------
INITIAL GUESS: MOREAD
---------------------
Guess MOs are being read from file: sp_solv.ges
Input Geometry matches current geometry (good)
Atom 0: N(Shells)= 9 and 6 - projection required
Input basis set needs projection
NBasis(read)= 98
NBasis(calc)= 164
Basis set overlap was calculated
Using GuessMode=FMatrix for the initial guess
C*T matrix was formed
Effective Fockian was calculated
Effective Fockian was diagonalized
Initial density was built
                      ------------------
                      INITIAL GUESS DONE (   0.2 sec)
                      ------------------
             **** ENERGY FILE WAS UPDATED (sp_solv.en.tmp) ****
Finished Guess after   0.5 sec
Maximum memory used throughout the entire GUESS-calculation: 11.1 MB

-------------------------------------------------------------------------------------------
                                      ORCA LEAN-SCF
                              memory conserving SCF solver
-------------------------------------------------------------------------------------------

--------------------
CPCM SOLVATION MODEL
--------------------
CPCM parameters:
  Epsilon                                         ...      78.3550
  Refrac                                          ...       1.3328
  Rsolv                                           ...       1.3000
  Surface type                                    ... GAUSSIAN VDW
  Discretization scheme                           ... Constant charge density
    Threshold for H atoms                         ...       5.0000 (charges/Ang^2)
    Threshold for non-H atoms                     ...       5.0000 (charges/Ang^2)
  Epsilon function type                           ...         CPCM
Solvent:                                          ... WATER
SMD-CDS solvent descriptors:
  Soln                                            ...       1.3328
  Soln25                                          ...       1.3323
  Sola                                            ...       0.0000
  Solb                                            ...       0.0000
  Solg                                            ...       0.0000
  Solc                                            ...       0.0000
  Solh                                            ...       0.0000
Radii:
  Scheme                                          ... Element-dependent radii
  Radius for C  used is    3.4960 Bohr (=   1.8500 Ang.)
  Radius for N  used is    3.5716 Bohr (=   1.8900 Ang.)
  Radius for O  used is    2.8724 Bohr (=   1.5200 Ang.)
  Radius for H  used is    2.2677 Bohr (=   1.2000 Ang.)
Calculating surface                               ...        done! (  0.0s)
Cavity surface points                             ...          995
Cavity Volume                                     ...     612.0534
Cavity Surface-area                               ...     421.0446
Calculating surface distance matrix               ...        done! (  0.0s)
Performing Cholesky decomposition & store         ...        done! (  0.1s)
Overall time for CPCM initialization              ...                 0.1s

----------------------------------------D-I-I-S--------------------------------------------
Iteration    Energy (Eh)           Delta-E    RMSDP     MaxDP     DIISErr   Damp  Time(sec)
-------------------------------------------------------------------------------------------
               ***  Starting incremental Fock matrix formation  ***
    1    -323.4351604515976533     0.00e+00  6.13e-03  2.38e-01  6.37e-01  0.700   2.5
    2    -323.4850336542564264    -4.99e-02  4.96e-03  1.51e-01  4.48e-01  0.700   2.3
    3    -323.5204102520858669    -3.54e-02  3.64e-03  9.45e-02  3.14e-01  0.700   2.2
    4    -323.5453126344142447    -2.49e-02  2.61e-03  6.09e-02  2.20e-01  0.700   2.3
                               ***Turning on AO-DIIS***
    5    -323.5628108918025418    -1.75e-02  1.88e-03  4.48e-02  1.54e-01  0.700   2.1
    6    -323.5750873666496545    -1.23e-02  1.34e-03  3.26e-02  1.08e-01  0.700   2.2
    7    -323.5837070315825486    -8.62e-03  9.46e-04  2.32e-02  7.54e-02  0.700   2.0
    8    -323.5897500820818777    -6.04e-03  2.22e-03  5.47e-02  5.28e-02  0.000   2.0
                              *** Initializing SOSCF ***
---------------------------------------S-O-S-C-F--------------------------------------
Iteration    Energy (Eh)           Delta-E    RMSDP     MaxDP     MaxGrad    Time(sec)
--------------------------------------------------------------------------------------
    9    -323.6038847279727406    -1.41e-02  2.22e-05  8.81e-04  1.98e-04     2.0
               *** Restarting incremental Fock matrix formation ***
   10    -323.6038849053538797    -1.77e-07  1.44e-05  6.03e-04  8.02e-05     2.1
                  *** Gradient check signals convergence ***

               *****************************************************
               *                     SUCCESS                       *
               *           SCF CONVERGED AFTER  10 CYCLES          *
               *****************************************************


SMD CDS free energy correction energy :                 5.24069     Kcal/mol
Total Energy after SMD CDS correction =              -323.595533341 Eh
             **** ENERGY FILE WAS UPDATED (sp_solv.en.tmp) ****

----------------
TOTAL SCF ENERGY
----------------

Total Energy       :       -323.59553334087087 Eh           -8805.48212 eV

Components:
Nuclear Repulsion  :        246.98838347559686 Eh            6720.89560 eV
Electronic Energy  :       -570.57524768344342 Eh          -15526.14182 eV
One Electron Energy:       -928.95422508481431 Eh          -25278.12958 eV
Two Electron Energy:        358.37897740137089 Eh            9751.98776 eV
CPCM Dielectric    :         -0.01702069750728 Eh              -0.46316 eV
SMD CDS (Gcds)     :          0.00835156448302 Eh               0.22726 eV

Virial components:
Potential Energy   :       -646.04168301795289 Eh          -17579.68793 eV
Kinetic Energy     :        322.44614967708196 Eh            8774.20580 eV
Virial Ratio       :          2.00356457555762

DFT components:
N(Alpha)           :       24.000019395049 electrons
N(Beta)            :       24.000019395049 electrons
N(Total)           :       48.000038790098 electrons
E(X)               :      -41.270677132801 Eh       
E(C)               :       -1.560775864611 Eh       
E(XC)              :      -42.831452997413 Eh       

CPCM Solvation Model Properties:
Surface-charge          :         -0.03847342763587
Corrected charge        :          0.00000000000000
Outlying charge corr.   :          0.00013006271816 Eh               0.00354 eV
Free-energy (cav+disp)  :          0.00835156448302 Eh               0.22726 eV

---------------
SCF CONVERGENCE
---------------

  Last Energy change         ...    1.7738e-07  Tolerance :   1.0000e-06
  Last MAX-Density change    ...    6.0305e-04  Tolerance :   1.0000e-05
  Last RMS-Density change    ...    1.4389e-05  Tolerance :   1.0000e-06
  Last DIIS Error            ...    1.9804e-04  Tolerance :   1.0000e-06
  Last Orbital Gradient      ...    8.0217e-05  Tolerance :   3.3300e-04
  Last Orbital Rotation      ...    1.9489e-04  Tolerance :   3.3300e-04


----------------
ORBITAL ENERGIES
----------------

  NO   OCC          E(Eh)            E(eV) 
   0   2.0000     -18.995181      -516.8851 
   1   2.0000     -18.995163      -516.8847 
   2   2.0000     -14.398917      -391.8145 
   3   2.0000     -10.079988      -274.2904 
   4   2.0000     -10.041447      -273.2417 
   5   2.0000     -10.017877      -272.6003 
   6   2.0000      -1.215806       -33.0838 
   7   2.0000      -1.037900       -28.2427 
   8   2.0000      -0.807125       -21.9630 
   9   2.0000      -0.716857       -19.5067 
  10   2.0000      -0.601131       -16.3576 
  11   2.0000      -0.567925       -15.4540 
  12   2.0000      -0.520739       -14.1700 
  13   2.0000      -0.504061       -13.7162 
  14   2.0000      -0.499111       -13.5815 
  15   2.0000      -0.442805       -12.0493 
  16   2.0000      -0.387266       -10.5381 
  17   2.0000      -0.371685       -10.1141 
  18   2.0000      -0.347112        -9.4454 
  19   2.0000      -0.320238        -8.7141 
  20   2.0000      -0.314802        -8.5662 
  21   2.0000      -0.300657        -8.1813 
  22   2.0000      -0.285302        -7.7635 
  23   2.0000      -0.269372        -7.3300 
  24   0.0000      -0.109181        -2.9710 
  25   0.0000       0.092409         2.5146 
  26   0.0000       0.099313         2.7024 
  27   0.0000       0.119517         3.2522 
  28   0.0000       0.142086         3.8663 
  29   0.0000       0.144323         3.9272 
  30   0.0000       0.167194         4.5496 
  31   0.0000       0.187831         5.1112 
  32   0.0000       0.191908         5.2221 
  33   0.0000       0.199216         5.4210 
  34   0.0000       0.201312         5.4780 
*Only the first 10 virtual orbitals were printed.

                    ********************************
                    * MULLIKEN POPULATION ANALYSIS *
                    ********************************

-----------------------
MULLIKEN ATOMIC CHARGES
-----------------------
   0 C :   -0.498833
   1 C :   -0.206357
   2 C :   -0.323747
   3 N :    0.287116
   4 O :   -0.251416
   5 O :   -0.250931
   6 H :    0.161870
   7 H :    0.169047
   8 H :    0.161778
   9 H :    0.167141
  10 H :    0.167098
  11 H :    0.208483
  12 H :    0.208752
Sum of atomic charges:    0.0000000

--------------------------------
MULLIKEN REDUCED ORBITAL CHARGES
--------------------------------
  0 C s       :     3.337985  s :     3.337985
      pz      :     1.088658  p :     3.134150
      px      :     0.947690
      py      :     1.097801
      dz2     :     0.002956  d :     0.026698
      dxz     :     0.006967
      dyz     :     0.005826
      dx2y2   :     0.007360
      dxy     :     0.003589

  1 C s       :     3.177753  s :     3.177753
      pz      :     0.970972  p :     2.992290
      px      :     0.915890
      py      :     1.105427
      dz2     :     0.004538  d :     0.036315
      dxz     :     0.009647
      dyz     :     0.008140
      dx2y2   :     0.008820
      dxy     :     0.005171

  2 C s       :     3.366061  s :     3.366061
      pz      :     0.985481  p :     2.915634
      px      :     0.788539
      py      :     1.141614
      dz2     :     0.006487  d :     0.042052
      dxz     :     0.009933
      dyz     :     0.008045
      dx2y2   :     0.014164
      dxy     :     0.003423

  3 N s       :     3.247769  s :     3.247769
      pz      :     1.035482  p :     2.930561
      px      :     1.023444
      py      :     0.871636
      dz2     :     0.038774  d :     0.534554
      dxz     :     0.055787
      dyz     :     0.122867
      dx2y2   :     0.183381
      dxy     :     0.133745

  4 O s       :     3.855660  s :     3.855660
      pz      :     1.501798  p :     4.356433
      px      :     1.605450
      py      :     1.249186
      dz2     :     0.002494  d :     0.039322
      dxz     :     0.002440
      dyz     :     0.013153
      dx2y2   :     0.007491
      dxy     :     0.013744

  5 O s       :     3.855164  s :     3.855164
      pz      :     1.401376  p :     4.356374
      px      :     1.656267
      py      :     1.298731
      dz2     :     0.007525  d :     0.039393
      dxz     :     0.003794
      dyz     :     0.013066
      dx2y2   :     0.003208
      dxy     :     0.011800

  6 H s       :     0.819847  s :     0.819847
      pz      :     0.004519  p :     0.018283
      px      :     0.003866
      py      :     0.009898

  7 H s       :     0.812535  s :     0.812535
      pz      :     0.007544  p :     0.018418
      px      :     0.006746
      py      :     0.004127

  8 H s       :     0.819938  s :     0.819938
      pz      :     0.007920  p :     0.018285
      px      :     0.003607
      py      :     0.006758

  9 H s       :     0.814889  s :     0.814889
      pz      :     0.007965  p :     0.017970
      px      :     0.003374
      py      :     0.006631

 10 H s       :     0.814929  s :     0.814929
      pz      :     0.004275  p :     0.017973
      px      :     0.003578
      py      :     0.010120

 11 H s       :     0.773593  s :     0.773593
      pz      :     0.004204  p :     0.017924
      px      :     0.002726
      py      :     0.010995

 12 H s       :     0.773320  s :     0.773320
      pz      :     0.008363  p :     0.017928
      px      :     0.002434
      py      :     0.007131


------------------------
MULLIKEN OVERLAP CHARGES
------------------------
B(  0-C ,  1-C ) :   0.4820 B(  0-C ,  2-C ) :  -0.1462 B(  0-C ,  6-H ) :   0.8458 
B(  0-C ,  7-H ) :   0.8054 B(  0-C ,  8-H ) :   0.8452 B(  1-C ,  2-C ) :   0.3830 
B(  1-C ,  6-H ) :  -0.0845 B(  1-C ,  7-H ) :  -0.0796 B(  1-C ,  8-H ) :  -0.0838 
B(  1-C ,  9-H ) :   0.8220 B(  1-C , 10-H ) :   0.8198 B(  1-C , 11-H ) :  -0.0631 
B(  1-C , 12-H ) :  -0.0617 B(  2-C ,  3-N ) :   0.4052 B(  2-C ,  9-H ) :  -0.0630 
B(  2-C , 10-H ) :  -0.0604 B(  2-C , 11-H ) :   0.8374 B(  2-C , 12-H ) :   0.8336 
B(  3-N ,  4-O ) :   0.9406 B(  3-N ,  5-O ) :   0.9403 B(  3-N , 11-H ) :  -0.0761 
B(  3-N , 12-H ) :  -0.0738 B(  4-O ,  5-O ) :  -0.1231 B(  6-H ,  8-H ) :  -0.0501 



                     *******************************
                     * LOEWDIN POPULATION ANALYSIS *
                     *******************************

----------------------
LOEWDIN ATOMIC CHARGES
----------------------
   0 C :   -0.415279
   1 C :   -0.249422
   2 C :    0.040698
   3 N :   -0.541933
   4 O :   -0.038037
   5 O :   -0.037737
   6 H :    0.158186
   7 H :    0.161773
   8 H :    0.158214
   9 H :    0.168721
  10 H :    0.168717
  11 H :    0.212901
  12 H :    0.213199

-------------------------------
LOEWDIN REDUCED ORBITAL CHARGES
-------------------------------
  0 C s       :     2.970781  s :     2.970781
      pz      :     1.152184  p :     3.382193
      px      :     1.067899
      py      :     1.162109
      dz2     :     0.006698  d :     0.062306
      dxz     :     0.016178
      dyz     :     0.014453
      dx2y2   :     0.017720
      dxy     :     0.007258

  1 C s       :     2.935342  s :     2.935342
      pz      :     1.073753  p :     3.236751
      px      :     1.016738
      py      :     1.146260
      dz2     :     0.009523  d :     0.077329
      dxz     :     0.020144
      dyz     :     0.018671
      dx2y2   :     0.019978
      dxy     :     0.009013

  2 C s       :     2.858245  s :     2.858245
      pz      :     1.033030  p :     3.009867
      px      :     0.864593
      py      :     1.112244
      dz2     :     0.012089  d :     0.091191
      dxz     :     0.022585
      dyz     :     0.018496
      dx2y2   :     0.030894
      dxy     :     0.007127

  3 N s       :     2.957545  s :     2.957545
      pz      :     1.034576  p :     3.304018
      px      :     1.146796
      py      :     1.122646
      dz2     :     0.134234  d :     1.280370
      dxz     :     0.153485
      dyz     :     0.271743
      dx2y2   :     0.379214
      dxy     :     0.341694

  4 O s       :     3.459774  s :     3.459774
      pz      :     1.418344  p :     4.328209
      px      :     1.549435
      py      :     1.360429
      dz2     :     0.026312  d :     0.250054
      dxz     :     0.021031
      dyz     :     0.053526
      dx2y2   :     0.071649
      dxy     :     0.077536

  5 O s       :     3.459885  s :     3.459885
      pz      :     1.349741  p :     4.327948
      px      :     1.582778
      py      :     1.395428
      dz2     :     0.033065  d :     0.249905
      dxz     :     0.031694
      dyz     :     0.059442
      dx2y2   :     0.062443
      dxy     :     0.063260

  6 H s       :     0.797826  s :     0.797826
      pz      :     0.010343  p :     0.043988
      px      :     0.008716
      py      :     0.024929

  7 H s       :     0.794104  s :     0.794104
      pz      :     0.018730  p :     0.044123
      px      :     0.016072
      py      :     0.009321

  8 H s       :     0.797797  s :     0.797797
      pz      :     0.019397  p :     0.043990
      px      :     0.008067
      py      :     0.016526

  9 H s       :     0.787627  s :     0.787627
      pz      :     0.019481  p :     0.043652
      px      :     0.007686
      py      :     0.016485

 10 H s       :     0.787620  s :     0.787620
      pz      :     0.009982  p :     0.043663
      px      :     0.008242
      py      :     0.025440

 11 H s       :     0.745245  s :     0.745245
      pz      :     0.009364  p :     0.041853
      px      :     0.005513
      py      :     0.026976

 12 H s       :     0.744934  s :     0.744934
      pz      :     0.019308  p :     0.041867
      px      :     0.005013
      py      :     0.017546


---------------------------------
LOEWDIN BOND ORDERS (THRESH 0.050000)
---------------------------------
B(  0-C ,  1-C ) :   1.1377 B(  0-C ,  2-C ) :   0.0774 B(  0-C ,  6-H ) :   0.9263 
B(  0-C ,  7-H ) :   0.9219 B(  0-C ,  8-H ) :   0.9262 B(  1-C ,  2-C ) :   0.9894 
B(  1-C ,  3-N ) :   0.1656 B(  1-C ,  9-H ) :   0.8857 B(  1-C , 10-H ) :   0.8857 
B(  2-C ,  3-N ) :   1.1447 B(  2-C ,  4-O ) :   0.1856 B(  2-C ,  5-O ) :   0.1857 
B(  2-C , 11-H ) :   0.8065 B(  2-C , 12-H ) :   0.8061 B(  3-N ,  4-O ) :   2.6442 
B(  3-N ,  5-O ) :   2.6445 B(  3-N , 11-H ) :   0.0834 B(  3-N , 12-H ) :   0.0838 
B(  4-O ,  5-O ) :   0.5864 

------------------------------------------
LOEWDIN REDUCED ORBITAL POPULATIONS PER MO
-------------------------------------------
THRESHOLD FOR PRINTING IS 0.1%%
                      0         1         2         3         4         5   
                 -18.99518 -18.99516 -14.39892 -10.07999 -10.04145 -10.01788
                   2.00000   2.00000   2.00000   2.00000   2.00000   2.00000
                  --------  --------  --------  --------  --------  --------
 0 C  s               0.0       0.0       0.0       0.0       0.0      99.7
 1 C  s               0.0       0.0       0.0       0.0      99.7       0.0
 2 C  s               0.0       0.0       0.0      99.4       0.0       0.0
 3 N  s               0.0       0.0      99.4       0.0       0.0       0.0
 3 N  dxz             0.0       0.0       0.0       0.1       0.0       0.0
 3 N  dx2y2           0.0       0.0       0.0       0.2       0.0       0.0
 4 O  s               0.1      99.7       0.0       0.0       0.0       0.0
 5 O  s              99.7       0.1       0.0       0.0       0.0       0.0

                      6         7         8         9        10        11   
                  -1.21581  -1.03790  -0.80713  -0.71686  -0.60113  -0.56792
                   2.00000   2.00000   2.00000   2.00000   2.00000   2.00000
                  --------  --------  --------  --------  --------  --------
 0 C  s               0.0       0.0       3.4      25.1      15.7       2.6
 0 C  pz              0.0       0.0       0.0       0.3       0.2       1.3
 0 C  px              0.0       0.0       1.7       1.4       4.4       1.5
 1 C  s               0.2       0.0      12.7      17.4       5.9       6.0
 1 C  pz              0.1       0.0       1.7       0.0       0.0       4.8
 1 C  px              0.5       0.0       0.8       5.3       8.1       0.6
 1 C  py              0.0       0.0       0.2       0.0       0.0       0.3
 1 C  dxz             0.0       0.0       0.1       0.1       0.1       0.0
 2 C  s               2.0       0.0      24.3       1.0       3.8       5.6
 2 C  pz              0.5       0.0       1.3       0.8       0.3       9.2
 2 C  px              3.3       0.0       0.6       7.8       5.7       0.1
 2 C  py              0.0       0.7       0.1       0.1       0.1       0.6
 2 C  dxz             0.0       0.0       0.0       0.3       0.2       0.0
 2 C  dx2y2           0.1       0.0       0.1       0.0       0.1       0.1
 3 N  s              32.5       0.0       3.0       2.7       5.5       3.2
 3 N  pz              0.6       2.1       2.7       2.2       1.6       8.0
 3 N  px              2.6       0.1      19.1       6.1       0.1       0.2
 3 N  py              0.0      33.7       0.0       0.1       0.1       0.5
 3 N  dz2             0.7       0.1       0.0       0.1       0.9       0.4
 3 N  dxz             0.1       0.2       0.2       0.1       0.1       1.1
 3 N  dyz             0.4       0.7       0.2       0.1       0.2       0.3
 3 N  dx2y2           0.9       0.0       2.7       0.1       0.0       0.7
 3 N  dxy             0.0       3.5       0.0       0.0       0.0       0.1
 4 O  s              17.8      25.5       3.1       2.2       5.5       5.8
 4 O  pz              0.0       0.1       0.2       0.2       0.3       2.5
 4 O  px              1.1       1.2       1.6       1.0       1.2       1.9
 4 O  py              6.1       1.8       0.1       0.2       4.4       5.4
 4 O  dz2             0.6       0.1       0.1       0.1       0.1       0.1
 4 O  dxz             0.0       0.0       0.1       0.0       0.0       0.2
 4 O  dyz             0.0       0.1       0.1       0.1       0.1       0.3
 4 O  dx2y2           1.0       0.5       0.4       0.0       0.1       0.0
 4 O  dxy             0.8       0.1       1.0       0.5       0.3       0.2
 5 O  s              17.8      25.5       3.0       2.2       5.5       5.8
 5 O  pz              1.0       0.6       0.3       0.4       2.2       0.1
 5 O  px              0.6       0.9       1.5       0.9       0.8       1.1
 5 O  py              5.6       1.5       0.1       0.1       2.9       8.4
 5 O  dz2             0.2       0.1       0.0       0.0       0.0       0.3
 5 O  dxz             0.1       0.1       0.4       0.2       0.1       0.0
 5 O  dyz             0.8       0.1       0.1       0.1       0.3       0.0
 5 O  dx2y2           1.0       0.5       0.3       0.0       0.0       0.2
 5 O  dxy             0.4       0.1       0.8       0.3       0.1       0.2
 6 H  s               0.0       0.0       0.4       4.1       4.8       1.4
 6 H  py              0.0       0.0       0.0       0.3       0.3       0.1
 7 H  s               0.0       0.0       0.4       4.2       5.5       0.8
 7 H  pz              0.0       0.0       0.0       0.2       0.3       0.0
 7 H  px              0.0       0.0       0.0       0.2       0.1       0.0
 8 H  s               0.0       0.0       0.4       4.1       4.8       1.4
 8 H  pz              0.0       0.0       0.0       0.2       0.2       0.0
 8 H  py              0.0       0.0       0.0       0.1       0.2       0.1
 9 H  s               0.0       0.0       1.5       2.8       1.9       3.4
 9 H  pz              0.0       0.0       0.1       0.1       0.1       0.1
 9 H  py              0.0       0.0       0.1       0.1       0.1       0.1
10 H  s               0.0       0.0       1.5       2.8       1.9       3.4
10 H  py              0.0       0.0       0.1       0.2       0.1       0.2
11 H  s               0.1       0.0       3.2       0.2       1.0       4.1
11 H  py              0.0       0.0       0.3       0.0       0.1       0.3
12 H  s               0.1       0.0       3.2       0.2       1.0       4.1
12 H  pz              0.0       0.0       0.2       0.0       0.0       0.1
12 H  py              0.0       0.0       0.1       0.0       0.0       0.2

                     12        13        14        15        16        17   
                  -0.52074  -0.50406  -0.49911  -0.44280  -0.38727  -0.37169
                   2.00000   2.00000   2.00000   2.00000   2.00000   2.00000
                  --------  --------  --------  --------  --------  --------
 0 C  s               1.2       0.0       0.1       0.0       0.0       0.0
 0 C  pz              0.0       0.0       3.2       0.7      25.1       1.8
 0 C  px              2.2       0.0       0.2       0.0       4.0       0.1
 0 C  py              0.0       0.2       0.2      10.5       2.1      25.7
 0 C  dyz             0.0       0.0       0.0       0.0       0.0       0.1
 1 C  s               1.0       0.0       2.8       0.0       0.3       0.0
 1 C  pz              0.4       0.0       9.0       1.8      12.6       0.3
 1 C  px              0.1       0.0       0.4       0.1       1.8       0.0
 1 C  py              0.0       1.2       0.7      24.8       1.0       4.7
 1 C  dxy             0.0       0.0       0.0       0.0       0.0       0.2
 2 C  s               1.0       0.0       3.5       0.0       0.7       0.0
 2 C  pz              5.3       0.3       1.9       1.4      13.3       1.3
 2 C  px              4.4       0.1       7.6       0.1       1.4       0.1
 2 C  py              0.2       5.0       0.0      20.6       1.1      19.9
 2 C  dxz             0.3       0.0       0.0       0.0       0.1       0.0
 2 C  dyz             0.0       0.0       0.0       0.0       0.0       0.3
 2 C  dx2y2           0.1       0.0       0.3       0.0       0.3       0.0
 2 C  dxy             0.0       0.0       0.0       0.1       0.0       0.0
 3 N  s               0.3       0.0       0.1       0.0       0.1       0.0
 3 N  pz              8.9       1.1      22.3       0.2       1.1       0.1
 3 N  px             23.1       0.0       1.1       0.0       0.1       0.0
 3 N  py              1.0      14.4       1.6       2.7       0.1       1.1
 3 N  dz2             0.1       0.2       0.2       0.0       0.6       0.2
 3 N  dxz             0.1       0.3       1.2       0.1       1.3       0.1
 3 N  dyz             0.2       1.2       0.1       0.0       0.1       0.8
 3 N  dx2y2           2.3       0.0       1.0       0.0       0.0       0.0
 3 N  dxy             0.0       6.1       0.0       0.8       0.1       1.4
 4 O  s               2.6       8.6       0.9       0.5       0.0       0.1
 4 O  pz              3.0       0.3      10.6       0.0       2.2       0.6
 4 O  px              2.2      10.3       0.5       0.5       0.0       0.0
 4 O  py             11.6      13.3       1.8       3.4       0.0       2.0
 4 O  dxz             0.2       0.0       0.1       0.0       0.0       0.1
 4 O  dyz             0.4       0.0       0.9       0.0       0.0       0.0
 4 O  dx2y2           0.7       0.1       0.0       0.0       0.0       0.0
 4 O  dxy             0.3       0.2       0.0       0.0       0.0       0.0
 5 O  s               2.5       9.0       0.6       0.5       0.0       0.1
 5 O  pz              9.4       4.8       5.7       0.6       1.7       0.0
 5 O  px              3.2       8.0       0.1       0.3       0.0       0.1
 5 O  py              4.1      11.9       6.4       3.0       0.5       2.5
 5 O  dz2             0.3       0.0       0.4       0.0       0.0       0.0
 5 O  dxz             0.0       0.1       0.1       0.0       0.0       0.1
 5 O  dyz             0.5       0.1       0.4       0.0       0.0       0.0
 5 O  dx2y2           0.1       0.1       0.1       0.0       0.0       0.0
 5 O  dxy             0.5       0.1       0.0       0.0       0.0       0.0
 6 H  s               0.5       0.0       0.5       2.3       2.7       7.9
 6 H  pz              0.0       0.0       0.0       0.0       0.1       0.1
 7 H  s               1.0       0.0       0.1       0.0      11.8       0.0
 7 H  px              0.0       0.0       0.0       0.0       0.2       0.0
 7 H  py              0.0       0.0       0.0       0.0       0.0       0.2
 8 H  s               0.5       0.0       0.5       2.3       2.7       7.7
 8 H  pz              0.0       0.0       0.0       0.1       0.0       0.2
 8 H  py              0.0       0.0       0.0       0.0       0.2       0.0
 9 H  s               0.1       0.2       2.9       5.3       1.1       1.6
 9 H  pz              0.0       0.0       0.0       0.2       0.0       0.0
 9 H  py              0.0       0.0       0.1       0.0       0.1       0.0
10 H  s               0.1       0.2       2.9       5.3       1.1       1.6
10 H  pz              0.0       0.0       0.0       0.1       0.0       0.0
10 H  py              0.0       0.0       0.2       0.1       0.0       0.0
11 H  s               1.7       1.2       2.7       5.3       3.6       8.0
11 H  pz              0.0       0.0       0.0       0.1       0.0       0.1
11 H  py              0.1       0.0       0.2       0.1       0.1       0.1
12 H  s               1.8       1.0       2.8       5.3       3.6       8.0
12 H  pz              0.0       0.0       0.1       0.2       0.0       0.2
12 H  py              0.1       0.0       0.1       0.0       0.2       0.0

                     18        19        20        21        22        23   
                  -0.34711  -0.32024  -0.31480  -0.30066  -0.28530  -0.26937
                   2.00000   2.00000   2.00000   2.00000   2.00000   2.00000
                  --------  --------  --------  --------  --------  --------
 0 C  s               0.4       0.2       0.0       0.0       0.2       0.0
 0 C  pz              1.8      21.6       1.0       0.4       0.1       0.0
 0 C  px             33.7       0.3       0.0       0.0       3.7       0.0
 0 C  py              0.0       1.7      11.8       5.7       0.1       0.0
 0 C  dxz             0.2       0.3       0.0       0.0       0.1       0.0
 0 C  dyz             0.0       0.0       0.3       0.2       0.0       0.0
 0 C  dx2y2           0.2       0.4       0.0       0.0       0.0       0.0
 0 C  dxy             0.0       0.1       0.1       0.1       0.0       0.0
 1 C  s               0.3       0.5       0.0       0.0       0.0       0.0
 1 C  pz              2.9      18.1       1.0       0.7       0.1       0.0
 1 C  px             29.9       0.2       0.0       0.0       2.8       0.0
 1 C  py              0.0       1.4      12.3      10.4       0.0       0.1
 1 C  dxz             0.2       0.4       0.0       0.0       0.1       0.0
 1 C  dyz             0.0       0.0       0.4       0.3       0.0       0.0
 1 C  dx2y2           0.1       0.5       0.0       0.0       0.1       0.0
 1 C  dxy             0.0       0.1       0.1       0.1       0.0       0.0
 2 C  s               0.6       0.9       0.0       0.0       0.2       0.0
 2 C  pz              3.6      11.7       0.1       0.1       0.2       0.2
 2 C  px              0.2       2.6       0.0       0.0       9.2       0.0
 2 C  py              0.2       1.0       1.4       1.2       0.0       3.4
 2 C  dz2             0.1       0.0       0.0       0.0       0.0       0.0
 2 C  dyz             0.0       0.0       0.2       0.1       0.0       0.1
 2 C  dx2y2           0.1       0.1       0.0       0.0       0.2       0.0
 3 N  s               0.2       0.0       0.0       0.0       0.7       0.0
 3 N  pz              0.1       0.0       0.0       0.0       0.7       0.1
 3 N  px              0.6       0.1       0.0       0.0       4.1       0.0
 3 N  py              0.0       0.0       0.0       0.0       0.0       0.8
 3 N  dz2             0.3       0.7       1.1       0.6       0.3       0.1
 3 N  dxz             0.2       0.1       0.1       0.2       2.1       0.1
 3 N  dyz             0.1       0.0       4.7       3.1       0.7       0.6
 3 N  dx2y2           2.7       0.8       0.4       0.4       6.7       0.0
 3 N  dxy             0.1       0.0       0.5       1.9       0.0       2.5
 4 O  s               0.0       0.0       0.0       0.0       0.4       0.1
 4 O  pz              0.0       0.4      14.1      17.3       7.7      11.3
 4 O  px              4.3       1.1       2.3       6.3      24.1      17.9
 4 O  py              0.6       0.1       0.3       3.4       0.5      12.9
 4 O  dxz             0.0       0.0       0.0       0.1       0.1       0.0
 4 O  dyz             0.0       0.0       0.2       0.1       0.0       0.3
 4 O  dx2y2           0.0       0.0       0.0       0.1       0.0       0.4
 4 O  dxy             0.0       0.0       0.0       0.0       0.1       0.2
 5 O  s               0.0       0.0       0.0       0.0       0.4       0.1
 5 O  pz              0.2       0.3      13.0      19.6       5.4       2.0
 5 O  px              4.6       1.0       2.1       7.0      24.2      22.4
 5 O  py              0.1       0.0       2.0       0.3       1.7      18.5
 5 O  dz2             0.0       0.0       0.0       0.1       0.0       0.1
 5 O  dxz             0.0       0.0       0.1       0.0       0.2       0.1
 5 O  dyz             0.0       0.0       0.1       0.2       0.0       0.0
 5 O  dx2y2           0.0       0.0       0.0       0.0       0.0       0.5
 5 O  dxy             0.0       0.0       0.0       0.1       0.0       0.3
 6 H  s               1.4       4.5       6.0       3.4       0.0       0.0
 6 H  px              0.2       0.0       0.0       0.0       0.0       0.0
 7 H  s               3.9      10.6       0.0       0.0       1.5       0.0
 7 H  pz              0.2       0.0       0.0       0.0       0.0       0.0
 7 H  px              0.1       0.2       0.0       0.0       0.0       0.0
 7 H  py              0.0       0.0       0.1       0.0       0.0       0.0
 8 H  s               1.6       4.2       6.3       3.3       0.0       0.0
 8 H  px              0.3       0.0       0.0       0.0       0.0       0.0
 8 H  py              0.0       0.2       0.0       0.0       0.0       0.0
 9 H  s               1.1       4.7       7.2       5.3       0.1       0.2
 9 H  px              0.3       0.0       0.0       0.0       0.0       0.0
 9 H  py              0.0       0.2       0.0       0.0       0.0       0.0
10 H  s               1.1       5.0       6.9       5.4       0.0       0.2
10 H  px              0.2       0.0       0.0       0.0       0.0       0.0
11 H  s               0.0       1.4       1.3       0.9       0.4       2.1
12 H  s               0.0       1.3       1.4       0.9       0.4       2.0

                     24        25        26        27        28        29   
                  -0.10918   0.09241   0.09931   0.11952   0.14209   0.14432
                   0.00000   0.00000   0.00000   0.00000   0.00000   0.00000
                  --------  --------  --------  --------  --------  --------
 0 C  s               0.0      15.3       0.9       9.7      11.7       0.0
 0 C  pz              0.0       0.4       0.7       3.8       5.4       0.6
 0 C  px              0.5       0.5       4.1       0.3      19.2       0.1
 0 C  py              0.0       0.0       0.0       0.3       0.1      11.4
 0 C  dz2             0.0       0.1       0.0       0.0       0.1       0.0
 0 C  dxz             0.0       0.6       0.4       0.1       0.4       0.0
 0 C  dyz             0.0       0.0       0.0       0.1       0.0       0.2
 0 C  dx2y2           0.0       0.0       0.1       0.9       0.4       0.0
 0 C  dxy             0.0       0.0       0.0       0.0       0.0       0.3
 1 C  s               0.5       7.2       4.9       8.2      12.6       0.0
 1 C  pz              1.4       3.8       2.8       0.7      10.2       0.5
 1 C  px              1.1       1.4       9.4       5.7       2.1       0.0
 1 C  py              0.1       0.3       0.3       0.0       0.5       8.5
 1 C  dz2             0.0       0.7       0.4       0.2       0.1       0.3
 1 C  dxz             0.0       0.0       0.7       0.6       0.1       0.0
 1 C  dyz             0.0       0.0       0.1       0.1       0.0       1.4
 1 C  dx2y2           0.0       0.4       0.0       0.3       0.1       0.1
 2 C  s               0.0       1.2      15.6       0.8       5.4       0.0
 2 C  pz              0.4       0.9       1.9      13.7      10.3       1.6
 2 C  px              0.1      23.6       9.3       3.8       1.2       0.1
 2 C  py              0.0       0.0       0.2       0.8       0.6      27.1
 2 C  dz2             0.1       0.5       0.0       0.3       0.1       0.5
 2 C  dxz             0.7       1.7       0.1       0.0       0.2       0.0
 2 C  dyz             0.0       0.0       0.0       0.4       0.0       2.0
 2 C  dx2y2           0.2       1.5       0.4       1.8       0.0       0.1
 2 C  dxy             0.1       0.0       0.0       0.0       0.0       0.1
 3 N  s               0.0       6.8       3.8       3.7       0.2       0.0
 3 N  pz             27.4       2.6       0.3       0.3       1.9       0.1
 3 N  px              5.8       4.2       3.2       0.9       0.4       0.0
 3 N  py              2.1       0.1       0.0       0.0       0.1       1.4
 3 N  dz2             1.5       0.4       4.4       4.3       0.3       0.0
 3 N  dxz             1.1       1.4       4.0       2.2       0.1       0.1
 3 N  dyz             0.1       0.1       1.0       1.4       0.0       0.1
 3 N  dx2y2           0.4       0.1       0.3       0.2       0.1       0.0
 3 N  dxy             0.1       0.1       0.2       0.2       0.0       1.9
 4 O  s               0.0       0.6       2.9       0.3       0.0       0.1
 4 O  pz             17.7       0.3       0.0       0.3       0.5       0.0
 4 O  px              4.0       0.6       0.1       0.8       0.1       0.5
 4 O  py              1.4       0.7       1.3       1.2       0.1       0.6
 4 O  dz2             0.0       0.1       1.1       0.2       0.0       0.4
 4 O  dxz             0.8       0.3       0.2       0.9       0.1       0.0
 4 O  dyz             2.4       0.1       0.0       0.1       0.1       0.1
 4 O  dx2y2           0.8       0.1       0.1       0.3       0.0       0.2
 4 O  dxy             0.2       0.4       1.8       1.2       0.1       0.7
 5 O  s               0.0       0.5       2.9       0.3       0.0       0.1
 5 O  pz             17.9       0.4       0.2       0.1       0.6       0.1
 5 O  px              4.0       0.5       0.0       0.9       0.1       0.4
 5 O  py              1.3       0.7       1.1       1.4       0.1       0.6
 5 O  dz2             1.9       0.0       0.4       0.4       0.0       0.1
 5 O  dxz             0.2       0.1       0.8       0.1       0.2       0.1
 5 O  dyz             1.4       0.4       1.0       0.0       0.0       0.3
 5 O  dx2y2           0.0       0.1       0.1       0.6       0.1       0.2
 5 O  dxy             0.7       0.6       0.9       1.6       0.0       0.7
 6 H  s               0.0       1.0       0.0       3.3       1.3       1.4
 6 H  pz              0.0       0.2       0.1       0.0       0.1       0.2
 6 H  px              0.0       0.0       0.2       0.0       0.5       0.1
 6 H  py              0.0       0.6       0.0       1.4       0.7       0.5
 7 H  s               0.1       5.2       0.3       1.3       0.3       0.0
 7 H  pz              0.0       1.2       0.0       0.2       0.0       0.0
 7 H  px              0.0       0.4       0.0       0.0       0.7       0.0
 7 H  py              0.0       0.1       0.0       0.0       0.0       0.0
 8 H  s               0.0       1.0       0.0       3.3       1.4       1.3
 8 H  pz              0.0       0.6       0.0       0.2       0.6       0.4
 8 H  px              0.0       0.1       0.2       0.0       0.4       0.0
 8 H  py              0.0       0.2       0.0       1.2       0.4       0.1
 9 H  s               0.0       1.1       1.0       1.3       0.5       3.7
 9 H  pz              0.0       0.7       0.0       0.1       1.2       0.9
 9 H  px              0.0       0.0       0.5       0.2       0.2       0.0
 9 H  py              0.0       0.2       0.6       1.0       0.1       0.2
10 H  s               0.0       1.1       1.0       1.4       0.4       4.0
10 H  pz              0.0       0.3       0.1       0.1       0.6       0.4
10 H  px              0.0       0.0       0.6       0.1       0.3       0.0
10 H  py              0.0       0.6       0.4       1.2       0.5       0.8
11 H  s               0.6       0.2       3.4       1.6       0.8       8.4
11 H  pz              0.0       0.0       0.0       0.9       0.3       0.8
11 H  px              0.0       1.3       0.1       0.0       0.0       0.2
11 H  py              0.0       0.0       1.5       0.9       0.4       2.0
12 H  s               0.7       0.2       3.5       1.7       1.0       7.9
12 H  pz              0.0       0.0       0.6       0.1       0.7       2.1
12 H  px              0.0       1.3       0.1       0.1       0.0       0.1
12 H  py              0.0       0.0       0.9       1.6       0.1       0.6

                     30        31        32        33        34        35   
                   0.16719   0.18783   0.19191   0.19922   0.20131   0.21710
                   0.00000   0.00000   0.00000   0.00000   0.00000   0.00000
                  --------  --------  --------  --------  --------  --------
 0 C  s               1.2       0.0       2.9       0.4       0.0       3.4
 0 C  pz              4.9       0.1       6.9       8.3       1.7      15.1
 0 C  px             21.6       0.1      11.3       0.9       0.1       4.0
 0 C  py              0.5       2.4       0.6       0.7      20.8       0.9
 0 C  dz2             0.7       0.2       0.2       0.4       0.9       0.1
 0 C  dxz             0.3       0.0       1.1       1.0       0.0       0.0
 0 C  dyz             0.0       0.5       0.1       0.0       4.0       0.5
 0 C  dx2y2           0.7       0.0       0.0       0.0       0.3       4.1
 0 C  dxy             0.0       1.1       0.0       0.1       0.0       0.1
 1 C  s               2.8       0.0       0.1       0.1       0.0       0.2
 1 C  pz              8.7       0.8      10.9      24.2       0.4       1.4
 1 C  px              4.5       0.1       3.9       2.7       0.0       6.4
 1 C  py              0.3      15.1       0.5       1.9       4.8       0.1
 1 C  dz2             0.1       0.3       0.0       0.2       0.1       0.2
 1 C  dxz             0.0       0.0       0.5       1.8       0.1       0.0
 1 C  dyz             0.0       1.3       0.0       0.5       0.5       0.0
 1 C  dx2y2           1.1       0.0       0.4       2.3       0.1       0.2
 1 C  dxy             0.0       1.1       0.0       0.3       1.0       0.0
 2 C  s               2.7       0.0       0.7       7.6       0.0       3.4
 2 C  pz             14.2       0.2       8.4       5.4       0.6       3.2
 2 C  px              5.7       0.1       5.7       3.1       0.0       1.7
 2 C  py              0.7       4.4       0.5       0.3       9.0       0.2
 2 C  dz2             0.1       0.1       0.6       0.0       0.2       0.5
 2 C  dxz             0.3       0.1       0.9       0.0       0.0       0.1
 2 C  dyz             0.0       0.4       0.2       0.0       1.0       0.3
 2 C  dx2y2           0.2       0.0       0.0       0.4       0.1       0.2
 2 C  dxy             0.1       1.4       0.1       0.0       0.2       0.0
 3 N  s               1.1       0.0       5.8       5.2       0.0       0.3
 3 N  pz              1.4       0.6       0.5       0.1       0.0       0.4
 3 N  px              1.1       0.0       1.9       3.3       0.0       0.7
 3 N  py              0.1       8.9       0.1       0.0       0.2       0.0
 3 N  dz2             1.6       0.0       0.6       0.0       0.1       1.8
 3 N  dxz             0.3       0.3       0.6       0.1       0.0       0.5
 3 N  dyz             0.3       0.3       0.2       0.1       0.5       0.7
 3 N  dx2y2           0.0       0.0       0.1       1.0       0.1       0.4
 3 N  dxy             0.0       4.0       0.1       0.0       0.1       0.1
 4 O  s               0.6       2.0       2.1       1.1       0.0       0.0
 4 O  pz              0.5       0.1       0.0       0.0       0.0       0.2
 4 O  px              0.5       1.6       0.9       1.9       0.1       0.1
 4 O  py              0.3       2.8       2.4       0.4       0.0       1.1
 4 O  dz2             0.2       0.1       0.6       0.9       0.1       0.0
 4 O  dxz             0.3       0.2       0.0       0.0       0.0       0.9
 4 O  dyz             0.0       0.6       0.0       0.0       0.0       0.1
 4 O  dx2y2           0.0       1.0       0.2       0.0       0.0       0.5
 4 O  dxy             0.1       0.1       0.2       0.7       0.1       0.8
 5 O  s               0.7       2.1       1.6       1.3       0.0       0.0
 5 O  pz              0.3       1.1       0.5       0.2       0.0       0.0
 5 O  px              0.5       1.8       0.5       1.7       0.1       0.2
 5 O  py              0.6       2.0       1.6       0.4       0.0       1.1
 5 O  dz2             0.2       0.0       0.2       0.4       0.2       0.2
 5 O  dxz             0.4       0.1       0.0       0.1       0.1       0.2
 5 O  dyz             0.1       0.1       0.6       0.6       0.0       0.1
 5 O  dx2y2           0.0       1.2       0.1       0.0       0.0       0.7
 5 O  dxy             0.0       0.5       0.1       0.5       0.1       1.2
 6 H  s               0.1       2.5       0.0       0.5      16.3       9.2
 6 H  pz              0.1       0.1       0.2       0.3       1.9       0.6
 6 H  px              0.4       0.3       0.3       0.3       0.0       0.0
 6 H  py              0.1       0.3       0.0       0.1       1.3       3.2
 7 H  s               0.9       0.1      11.5       1.2       0.0       4.3
 7 H  pz              0.1       0.0       3.1       0.0       0.2       0.0
 7 H  px              0.9       0.0       1.0       0.8       0.0       1.1
 7 H  py              0.0       0.0       0.3       0.0       2.9       0.0
 8 H  s               0.2       2.4       0.0       0.9      16.1       9.2
 8 H  pz              0.1       0.4       0.1       0.5       2.9       0.1
 8 H  px              0.4       0.2       0.3       0.2       0.0       0.0
 8 H  py              0.0       0.1       0.1       0.0       0.1       3.8
 9 H  s               2.7       8.3       0.2       3.5       2.4       0.4
 9 H  pz              0.1       1.9       0.1       0.1       0.7       0.1
 9 H  px              0.0       0.4       0.2       0.2       0.4       0.0
 9 H  py              0.8       0.5       0.1       1.6       0.1       0.0
10 H  s               2.1       7.9       0.4       4.5       2.0       0.3
10 H  pz              0.0       1.0       0.1       0.7       0.5       0.0
10 H  px              0.0       0.5       0.1       0.3       0.3       0.0
10 H  py              0.8       1.4       0.1       1.0       0.4       0.1
11 H  s               2.3       3.7       1.2       0.0       1.5       2.8
11 H  pz              0.1       0.3       0.2       0.2       0.2       0.1
11 H  px              0.3       0.4       0.7       0.0       0.1       0.0
11 H  py              1.2       0.5       0.2       0.0       0.0       1.4
12 H  s               2.2       4.3       0.8       0.0       1.5       2.9
12 H  pz              0.6       0.8       0.1       0.2       0.1       0.1
12 H  px              0.1       0.4       0.4       0.0       0.1       0.0
12 H  py              0.7       0.3       0.4       0.0       0.0       1.5

                     36        37        38        39        40        41   
                   0.23196   0.24070   0.24336   0.25268   0.25879   0.27295
                   0.00000   0.00000   0.00000   0.00000   0.00000   0.00000
                  --------  --------  --------  --------  --------  --------
 0 C  s               1.7       0.0       0.9       0.0       0.4       0.0
 0 C  pz             24.0       4.1       4.2       0.3       0.7       0.2
 0 C  px              6.3       0.3       6.5       0.0       3.8       0.0
 0 C  py              1.0      59.2       0.7       5.5       0.0       4.0
 0 C  dz2             0.1       0.0       0.3       0.2       0.0       0.0
 0 C  dxz             0.0       0.0       0.7       0.0       0.1       0.0
 0 C  dyz             0.0       0.0       0.1       0.6       0.0       0.0
 0 C  dxy             0.0       0.0       0.1       0.3       0.0       0.3
 1 C  s               0.1       0.0       3.9       0.0       0.4       0.0
 1 C  pz              0.4       0.0      11.7       0.6       4.9       3.3
 1 C  px             17.4       0.0       1.0       0.0       0.5       0.2
 1 C  py              0.2       0.5       0.9       8.0       0.3      46.7
 1 C  dz2             0.4       0.0       0.0       0.5       0.0       0.2
 1 C  dxz             1.4       0.0       0.4       0.0       0.0       0.0
 1 C  dyz             0.0       0.2       0.0       1.8       0.0       0.7
 1 C  dx2y2           0.4       0.0       0.2       0.1       0.5       0.0
 2 C  s               1.9       0.0       0.3       0.0       0.3       0.0
 2 C  pz              4.4       0.3      16.0       1.5       0.5       0.1
 2 C  px              6.0       0.0       1.8       0.1       0.4       0.0
 2 C  py              0.5       5.4       1.1      23.2       0.0       1.3
 2 C  dz2             0.0       0.1       0.0       0.3       0.1       0.0
 2 C  dxz             0.0       0.0       0.0       0.0       0.2       0.0
 2 C  dyz             0.0       0.4       0.1       1.4       0.0       0.0
 2 C  dx2y2           0.0       0.0       0.5       0.1       0.3       0.0
 2 C  dxy             0.0       0.0       0.0       0.0       0.0       0.4
 3 N  s               1.6       0.0       2.7       0.0       6.5       0.0
[...]
 3 N  dxz             0.1       0.2       0.1       0.3       0.9       8.5
 3 N  dyz             6.7       0.0       2.3       0.4       0.6       0.6
 3 N  dx2y2           0.2       0.1       0.2       0.2       4.2      22.7
 3 N  dxy             2.7       0.0       0.4       3.7       0.0       0.0
 4 O  s              29.0       0.2       0.1       3.5       0.4       2.9
 4 O  pz              1.1       0.0       0.3       0.0       1.1       0.4
 4 O  px              0.5       0.0       0.0       0.6       4.2       0.2
 4 O  py              0.2       0.1       0.1       0.1       2.3       2.1
 4 O  dz2             0.2       0.0       0.0       0.0       0.1       0.1
 4 O  dxz             0.9       0.0       0.6       0.2       0.5       0.0
 4 O  dyz             3.4       0.1       1.4       0.1       3.7       1.6
 4 O  dx2y2           0.5       0.2       0.2       1.6      12.6       1.8
 4 O  dxy             0.0       0.0       0.0       0.2       3.7       1.8
 5 O  s              31.7       0.1       0.1       3.6       0.3       2.9
 5 O  pz              1.1       0.0       0.2       0.0       0.1       0.1
 5 O  px              0.6       0.1       0.0       0.7       4.9       0.3
 5 O  py              0.2       0.1       0.1       0.0       2.7       2.3
 5 O  dz2             2.6       0.0       0.8       0.1       0.8       0.8
 5 O  dxz             0.6       0.0       0.1       0.0       2.7       0.4
 5 O  dyz             0.3       0.0       0.8       0.7       0.1       0.0
 5 O  dx2y2           1.7       0.2       0.0       0.7      12.3       1.8
 5 O  dxy             0.0       0.0       0.3       0.6       4.6       2.3
 6 H  s               0.1       2.1       0.6       0.5       0.0       0.0
 6 H  pz              0.0       0.1       0.1       0.2       0.0       0.0
 6 H  px              0.0       0.3       0.2       0.3       0.0       0.1
 6 H  py              0.3       5.2       1.2       1.1       0.0       0.0
 7 H  s               0.0       4.1       0.0       0.0       0.1       0.1
 7 H  pz              0.0       3.7       0.0       0.0       0.2       0.2
 7 H  px              0.0       5.3       0.0       0.0       0.0       0.0
 7 H  py              0.0       0.4       0.1       0.0       0.0       0.0
 8 H  s               0.0       2.1       0.5       0.6       0.0       0.0
 8 H  pz              0.0       2.1       0.6       0.8       0.0       0.0
 8 H  px              0.0       0.1       0.1       0.2       0.0       0.1
 8 H  py              0.0       3.5       0.6       0.6       0.0       0.0
 9 H  s               0.4       1.8       1.8       4.4       0.1       0.0
 9 H  pz              1.1       2.7       2.6       6.2       0.1       0.1
 9 H  px              0.0       0.0       0.6       0.2       0.0       0.0
 9 H  py              0.3       3.1       1.2       3.6       0.2       0.1
10 H  s               0.5       1.6       1.9       4.4       0.1       0.1
10 H  pz              0.5       0.2       0.8       1.5       0.0       0.0
10 H  px              0.0       0.1       0.8       0.6       0.1       0.0
10 H  py              1.3       5.0       3.0       7.9       0.3       0.1
11 H  s               0.1       0.3       5.5       1.6       0.2       0.7
11 H  pz              0.0       0.1       2.1       0.6       0.0       0.0
11 H  px              0.3       0.3       0.4       0.0       0.0       0.0
11 H  py              0.0       0.7       9.4       3.7       1.0       1.8
12 H  s               0.2       0.2       5.4       1.6       0.3       0.7
12 H  pz              0.1       0.2       7.7       2.6       0.2       0.7
12 H  px              0.4       0.3       0.1       0.2       0.0       0.1
12 H  py              0.2       0.3       3.9       1.5       1.0       1.1

                    156       157       158       159       160       161   
                   4.80235   4.81372  21.91149  21.99643  22.13563  31.83966
                   0.00000   0.00000   0.00000   0.00000   0.00000   0.00000
                  --------  --------  --------  --------  --------  --------
 0 C  s               0.0       0.0      86.4       9.1       4.1       0.0
 1 C  s               0.0       0.0      10.2      89.1       0.4       0.0
 2 C  s               0.0       0.1       3.0       1.5      94.8       0.0
 2 C  dx2y2           0.0       0.2       0.0       0.0       0.0       0.0
 3 N  s               0.0      10.4       0.0       0.0       0.2      99.6
 3 N  pz              1.0       0.8       0.0       0.0       0.0       0.0
 3 N  px              0.1       3.4       0.0       0.0       0.1       0.0
 3 N  py             17.1       0.0       0.0       0.0       0.0       0.0
 3 N  dz2             0.7       4.4       0.0       0.0       0.0       0.0
 3 N  dxz             0.8       0.4       0.0       0.0       0.0       0.0
 3 N  dyz             3.0       3.1       0.0       0.0       0.0       0.0
 3 N  dx2y2           0.0       7.6       0.0       0.0       0.1       0.0
 3 N  dxy            16.3       0.2       0.0       0.0       0.0       0.0
 4 O  s               7.5      10.6       0.0       0.0       0.0       0.1
 4 O  px              2.0       2.7       0.0       0.0       0.0       0.0
 4 O  py              6.7       7.4       0.0       0.0       0.0       0.0
 4 O  dz2             3.1       3.8       0.0       0.0       0.0       0.0
 4 O  dxz             0.2       0.0       0.0       0.0       0.0       0.0
 4 O  dx2y2           4.2       2.1       0.0       0.0       0.0       0.0
 4 O  dxy             7.7       7.3       0.0       0.0       0.0       0.0
 5 O  s               7.1      11.0       0.0       0.0       0.0       0.1
 5 O  pz              1.4       1.8       0.0       0.0       0.0       0.0
 5 O  px              1.2       1.9       0.0       0.0       0.0       0.0
 5 O  py              5.7       6.8       0.0       0.0       0.0       0.0
 5 O  dz2             0.6       1.1       0.0       0.0       0.0       0.0
 5 O  dxz             0.5       1.6       0.0       0.0       0.0       0.0
 5 O  dyz             4.8       4.8       0.0       0.0       0.0       0.0
 5 O  dx2y2           3.9       2.3       0.0       0.0       0.0       0.0
 5 O  dxy             4.6       4.2       0.0       0.0       0.0       0.0

                    162       163   
                  43.84417  43.86601
                   0.00000   0.00000
                  --------  --------
 3 N  s               0.1       0.0
 4 O  s              48.8      51.0
 5 O  s              50.9      48.9


                      *****************************
                      * MAYER POPULATION ANALYSIS *
                      *****************************

  NA   - Mulliken gross atomic population
  ZA   - Total nuclear charge
  QA   - Mulliken gross atomic charge
  VA   - Mayer's total valence
  BVA  - Mayer's bonded valence
  FA   - Mayer's free valence

  ATOM       NA         ZA         QA         VA         BVA        FA
  0 C      6.4988     6.0000    -0.4988     3.8056     3.8056     0.0000
  1 C      6.2064     6.0000    -0.2064     3.6485     3.6485    -0.0000
  2 C      6.3237     6.0000    -0.3237     3.8246     3.8246     0.0000
  3 N      6.7129     7.0000     0.2871     4.5062     4.5062    -0.0000
  4 O      8.2514     8.0000    -0.2514     2.1864     2.1864    -0.0000
  5 O      8.2509     8.0000    -0.2509     2.1853     2.1853    -0.0000
  6 H      0.8381     1.0000     0.1619     0.9592     0.9592     0.0000
  7 H      0.8310     1.0000     0.1690     0.9558     0.9558     0.0000
  8 H      0.8382     1.0000     0.1618     0.9592     0.9592     0.0000
  9 H      0.8329     1.0000     0.1671     0.9564     0.9564    -0.0000
 10 H      0.8329     1.0000     0.1671     0.9563     0.9563    -0.0000
 11 H      0.7915     1.0000     0.2085     0.9392     0.9392     0.0000
 12 H      0.7912     1.0000     0.2088     0.9391     0.9391    -0.0000

  Mayer bond orders larger than 0.100000
B(  0-C ,  1-C ) :   0.9004 B(  0-C ,  6-H ) :   0.9754 B(  0-C ,  7-H ) :   0.9634 
B(  0-C ,  8-H ) :   0.9753 B(  1-C ,  2-C ) :   0.8875 B(  1-C ,  9-H ) :   0.9533 
B(  1-C , 10-H ) :   0.9525 B(  2-C ,  3-N ) :   0.8757 B(  2-C , 11-H ) :   0.9502 
B(  2-C , 12-H ) :   0.9487 B(  3-N ,  4-O ) :   1.8056 B(  3-N ,  5-O ) :   1.8053 
B(  4-O ,  5-O ) :   0.2627 

-------
TIMINGS
-------

Total SCF time: 0 days 0 hours 0 min 22 sec 

Total time                  ....      22.292 sec
Sum of individual times     ....      20.416 sec  ( 91.6%)

SCF preparation             ....       0.381 sec  (  1.7%)
Fock matrix formation       ....      18.747 sec  ( 84.1%)
  Startup                   ....       0.066 sec  (  0.4% of F)
  Split-RI-J                ....       2.292 sec  ( 12.2% of F)
  XC integration            ....      12.948 sec  ( 69.1% of F)
    XC Preparation          ....       0.000 sec  (  0.0% of XC)
    Basis function eval.    ....       1.997 sec  ( 15.4% of XC)
    Density eval.           ....       3.028 sec  ( 23.4% of XC)
    XC-Functional eval.     ....       1.600 sec  ( 12.4% of XC)
    XC-Potential eval.      ....       3.627 sec  ( 28.0% of XC)
  CPCM terms                ....       2.830 sec  ( 15.1% of F)
Diagonalization             ....       0.000 sec  (  0.0%)
Density matrix formation    ....       0.289 sec  (  1.3%)
Total Energy calculation    ....       0.064 sec  (  0.3%)
Population analysis         ....       0.087 sec  (  0.4%)
Orbital Transformation      ....       0.062 sec  (  0.3%)
Orbital Orthonormalization  ....       0.000 sec  (  0.0%)
DIIS solution               ....       0.727 sec  (  3.3%)
  MO trafo                  ....       0.000 sec  (  0.0 % of DIIS)
  Orb grad                  ....       0.000 sec  (  0.0 % of DIIS)
  Energy W gradient         ....       0.000 sec  (  0.0 % of DIIS)
  DIIS error                ....       0.011 sec  (  1.5 % of DIIS)
  DIIS work                 ....       0.656 sec  ( 90.2 % of DIIS)
  Form Q                    ....       0.000 sec  (  0.0 % of DIIS)
  Form QpQm                 ....       0.000 sec  (  0.0 % of DIIS)
  Exp/Cayley                ....       0.000 sec  (  0.0 % of DIIS)
  Orb update                ....       0.000 sec  (  0.0 % of DIIS)
  Wake-sleep                ....       0.032 sec  (  4.4 % of DIIS)
SOSCF solution              ....       0.060 sec  (  0.3%)
  MO trafo                  ....       0.033 sec  ( 55.8 % of SOSCF)
  Orb grad                  ....       0.001 sec  (  1.1 % of SOSCF)
  Rot update                ....       0.000 sec  (  0.1 % of SOSCF)
  Step                      ....       0.026 sec  ( 42.9 % of SOSCF)
Finished LeanSCF after  22.5 sec

Maximum memory used throughout the entire LEANSCF-calculation: 16.8 MB


-------------------------------------------------------------------------------
                          DFT DISPERSION CORRECTION                            
                                                                               
                                DFTD4 V3.4.0                                   
-------------------------------------------------------------------------------
The R2SCAN3C composite method is recognized
Using three-body term ABC
Active option DFTDOPT                   ...         5   

-------------------------   ----------------
Dispersion correction           -0.002817273
-------------------------   ----------------

------------------   -----------------
gCP correction             0.012486743
------------------   -----------------

-------------------------   --------------------
FINAL SINGLE POINT ENERGY      -323.585863870175
-------------------------   --------------------


------------------------------------------------------------------------------
                              ORCA PROPERTY CALCULATIONS
------------------------------------------------------------------------------

GBWName                                 ... sp_solv.gbw
Number of atoms                         ...     13
Number of basis functions               ...    164
Max core memory                         ...   1024 MB

Electric properties:
Dipole moment                           ... YES
Quadrupole moment                       ...  NO
Static polarizability (Dipole/Dipole)   ...  NO
Static polarizability (Dipole/Quad.)    ...  NO
Static polarizability (Quad./Quad.)     ...  NO
Static polarizability (Velocity)        ...  NO

Atomic electric properties:
Dipole moment                           ...  NO
Quadrupole moment                       ...  NO
Static polarizability                   ...  NO

Choice of electric origin               ... Center of mass
Position of electric origin             ...    -0.000060     0.000002    -0.000005

General magnetic properties:
Magnetizability                         ...  NO

EPR properties:
g-Tensor (aka g-matrix)                 ...  NO
Zero-Field splitting spin-orbit         ...  NO
Zero-field splitting spin-spin          ...  NO
Hyperfine couplings                     ...  NO (   0 nuclei)
Quadrupole couplings                    ...  NO (   0 nuclei)
Contact density                         ...  NO (   0 nuclei)

NMR properties:
Chemical shifts                         ...  NO (   0 nuclei)
Spin-rotation constants                 ...  NO (   0 nuclei)
Spin-spin couplings                     ...  NO (   0 nuclei,    0 pairs)

Choice of magnetic origin               ... GIAO
Position of magnetic origin             ...     0.000000     0.000000     0.000000

Properties with geometric perturbations:
SCF Hessian                             ...  NO
IR spectrum                             ...  NO
VCD spectrum                            ...  NO
X-ray spectroscopy properties:
SCF XES/XAS/RIXS spectra                ...  NO


-------------
DIPOLE MOMENT
-------------

Method             : SCF
Type of density    : Electron Density
Multiplicity       :   1
Irrep              :   0
Energy             :  -323.5955333408708725 Eh
Relativity type    : 
Basis              : AO
                                X                 Y                 Z
Electronic contribution:      9.624027433      -0.531512845       0.177334835
Nuclear contribution   :    -11.548635316       0.491687134      -0.782064535
                        -----------------------------------------
Total Dipole Moment    :     -1.924607883      -0.039825711      -0.604729700
                        -----------------------------------------
Magnitude (a.u.)       :      2.017770949
Magnitude (Debye)      :      5.128766162



--------------------
Rotational spectrum 
--------------------
 
Rotational constants in cm-1:             0.291890             0.066740             0.060659 
Rotational constants in MHz :          8750.653667          2000.802263          1818.506563 

Dipole components along the rotational axes: 
x,y,z [a.u.] :    -1.925451    -0.009796    -0.603277 
x,y,z [Debye]:    -4.894107    -0.024899    -1.533408 

 

Dipole moment calculation done in   0.0 sec 

Maximum memory used throughout the entire PROP-calculation: 9.4 MB

--------------------------------
SUGGESTED CITATIONS FOR THIS RUN
--------------------------------

Below you find a list of papers that are relevant to this ORCA run
We neither can nor want to force you to cite these papers, but we appreciate if you do
You receive ORCA, which is the product of decades of hard work by many enthusiastic individuals, for free
The only thing we kindly ask in return is that you cite our papers,
We deeply appreciate it, if you show your appreciation for ORCA by not just citing the generic ORCA reference.

Please note that relegating all ORCA citations to the supporting information does *not* help us.
SI sections are not indexed - citations you put there will not count into any citation statistics
But we need these citations in order to attract the funding resources that allow us to do what we are doing

Therefore, if you are a happy ORCA user, please consider citing a few of the papers listed below in the main body of your paper

In addition to the list printed below, the program has created the file sp_solv.bibtex that contains the list in bibtex format
You can import this file easily into all common literature databanks and citation aid programs


List of essential papers. We consider these as the minimum necessary citations

  1. Neese,F.
     Software update: the ORCA program system, version 5.0
     WIRES Comput. Molec. Sci., 2022 12(1)e1606
     doi.org/10.1002/wcms.1606
  2. Grimme,S.; Hansen,A.; Ehlert,S.; Mewes,J.
     r2SCAN-3c: A 'Swiss army knife' composite electronic-structure method
     J. Chem. Phys., 2021 154 064103
     doi.org/10.1063/5.0040021

List of papers to cite with high priority. The work reported in these papers was absolutely
necessary for this run to complete.
Our perspective: the developers of density functionals and basis sets usually get cited in chemistry papers
Good! But without the algorithms to do something with them, the functionals or basis sets would not do anything.
Hence, in our opinion, the algorithm design and method developments papers are equally worthy of getting cited

  1. Neese,F.
     An improvement of the resolution of the identity approximation for the formation of the Coulomb matrix
     J. Comp. Chem., 2003 24(14)1740-1747
     doi.org/10.1002/jcc.10318
  2. Garcia-Rates,M.; Neese,F.
     Effect of the Solute Cavity on the Solvation Energy and its Derivatives within the Framework of the Gaussian Charge Scheme
     J. Comput. Chem., 2020 41 922-939
     doi.org/10.1002/jcc.26139
  3. Neese,F.
     The SHARK Integral Generation and Digestion System
     J. Comp. Chem., 2022  1-16
     doi.org/10.1002/jcc.26942
  4. Lehtola,S.; Steigemann,C.; Oliveira,M.; Marques,M.
     Recent developments in Libxc - A comprehensive library of functionals for density functional theory
     Software X, 2018 7 
     doi.org/10.1016/j.softx.2017.11.002
  5. Caldeweyher,E.; Bannwarth,C.; Grimme,S.
     Extension of the D3 dispersion coefficient model
     J. Chem. Phys., 2017 147 034112-XXXX
     doi.org/10.1063/1.4993215
  6. Caldeweyher,E.; Ehlert,S.; Hansen,A.; Neugebauer,H.; Spicher,S.; Bannwarth,C.; Grimme,S.
     A generally applicable atomic-charge dependent London dispersion correction
     J. Chem. Phys., 2019 150 154122-XXXX
     doi.org/10.1063/1.5090222
  7. Caldeweyher,E.; Mewes,J.; Ehlert,S.; Grimme,S.
     Extension and evaluation of the D4 London-dispersion model for periodic systems
     Phys. Chem. Chem. Phys., 2020 22(16)8499-8512
     doi.org/10.1039/D0CP00502A

List of suggested additional citations. These are papers that are important in the 'surrounding' of 
of this run, or papers that preceded the highly important papers. If you like your results we are grateful for a citation.

  1. Neese,F.
     The ORCA program system
     WIRES Comput. Molec. Sci., 2012 2(1)73-78
     doi.org/10.1002/wcms.81
  2. Neese,F.
     Software update: the ORCA program system, version 4.0
     WIRES Comput. Molec. Sci., 2018 8(1)1-6
     doi.org/10.1002/wcms.1327
  3. Neese,F.; Wennmohs,F.; Becker,U.; Riplinger,C.
     The ORCA quantum chemistry program package
     J. Chem. Phys., 2020 152 Art. No. L224108
     doi.org/10.1063/5.0004608

List of optional additional citations

  1. Neese,F.
     Approximate second-order SCF convergence for spin unrestricted wavefunctions
     Chem. Phys. Lett., 2000 325(1-3)93-98
     doi.org/10.1016/s0009-2614(00)00662-x

Timings for individual modules:

Sum of individual times          ...       24.352 sec (=   0.406 min)
Startup calculation              ...        1.127 sec (=   0.019 min)   4.6 %
SCF iterations                   ...       23.097 sec (=   0.385 min)  94.8 %
Property calculations            ...        0.128 sec (=   0.002 min)   0.5 %
                             ****ORCA TERMINATED NORMALLY****
TOTAL RUN TIME: 0 days 0 hours 0 minutes 25 seconds 365 msec
