      -----------------------------------------------------------      
     |                   =====================                   |     
     |                           x T B                           |     
     |                   =====================                   |     
     |                         S. Grimme                         |     
     |          Mulliken Center for Theoretical Chemistry        |     
     |                    University of Bonn                     |     
      -----------------------------------------------------------      

   * xtb version 6.7.1 (edcfbbe) compiled by 'albert@albert-system' on 2024-07-22

   xtb is free software: you can redistribute it and/or modify it under
   the terms of the GNU Lesser General Public License as published by
   the Free Software Foundation, either version 3 of the License, or
   (at your option) any later version.
   
   xtb is distributed in the hope that it will be useful,
   but WITHOUT ANY WARRANTY; without even the implied warranty of
   MERCHANTABILITY or FITNESS FOR A PARTICULAR PURPOSE.  See the
   GNU Lesser General Public License for more details.
   
   Cite this work as:
   * C. Bannwarth, E. Caldeweyher, S. Ehlert, A. Hansen, P. Pracht,
     J. Seibert, S. Spicher, S. Grimme, WIREs Comput. Mol. Sci., 2020, 11,
     e01493. DOI: 10.1002/wcms.1493
   
   for GFN2-xTB:
   * C. Bannwarth, S. Ehlert and S. Grimme., J. Chem. Theory Comput., 2019,
     15, 1652-1671. DOI: 10.1021/acs.jctc.8b01176
   for GFN1-xTB:
   * S. Grimme, C. Bannwarth, P. Shushkov, J. Chem. Theory Comput., 2017,
     13, 1989-2009. DOI: 10.1021/acs.jctc.7b00118
   for GFN0-xTB:
   * P. Pracht, E. Caldeweyher, S. Ehlert, S. Grimme, ChemRxiv, 2019, preprint.
     DOI: 10.26434/chemrxiv.8326202.v1
   for GFN-FF:
   * S. Spicher and S. Grimme, Angew. Chem. Int. Ed., 2020, 59, 15665-15673.
     DOI: 10.1002/anie.202004239
   
   for ALPB and GBSA implicit solvation:
   * S. Ehlert, M. Stahn, S. Spicher, S. Grimme, J. Chem. Theory Comput.,
     2021, 17, 4250-4261. DOI: 10.1021/acs.jctc.1c00471
   
   for ddCOSMO and CPCM-X implicit solvation:
   * M. Stahn, S. Ehlert, S. Grimme, J. Phys. Chem. A,
     2023, XX, XXXX-XXXX. DOI: 10.1021/acs.jpca.3c04382
   
   for DFT-D4:
   * E. Caldeweyher, C. Bannwarth and S. Grimme, J. Chem. Phys., 2017,
     147, 034112. DOI: 10.1063/1.4993215
   * E. Caldeweyher, S. Ehlert, A. Hansen, H. Neugebauer, S. Spicher,
     C. Bannwarth and S. Grimme, J. Chem. Phys., 2019, 150, 154122.
     DOI: 10.1063/1.5090222
   * E. Caldeweyher, J.-M. Mewes, S. Ehlert and S. Grimme, Phys. Chem. Chem. Phys.
     2020, 22, 8499-8512. DOI: 10.1039/D0CP00502A
   
   for sTDA-xTB:
   * S. Grimme and C. Bannwarth, J. Chem. Phys., 2016, 145, 054103.
     DOI: 10.1063/1.4959605
   
   in the mass-spec context:
   * V. Asgeirsson, C. Bauer and S. Grimme, Chem. Sci., 2017, 8, 4879.
     DOI: 10.1039/c7sc00601b
   * J. Koopman and S. Grimme, ACS Omega 2019, 4, 12, 15120-15133.
     DOI: 10.1021/acsomega.9b02011
   
   for metadynamics refer to:
   * S. Grimme, J. Chem. Theory Comput., 2019, 155, 2847-2862
     DOI: 10.1021/acs.jctc.9b00143
   
   for SPH calculations refer to:
   * S. Spicher and S. Grimme, J. Chem. Theory Comput., 2021, 17, 1701-1714
     DOI: 10.1021/acs.jctc.0c01306
   
   for ONIOM refer to:
   * C. Plett, A. Katbashev, S. Ehlert, S. Grimme, M. Bursch,
     Phys. Chem. Chem. Phys., 2023, 25, 17860-17868. DOI: 10.1039/D3CP02178E
   
   for DIPRO refer to:
   * J. Kohn, N. Gildemeister, S. Grimme, D. Fazzi, A. Hansen,
     J. Chem. Phys., 2023, just accepted.
   
   for PTB refer to:
   * S. Grimme, M. Mueller, A. Hansen, J. Chem. Phys., 2023, 158, 124111.
     DOI: 10.1063/5.0137838
   
   with help from (in alphabetical order)
   P. Atkinson, C. Bannwarth, F. Bohle, G. Brandenburg, E. Caldeweyher
   M. Checinski, S. Dohm, S. Ehlert, S. Ehrlich, I. Gerasimov, C. Hölzer
   A. Katbashev, J. Kohn, J. Koopman, C. Lavigne, S. Lehtola, F. März, M. Müller,
   F. Musil, H. Neugebauer, J. Pisarek, C. Plett, P. Pracht, F. Pultar,
   J. Seibert, P. Shushkov, S. Spicher, M. Stahn, M. Steiner, T. Strunk,
   J. Stückrath, T. Rose, and J. Unsleber
   
 * started run on 2025/04/11 at 12:27:11.054     
   ID    Z sym.   atoms
    1    6 C      1-3
    2    7 N      4
    3    8 O      5, 6
    4    1 H      7-13

           -------------------------------------------------
          |                Calculation Setup                |
           -------------------------------------------------

          program call               : /srv/scratch/z5358697/.xtb/bin/xtb solv.coord --gfn2 --sp --chrg 0 --norestart --parallel 1 --alpb water reference -I xtb_sp-xcontrol-inp
          hostname                   : k061
          coordinate file            : solv.coord
          omp threads                :                     1


           -------------------------------------------------
          |                 G F N 2 - x T B                 |
           -------------------------------------------------

        Reference                      10.1021/acs.jctc.8b01176
      * Hamiltonian:
        H0-scaling (s, p, d)           1.850000    2.230000    2.230000
        zeta-weighting                 0.500000
      * Dispersion:
        s8                             2.700000
        a1                             0.520000
        a2                             5.000000
        s9                             5.000000
      * Repulsion:
        kExp                           1.500000    1.000000
        rExp                           1.000000
      * Coulomb:
        alpha                          2.000000
        third order                    shell-resolved
        anisotropic                    true
        a3                             3.000000
        a5                             4.000000
        cn-shift                       1.200000
        cn-exp                         4.000000
        max-rad                        5.000000

      * Solvation model:               ALPB
        Solvent                        water
        Parameter file                 internal GFN2-xTB/ALPB
        Dielectric constant                8.0200E+01
        Reference state                gsolv=reference [X=1]
        Free energy shift                  2.8945E-03 Eh       1.8164E+00 kcal/mol
        Temperature                        2.9815E+02 K
        Density                            1.0000E+00 kg/L
        Solvent mass                       1.8000E+01 g/mol
        Interaction kernel             P16
        Born radius scaling (c1)           1.4744E+00
        Born radii integrator          GBOBC
        Born offset                        0.0000E+00 a0       0.0000E+00 AA
        H-bond correction              true
        Ion screening                  false
        Surface tension                    1.0000E-05 Eh       1.5569E+01 dyn/cm
        Grid points                               974 per atom

          ...................................................
          :                      SETUP                      :
          :.................................................:
          :  # basis functions                  31          :
          :  # atomic orbitals                  31          :
          :  # shells                           19          :
          :  # electrons                        36          :
          :  max. iterations                   250          :
          :  Hamiltonian                  GFN2-xTB          :
          :  restarted?                      false          :
          :  GBSA solvation                   true          :
          :  PC potential                    false          :
          :  electronic temp.          300.0000000     K    :
          :  accuracy                    1.0000000          :
          :  -> integral cutoff          0.2500000E+02      :
          :  -> integral neglect         0.1000000E-07      :
          :  -> SCF convergence          0.1000000E-05 Eh   :
          :  -> wf. convergence          0.1000000E-03 e    :
          :  Broyden damping             0.4000000          :
          :  net charge                          0          :
          :  unpaired electrons                  0          :
          ...................................................

 iter      E             dE          RMSdq      gap      omega  full diag
   1    -21.0362537 -0.210363E+02  0.533E+00    4.86       0.0  T
   2    -21.1489257 -0.112672E+00  0.219E+00    3.74       1.0  T
   3    -21.1513255 -0.239983E-02  0.120E+00    3.56       1.0  T
   4    -21.1516126 -0.287120E-03  0.132E-01    3.36       1.0  T
   5    -21.1516201 -0.745007E-05  0.747E-02    3.37       1.0  T
   6    -21.1516218 -0.176815E-05  0.101E-02    3.38       2.7  T
   7    -21.1516219 -0.107941E-06  0.497E-03    3.38       5.6  T
   8    -21.1516219 -0.215049E-07  0.124E-03    3.38      22.3  T
   9    -21.1516220 -0.142287E-08  0.371E-04    3.38      74.7  T
  10    -21.1516220 -0.689653E-10  0.119E-04    3.38     232.3  T

   *** convergence criteria satisfied after 10 iterations ***

         #    Occupation            Energy/Eh            Energy/eV
      -------------------------------------------------------------
         1        2.0000           -0.7841231             -21.3371
       ...           ...                  ...                  ...
        12        2.0000           -0.4875710             -13.2675
        13        2.0000           -0.4835443             -13.1579
        14        2.0000           -0.4824675             -13.1286
        15        2.0000           -0.4620535             -12.5731
        16        2.0000           -0.4539760             -12.3533
        17        2.0000           -0.4443171             -12.0905
        18        2.0000           -0.4397905             -11.9673 (HOMO)
        19                         -0.3156566              -8.5895 (LUMO)
        20                         -0.0116254              -0.3163
        21                          0.0838246               2.2810
        22                          0.1229774               3.3464
        23                          0.1273792               3.4662
       ...                                ...                  ...
        31                          0.4264016              11.6030
      -------------------------------------------------------------
                  HL-Gap            0.1241339 Eh            3.3779 eV
             Fermi-level           -0.3777236 Eh          -10.2784 eV

 SCC (total)                   0 d,  0 h,  0 min,  0.012 sec
 SCC setup                      ...        0 min,  0.001 sec (  8.847%)
 Dispersion                     ...        0 min,  0.000 sec (  0.584%)
 classical contributions        ...        0 min,  0.000 sec (  0.180%)
 integral evaluation            ...        0 min,  0.001 sec ( 10.901%)
 iterations                     ...        0 min,  0.007 sec ( 56.117%)
 molecular gradient             ...        0 min,  0.003 sec ( 21.956%)
 printout                       ...        0 min,  0.000 sec (  1.280%)

         :::::::::::::::::::::::::::::::::::::::::::::::::::::
         ::                     SUMMARY                     ::
         :::::::::::::::::::::::::::::::::::::::::::::::::::::
         :: total energy             -20.960104682854 Eh    ::
         :: total w/o Gsasa/hb       -20.964089051799 Eh    ::
         :: gradient norm              0.000089846917 Eh/a0 ::
         :: HOMO-LUMO gap              3.377855643118 eV    ::
         ::.................................................::
         :: SCC energy               -21.151616810655 Eh    ::
         :: -> isotropic ES            0.064083450649 Eh    ::
         :: -> anisotropic ES          0.007416687739 Eh    ::
         :: -> anisotropic XC          0.003163447075 Eh    ::
         :: -> dispersion             -0.006438808482 Eh    ::
         :: -> Gsolv                  -0.008832504147 Eh    ::
         ::    -> Gelec               -0.012816873091 Eh    ::
         ::    -> Gsasa                0.003888948510 Eh    ::
         ::    -> Ghb                 -0.002799128726 Eh    ::
         ::    -> Gshift               0.002894549160 Eh    ::
         :: repulsion energy           0.191512127801 Eh    ::
         :: add. restraining           0.000000000000 Eh    ::
         :: total charge               0.000000000000 e     ::
         :::::::::::::::::::::::::::::::::::::::::::::::::::::

           -------------------------------------------------
          |                Property Printout                |
           -------------------------------------------------

    * Orbital Energies and Occupations

         #    Occupation            Energy/Eh            Energy/eV
      -------------------------------------------------------------
         1        2.0000           -0.7841231             -21.3371
       ...           ...                  ...                  ...
         6        2.0000           -0.6262217             -17.0404
         7        2.0000           -0.6015428             -16.3688
         8        2.0000           -0.5839822             -15.8910
         9        2.0000           -0.5700804             -15.5127
        10        2.0000           -0.5315505             -14.4642
        11        2.0000           -0.5034794             -13.7004
        12        2.0000           -0.4875710             -13.2675
        13        2.0000           -0.4835443             -13.1579
        14        2.0000           -0.4824675             -13.1286
        15        2.0000           -0.4620535             -12.5731
        16        2.0000           -0.4539760             -12.3533
        17        2.0000           -0.4443171             -12.0905
        18        2.0000           -0.4397905             -11.9673 (HOMO)
        19                         -0.3156566              -8.5895 (LUMO)
        20                         -0.0116254              -0.3163
        21                          0.0838246               2.2810
        22                          0.1229774               3.3464
        23                          0.1273792               3.4662
        24                          0.1456071               3.9622
        25                          0.1715052               4.6669
        26                          0.2046580               5.5690
        27                          0.2067856               5.6269
        28                          0.2489174               6.7734
        29                          0.2553411               6.9482
       ...                                ...                  ...
        31                          0.4264016              11.6030
      -------------------------------------------------------------
                  HL-Gap            0.1241339 Eh            3.3779 eV
             Fermi-level           -0.3777236 Eh          -10.2784 eV

     #   Z          covCN         q      C6AA      α(0)
     1   6 C        3.753    -0.126    22.970     6.834
     2   6 C        3.802    -0.054    21.536     6.607
     3   6 C        3.741    -0.077    22.057     6.701
     4   7 N        2.757     0.591    13.052     5.366
     5   8 O        0.929    -0.433    22.314     6.335
     6   8 O        0.928    -0.433    22.315     6.335
     7   1 H        0.925     0.058     2.228     2.334
     8   1 H        0.925     0.062     2.180     2.309
     9   1 H        0.925     0.058     2.227     2.334
    10   1 H        0.924     0.060     2.205     2.322
    11   1 H        0.924     0.060     2.199     2.319
    12   1 H        0.924     0.118     1.633     1.998
    13   1 H        0.924     0.118     1.629     1.996

 Mol. C6AA /au·bohr⁶  :       1374.804808
 Mol. C8AA /au·bohr⁸  :      28811.046789
 Mol. α(0) /au        :         53.790027


Wiberg/Mayer (AO) data.
largest (>0.10) Wiberg bond orders for each atom

 ---------------------------------------------------------------------------
     #   Z sym  total        # sym  WBO       # sym  WBO       # sym  WBO
 ---------------------------------------------------------------------------
     1   6 C    3.990 --     2 C    1.014     7 H    0.986     9 H    0.986
                             8 H    0.981
     2   6 C    3.983 --     1 C    1.014    10 H    0.976    11 H    0.976
                             3 C    0.959
     3   6 C    3.939 --     2 C    0.959    12 H    0.958    13 H    0.957
                             4 N    0.942
     4   7 N    3.905 --     6 O    1.465     5 O    1.465     3 C    0.942
     5   8 O    1.910 --     4 N    1.465     6 O    0.347
     6   8 O    1.910 --     4 N    1.465     5 O    0.347
     7   1 H    0.997 --     1 C    0.986
     8   1 H    0.996 --     1 C    0.981
     9   1 H    0.997 --     1 C    0.986
    10   1 H    0.996 --     2 C    0.976
    11   1 H    0.996 --     2 C    0.976
    12   1 H    0.986 --     3 C    0.958
    13   1 H    0.986 --     3 C    0.957
 ---------------------------------------------------------------------------

Topologies differ in total number of bonds
Writing topology from bond orders to xtbtopo.mol

molecular dipole:
                 x           y           z       tot (Debye)
 q only:       -2.046      -0.041      -0.640
   full:       -1.994      -0.048      -0.658       5.339
molecular quadrupole (traceless):
                xx          xy          yy          xz          yz          zz
 q only:       -2.046      -0.274      -1.714      -1.130       1.540       3.760
  q+dip:       -3.705      -0.313      -1.489      -1.734       1.874       5.194
   full:       -3.341      -0.440      -2.025      -2.015       2.090       5.366


           -------------------------------------------------
          | TOTAL ENERGY              -20.960104682854 Eh   |
          | GRADIENT NORM               0.000089846917 Eh/α |
          | HOMO-LUMO GAP               3.377855643118 eV   |
           -------------------------------------------------

------------------------------------------------------------------------
 * finished run on 2025/04/11 at 12:27:11.102     
------------------------------------------------------------------------
 total:
 * wall-time:     0 d,  0 h,  0 min,  0.047 sec
 *  cpu-time:     0 d,  0 h,  0 min,  0.020 sec
 * ratio c/w:     0.425 speedup
 SCF:
 * wall-time:     0 d,  0 h,  0 min,  0.012 sec
 *  cpu-time:     0 d,  0 h,  0 min,  0.010 sec
 * ratio c/w:     0.855 speedup

