20
 energy: -27.122075384926 gnorm: 0.034036076416 xtb: 6.7.1 (edcfbbe)
C           -3.54743733346676       -0.83124138063807        0.05133461922200
C           -2.18180456780659       -0.34947007720239        0.52766808597614
C           -1.23496080894353       -0.09484004615319       -0.64997118231180
C            0.10264688325413        0.41519107124984       -0.19618364105986
O            0.25577764635435        1.31569439788902        0.61403847168179
O            1.12511649910795       -0.22523983363367       -0.79545994926687
C            2.47949104980817        0.18811253309167       -0.42243841411963
C            2.91407147579718       -0.48373080154581        0.85993019784094
H           -3.45988454938354       -1.75949129291569       -0.52360271909507
H           -4.21252037603992       -1.02203734063809        0.89927175269698
H           -4.02453470774587       -0.08238273118657       -0.59048526141903
H           -1.73120622019563       -1.09620466074956        1.19256088339050
H           -2.29062971719534        0.57234983554124        1.10857073448079
H           -1.66088365830472        0.67848126392142       -1.30347436920357
H           -1.10453933537754       -0.99857399664465       -1.25053393183348
H            3.09203834578565       -0.13120773092058       -1.26761660889799
H            2.50787328843498        1.27794805579947       -0.34841378119999
H            2.28810334894389       -0.17904429889631        1.70273365275842
H            2.87337766059282       -1.57230211114826        0.76093958853948
H            3.94769789276279       -0.19748977068815        1.07875011251917
20
 energy: -27.123207679286 gnorm: 0.013763529721 xtb: 6.7.1 (edcfbbe)
C           -3.54187869254839       -0.82878946609786        0.04829888450486
C           -2.17808534477069       -0.35006835299448        0.52435785093815
C           -1.23231884554277       -0.09664271314459       -0.65305971030665
C            0.10215083898851        0.41578900652458       -0.18886693668650
O            0.25448168319273        1.31173740573487        0.61545767581693
O            1.11810189992254       -0.21623600044349       -0.78372040947869
C            2.46732973178035        0.18235655602451       -0.42382106009203
C            2.91667080213502       -0.48497114189971        0.85953426221306
H           -3.44915786075960       -1.75326828464705       -0.52026183263165
H           -4.19649392443893       -1.01467229896840        0.89786651462805
H           -4.01230081072378       -0.08060413189380       -0.58843580178573
H           -1.73392358476972       -1.09913336522134        1.18540946070486
H           -2.28382968657783        0.57286139934672        1.09939136072779
H           -1.66295656017985        0.67327523181837       -1.30183425708696
H           -1.08681447686495       -1.00216953544564       -1.24357578230596
H            3.07298689874627       -0.13573843219633       -1.27381601219660
H            2.48705375803657        1.27143322846662       -0.33316550970688
H            2.28749391661855       -0.17427937081620        1.69204860082471
H            2.86473976982907       -1.56774045113689        0.76102957996811
H            3.94454330430936       -0.19861819847822        1.07478136265008
20
 energy: -27.123447269801 gnorm: 0.004134595982 xtb: 6.7.1 (edcfbbe)
C           -3.53900537353220       -0.82684014069471        0.04684621772705
C           -2.17318562332527       -0.35206649555002        0.52266997823985
C           -1.22902135068904       -0.09921128169537       -0.65611215839009
C            0.10241096130260        0.42206017915705       -0.18639397099525
O            0.25209340706390        1.31489233832046        0.61957426614243
O            1.11310712923726       -0.21086525820481       -0.77221150210191
C            2.45637326176410        0.18105314438795       -0.42525402658745
C            2.91487948518381       -0.48797873757858        0.85905863257361
H           -3.44418186605430       -1.74920432760366       -0.51918212221743
H           -4.18886829494761       -1.00951452391775        0.89738266242960
H           -4.00426478463671       -0.07805218193421       -0.58786338093142
H           -1.73213700795514       -1.10263656601334        1.18119017526187
H           -2.27377388290936        0.57209383706451        1.09435786689140
H           -1.66506981742840        0.66432462211547       -1.30460437259264
H           -1.06948057159787       -1.00669277242462       -1.23770293757041
H            3.05720244927383       -0.13590060532927       -1.27793910082366
H            2.47800316551948        1.26998282880038       -0.32296804042734
H            2.28690900443489       -0.17059307949115        1.68798426936079
H            2.85534270965293       -1.56821680995359        0.76210681482460
H            3.94045981602559       -0.20211308492305        1.06667896988532
20
 energy: -27.123474959161 gnorm: 0.001566190056 xtb: 6.7.1 (edcfbbe)
C           -3.53932550655303       -0.82580737856378        0.04678362200424
C           -2.17202604722361       -0.35316437733610        0.52249175147758
C           -1.22826960937473       -0.10095889905955       -0.65686602808817
C            0.10174101316667        0.42383990460624       -0.18474855903421
O            0.24839663574904        1.32122439191059        0.61809320843377
O            1.11208508774131       -0.20941828321392       -0.76829482689951
C            2.45357131437604        0.18224029496949       -0.42531287539389
C            2.91478563172289       -0.48930198458683        0.85859273840242
H           -3.44540896996122       -1.74821585209242       -0.51976653074514
H           -4.18929952511726       -1.00769774904251        0.89763097065950
H           -4.00295502431566       -0.07562200331243       -0.58783506512433
H           -1.73163968055134       -1.10499730650118        1.18001669032779
H           -2.27004181169406        0.57099048616475        1.09470996108683
H           -1.66609573463909        0.65821380023072       -1.30878928914012
H           -1.06285524275313       -1.00984863854541       -1.23423893175825
H            3.05423888284878       -0.13273817540767       -1.27860116968482
H            2.47893364111644        1.27098705541232       -0.31922390664945
H            2.28890771671224       -0.16994704235928        1.68866826349295
H            2.85144596797133       -1.56939956234874        0.76124323251804
H            3.94160407716087       -0.20585759639261        1.06306498481370
20
 energy: -27.123490647297 gnorm: 0.002528783963 xtb: 6.7.1 (edcfbbe)
C           -3.54071909486416       -0.82364546120236        0.04763073100799
C           -2.17054255345512       -0.35640707863023        0.52258169713907
C           -1.22724541562012       -0.10513879320550       -0.65740199689247
C            0.10006096545728        0.43152059007263       -0.18824042568237
O            0.24035035005040        1.33520622668929        0.61053641875875
O            1.11201806013737       -0.20530402671004       -0.76407220687665
C            2.45128193240789        0.18560740083451       -0.42336249452739
C            2.91546921708585       -0.49205316177924        0.85828638387903
H           -3.45062434984544       -1.74616074308000       -0.52075934096101
H           -4.19191271351594       -1.00435055315716        0.89855648179733
H           -4.00199237626100       -0.07055994085865       -0.58654264084894
H           -1.73142216798531       -1.11098059670665        1.17832088919537
H           -2.26435408769053        0.56725595193872        1.09679507454482
H           -1.66993916436661        0.64517654021157       -1.31622873642239
H           -1.05289780036363       -1.01672030362540       -1.22781237797987
H            3.05292757125109       -0.12498378594370       -1.27763035891501
H            2.48195377028005        1.27394572330067       -0.31196733607892
H            2.29500430084972       -0.17042718170595        1.69219837003913
H            2.84476440232391       -1.57197983068809        0.75873315193060
H            3.94561197050677       -0.21547989122272        1.05799695759188
20
 energy: -27.123497896823 gnorm: 0.001789480988 xtb: 6.7.1 (edcfbbe)
C           -3.54109941719380       -0.82256333457228        0.04778920037446
C           -2.17052041875939       -0.35717750249910        0.52259743963826
C           -1.22715563140134       -0.10695431425271       -0.65742691449537
C            0.09945679577710        0.43149805833742       -0.18860713847040
O            0.23849387447828        1.33848459465624        0.60625220781803
O            1.11264147817896       -0.20497080214263       -0.76341195235485
C            2.45189777605059        0.18719321522392       -0.42208475102865
C            2.91609140215042       -0.49248459040052        0.85809459222645
H           -3.45269582891277       -1.74499637149538       -0.52100673893206
H           -4.19230760852961       -1.00291818178244        0.89876817586429
H           -4.00203620221733       -0.06882461774242       -0.58584260470603
H           -1.73228554606708       -1.11261857210153        1.17800433917737
H           -2.26332952198717        0.56627872530786        1.09737071681725
H           -1.67035624871402        0.64177321589945       -1.31789166879657
H           -1.05223196822366       -1.01937169244658       -1.22636477933606
H            3.05390587370355       -0.12169125039748       -1.27693011526168
H            2.48107872362920        1.27540435280318       -0.30957838969407
H            2.29734530723736       -0.17142401453859        1.69341541460188
H            2.84398370623664       -1.57218837901839        0.75727343775188
H            3.94691627094654       -0.21792745430632        1.05719776950481
20
 energy: -27.123510593722 gnorm: 0.001500235751 xtb: 6.7.1 (edcfbbe)
C           -3.54282569199800       -0.81773917427028        0.04890610830650
C           -2.16974643257084       -0.36123680955852        0.52238624626695
C           -1.22647662492086       -0.11541886830131       -0.65831424087666
C            0.09685201092180        0.43398094337154       -0.19409456106735
O            0.23112130042239        1.35138038866078        0.58788516506423
O            1.11491006932896       -0.20394174917547       -0.76075751474325
C            2.45369325456783        0.19359006546233       -0.41565286616190
C            2.91920741604174       -0.49448939955085        0.85778079265277
H           -3.46149838356106       -1.73945573736760       -0.52163295725230
H           -4.19352204679573       -0.99606857975840        0.90043532591614
H           -4.00127578823118       -0.06064475043607       -0.58206030294318
H           -1.73563656944189       -1.12019672057529        1.17642415034670
H           -2.25728729607440        0.56190077732019        1.09855077504540
H           -1.67302077677787        0.62671788145006       -1.32426265347968
H           -1.04875685158670       -1.03128739802562       -1.22091670978552
H            3.05698112615815       -0.10675743066414       -1.27324560887364
H            2.47453616572183        1.28117263264794       -0.29703565313179
H            2.30744915590828       -0.17566211184605        1.69868148554905
H            2.84032097438825       -1.57294874123659        0.75071683339551
H            3.95276780488179       -0.22837413361498        1.05382442647097
20
 energy: -27.123514529618 gnorm: 0.000646082252 xtb: 6.7.1 (edcfbbe)
C           -3.54361083739668       -0.81631413834008        0.04936549695519
C           -2.16898915131739       -0.36236457983742        0.52197537889763
C           -1.22605747180137       -0.11780847082595       -0.65947700249691
C            0.09624986744167        0.43436438075000       -0.19551393969817
O            0.22903188128164        1.35414144282617        0.58438230810953
O            1.11485460955048       -0.20488675557156       -0.75868045119599
C            2.45265378385292        0.19489722764443       -0.41423184495829
C            2.92021343295677       -0.49521510733224        0.85780333058858
H           -3.46382279235234       -1.73772397847454       -0.52185194935388
H           -4.19380834705599       -0.99393439315033        0.90144064238289
H           -4.00073072974366       -0.05773302288614       -0.58079703017062
H           -1.73570657906911       -1.12202432002682        1.17561241016674
H           -2.25409050275942        0.56115738448966        1.09785783487749
H           -1.67368385726762        0.62242601081375       -1.32660367496246
H           -1.04609836833171       -1.03450506750710       -1.21989574344281
H            3.05610185665416       -0.10195981133934       -1.27263116036213
H            2.47148887619528        1.28220474253921       -0.29245985055865
H            2.30970763577676       -0.17675789432813        1.69983599941161
H            2.83985904408484       -1.57341222969158        0.74930461805992
H            3.95423046568324       -0.23003033522032        1.05218286844927
20
 energy: -27.123516731592 gnorm: 0.000206776506 xtb: 6.7.1 (edcfbbe)
C           -3.54472756828537       -0.81462747384353        0.05004312322029
C           -2.16849572147843       -0.36324236552178        0.52127967114373
C           -1.22601033640198       -0.12026323609270       -0.66112294499265
C            0.09555105709344        0.43396202806648       -0.19782460621465
O            0.22692474919322        1.35564463358182        0.58044682583706
O            1.11503942622225       -0.20715880934738       -0.75659247414134
C            2.45187844004769        0.19598722927991       -0.41233585138928
C            2.92218450114228       -0.49582814502645        0.85803905886012
H           -3.46695071288696       -1.73566446302980       -0.52209012818374
H           -4.19407640062872       -0.99176914416625        0.90289094313296
H           -4.00106369081719       -0.05454101688924       -0.57892023671760
H           -1.73593857877546       -1.12342554494763        1.17471292905706
H           -2.25116604626635        0.56078299945571        1.09666785209457
H           -1.67440784231261        0.61859236856755       -1.32904888080024
H           -1.04493152722529       -1.03755247790525       -1.21992508488467
H            3.05583970864918       -0.09633342815347       -1.27163809194599
H            2.46718186003433        1.28291074466622       -0.28732518591016
H            2.31245663959747       -0.17899015931602        1.70133175832705
H            2.84224332366965       -1.57388576286979        0.74792972024537
H            3.95626153581134       -0.23007689197669        1.05109984396105
20
 energy: -27.123517502766 gnorm: 0.000293061354 xtb: 6.7.1 (edcfbbe)
C           -3.54547560559789       -0.81355681832632        0.05036228534211
C           -2.16851357374495       -0.36350300704935        0.52070160719356
C           -1.22612428520012       -0.12166376703144       -0.66205137698815
C            0.09511898853483        0.43319560430217       -0.19856051034045
O            0.22555510168204        1.35660998597640        0.57799129345100
O            1.11524680027412       -0.20857398462922       -0.75516859912778
C            2.45151939647623        0.19650985860510       -0.41112443546854
C            2.92373697950885       -0.49617570870316        0.85812757929986
H           -3.46893629120042       -1.73440179197128       -0.52222914968669
H           -4.19420564446163       -0.99052748603104        0.90371572990318
H           -4.00171245920265       -0.05279347010935       -0.57784813956832
H           -1.73637345959036       -1.12392615627336        1.17412012085551
H           -2.24994600867929        0.56079903646409        1.09581444699461
H           -1.67465525570292        0.61655640284584       -1.33061427225607
H           -1.04485365583210       -1.03951685752840       -1.21993480153572
H            3.05573075270186       -0.09330248108109       -1.27108697555074
H            2.46468114585438        1.28325498581392       -0.28435489936057
H            2.31414331079813       -0.18113250944345        1.70220028702421
H            2.84528309337430       -1.57423469147922        0.74686187063988
H            3.95757348639008       -0.22909605981914        1.05069617987807
20
 energy: -27.123518155997 gnorm: 0.000157555856 xtb: 6.7.1 (edcfbbe)
C           -3.54623296111085       -0.81263450908148        0.05059379834634
C           -2.16880101948950       -0.36353026965805        0.52020189538159
C           -1.22638116230828       -0.12278661019477       -0.66276081975038
C            0.09469465455734        0.43256448818485       -0.19934627885851
O            0.22429905599712        1.35721250987417        0.57578931437250
O            1.11544752390112       -0.20997082029273       -0.75384155343540
C            2.45129807894471        0.19673638483561       -0.40997784165790
C            2.92545568439897       -0.49646747529092        0.85820470615895
H           -3.47076991232034       -1.73334226684057       -0.52235053596818
H           -4.19442126479312       -0.98950930811978        0.90438101090800
H           -4.00259777906510       -0.05142408277211       -0.57698120956996
H           -1.73705465549565       -1.12400837831987        1.17383710369352
H           -2.24939539183505        0.56106738709785        1.09496969815608
H           -1.67473006277680        0.61506085754259       -1.33188696575151
H           -1.04530531207712       -1.04107817331301       -1.22003214405740
H            3.05565021405199       -0.09107672696573       -1.27053836253804
H            2.46268187218643        1.28334103975839       -0.28200703655020
H            2.31532430404896       -0.18420927978313        1.70290002507617
H            2.85000287361879       -1.57460212043820        0.74560151546778
H            3.95862807594886       -0.22682156169142        1.05086192127548
20
 energy: -27.123518599860 gnorm: 0.000118886885 xtb: 6.7.1 (edcfbbe)
C           -3.54702782365417       -0.81172476261185        0.05069426709913
C           -2.16922588359660       -0.36353371457076        0.51989105137650
C           -1.22655493569933       -0.12397569000058       -0.66307115672436
C            0.09425571727119        0.43223059947120       -0.19977427411648
O            0.22300813742413        1.35861965363580        0.57343539714715
O            1.11558733118797       -0.21105001625600       -0.75242137587926
C            2.45116200947751        0.19697439673734       -0.40895861832566
C            2.92717723092098       -0.49684324035955        0.85812526945442
H           -3.47243516434894       -1.73236359997985       -0.52248125138552
H           -4.19500022300195       -0.98842208841519        0.90469289999990
H           -4.00330238695812       -0.05014218992300       -0.57651078044306
H           -1.73800162675088       -1.12407467850897        1.17382782930401
H           -2.24915189293694        0.56135746669504        1.09431290310305
H           -1.67476845682221        0.61320756342290       -1.33308936277597
H           -1.04539456168412       -1.04283560458821       -1.21942548695727
H            3.05547446340544       -0.08917748081935       -1.27017852121250
H            2.46119273963870        1.28348675834093       -0.27997402955409
H            2.31599648707726       -0.18799710482099        1.70331548416354
H            2.85532765852486       -1.57506044649476        0.74378590608350
H            3.95947399690771       -0.22415473642245        1.05142209034189
20
 energy: -27.123518821917 gnorm: 0.000081702132 xtb: 6.7.1 (edcfbbe)
C           -3.54746240525469       -0.81111327879746        0.05062876850895
C           -2.16951055222298       -0.36351061673255        0.51993761845643
C           -1.22657143931630       -0.12481507627564       -0.66298214913807
C            0.09399907099181        0.43223967494135       -0.19999709708457
O            0.22231197889579        1.35965770034378        0.57195363882598
O            1.11560716186630       -0.21158141331554       -0.75148724854226
C            2.45107271691486        0.19716484436133       -0.40844778653734
C            2.92814556855594       -0.49715686389470        0.85792685656869
H           -3.47327287667570       -1.73179158842420       -0.52252475297307
H           -4.19555502786498       -0.98749539821706        0.90459394891667
H           -4.00337386105379       -0.04933638461358       -0.57659565587740
H           -1.73882705949841       -1.12407875474393        1.17419502501320
H           -2.24908942635203        0.56161214782376        1.09404337694418
H           -1.67479283401261        0.61168213997102       -1.33375982375107
H           -1.04502781880801       -1.04412456023963       -1.21845848376559
H            3.05521737273703       -0.08802559081059       -1.27012558660630
H            2.46037477811844        1.28361738071545       -0.27881819794494
H            2.31576612734750       -0.19098890519643        1.70321870052076
H            2.85916257401604       -1.57540071842944        0.74217401322571
H            3.95961876799826       -0.22203365393422        1.05214307593898
20
 energy: -27.123518934128 gnorm: 0.000045578612 xtb: 6.7.1 (edcfbbe)
C           -3.54768664162881       -0.81076078789924        0.05052930647574
C           -2.16970953029178       -0.36347078412644        0.52013473390212
C           -1.22646274208199       -0.12538625913719       -0.66265412082952
C            0.09389958005610        0.43241328631542       -0.19998525298562
O            0.22204026022896        1.36047574411783        0.57123701459367
O            1.11560102479185       -0.21163637253362       -0.75107654022318
C            2.45106889145876        0.19735732529975       -0.40830063999678
C            2.92856569878081       -0.49738510048503        0.85767132676526
H           -3.47353393322509       -1.73157762696082       -0.52240636149759
H           -4.19616326534063       -0.98675974895081        0.90428605233213
H           -4.00310468500610       -0.04897788245656       -0.57704628881137
H           -1.73943709824370       -1.12401676237091        1.17467487481867
H           -2.24916244111790        0.56181906704005        1.09398831776000
H           -1.67477163237017        0.61043467459799       -1.33409264718726
H           -1.04450390712825       -1.04504607934551       -1.21736254475357
H            3.05505029744348       -0.08733714017326       -1.27025439291431
H            2.46014664798961        1.28376010317570       -0.27825695541651
H            2.31510836568318       -0.19302321638846        1.70284220261833
H            2.86139330385334       -1.57561851247441        0.74082883039506
H            3.95945462253079       -0.22074284271280        1.05286132565366
20
 energy: -27.123518974275 gnorm: 0.000038115908 xtb: 6.7.1 (edcfbbe)
C           -3.54767619577705       -0.81064343466596        0.05043013597509
C           -2.16975720715548       -0.36339703707590        0.52033269038808
C           -1.22636097157392       -0.12564721082752       -0.66242181695796
C            0.09390788328953        0.43247521922878       -0.19993009456492
O            0.22204335340241        1.36050866175154        0.57131920205040
O            1.11560398105321       -0.21150719659284       -0.75108729615860
C            2.45106273131388        0.19752332616001       -0.40837169555363
C            2.92853412470561       -0.49749429619965        0.85748181001344
H           -3.47345023275940       -1.73162680451584       -0.52223408775873
H           -4.19643209230681       -0.98630865798431        0.90403681237593
H           -4.00277084564019       -0.04895221796316       -0.57749435356672
H           -1.73970260907259       -1.12386088224962        1.17510613685161
H           -2.24921814710213        0.56202652270410        1.09396919122755
H           -1.67469201902815        0.60983832247802       -1.33420308522644
H           -1.04413842439270       -1.04550451464198       -1.21671598022121
H            3.05499719578114       -0.08699166473327       -1.27039711489397
H            2.46010172860698        1.28390331683526       -0.27810190447391
H            2.31457065686644       -0.19377551456179        1.70252772166426
H            2.86199155695553       -1.57571862622015        0.74020525540809
H            3.95917834921620       -0.22032622639402        1.05316671412059
