
                                 *****************
                                 * O   R   C   A *
                                 *****************

                                            #,                                       
                                            ###                                      
                                            ####                                     
                                            #####                                    
                                            ######                                   
                                           ########,                                 
                                     ,,################,,,,,                         
                               ,,#################################,,                 
                          ,,##########################################,,             
                       ,#########################################, ''#####,          
                    ,#############################################,,   '####,        
                  ,##################################################,,,,####,       
                ,###########''''           ''''###############################       
              ,#####''   ,,,,##########,,,,          '''####'''          '####       
            ,##' ,,,,###########################,,,                        '##       
           ' ,,###''''                  '''############,,,                           
         ,,##''                                '''############,,,,        ,,,,,,###''
      ,#''                                            '''#######################'''  
     '                                                          ''''####''''         
             ,#######,   #######,   ,#######,      ##                                
            ,#'     '#,  ##    ##  ,#'     '#,    #''#        ,####,   ,####,        
            ##       ##  ##   ,#'  ##            #'  '#       #'       #'  '#        
            ##       ##  #######   ##           ,######,      #####,   #    #        
            '#,     ,#'  ##    ##  '#,     ,#' ,#      #,     #,   #   #,  ,#        
             '#######'   ##     ##  '#######'  #'      '#     '####' # '####'        



                #########################################################
                #                        -***-                          #
                #          Department of theory and spectroscopy        #
                #                                                       #
                #                      Frank Neese                      #
                #                                                       #
                #     Directorship, Architecture, Infrastructure        #
                #                    SHARK, DRIVERS                     #
                #        Core code/Algorithms in most modules           #
                #                                                       #
                #        Max Planck Institute fuer Kohlenforschung      #
                #                Kaiser Wilhelm Platz 1                 #
                #                 D-45470 Muelheim/Ruhr                 #
                #                      Germany                          #
                #                                                       #
                #                  All rights reserved                  #
                #                        -***-                          #
                #########################################################


                         Program Version 6.0.0  -   RELEASE  -


 With contributions from (in alphabetic order):
   Daniel Aravena         : Magnetic Suceptibility
   Michael Atanasov       : Ab Initio Ligand Field Theory (pilot matlab implementation)
   Alexander A. Auer      : GIAO ZORA, VPT2 properties, NMR spectrum
   Ute Becker             : All parallelization in ORCA, NUMFREQ, NUMCALC
   Giovanni Bistoni       : ED, misc. LED, open-shell LED, HFLD
   Martin Brehm           : Molecular dynamics
   Dmytro Bykov           : pre 5.0 version of the SCF Hessian
   Marcos Casanova-Páez   : Triplet and SCS-CIS(D). UHF-(DLPNO)-IP/EA/STEOM-CCSD. UHF-CVS-IP/STEOM-CCSD
   Vijay G. Chilkuri      : MRCI spin determinant printing, contributions to CSF-ICE
   Pauline Colinet        : FMM embedding
   Dipayan Datta          : RHF DLPNO-CCSD density
   Achintya Kumar Dutta   : EOM-CC, STEOM-CC
   Nicolas Foglia         : Exact transition moments, OPA infrastructure, MCD improvements
   Dmitry Ganyushin       : Spin-Orbit,Spin-Spin,Magnetic field MRCI
   Miquel Garcia          : C-PCM and meta-GGA Hessian, CCSD/C-PCM, Gaussian charge scheme
   Tiago L. C. Gouveia    : GS-ROHF, GS-ROCIS
   Yang Guo               : DLPNO-NEVPT2, F12-NEVPT2, CIM, IAO-localization
   Andreas Hansen         : Spin unrestricted coupled pair/coupled cluster methods
   Ingolf Harden          : AUTO-CI MPn and infrastructure 
   Benjamin Helmich-Paris : MC-RPA, TRAH-(SCF,CASSCF), AVAS, COSX integrals, SCF dyn. polar.
   Lee Huntington         : MR-EOM, pCC
   Robert Izsak           : Overlap fitted RIJCOSX, COSX-SCS-MP3, EOM
   Riya Kayal             : Wick's Theorem for AUTO-CI, AUTO-CI UHF-CCSDT
   Emily Kempfer          : AUTO-CI, RHF CISDT and CCSDT
   Christian Kollmar      : KDIIS, OOCD, Brueckner-CCSD(T), CCSD density, CASPT2, CASPT2-K, improved NEVPT2
   Axel Koslowski         : Symmetry handling
   Simone Kossmann        : Meta GGA functionals, TD-DFT gradient, OOMP2, (MP2 Hessian; deprecated post 5.0)
   Lucas Lang             : DCDCAS
   Marvin Lechner         : AUTO-CI (C++ implementation), FIC-MRCC
   Spencer Leger          : CASSCF response
   Dagmar Lenk            : GEPOL surface, SMD, ORCA-2-JSON
   Dimitrios Liakos       : Extrapolation schemes; Compound Job, initial MDCI parallelization
   Dimitrios Manganas     : Further ROCIS development; embedding schemes. LFT, Crystal Embedding
   Dimitrios Pantazis     : SARC Basis sets
   Anastasios Papadopoulos: AUTO-CI, single reference methods and gradients
   Taras Petrenko         : pre 6.0 DFT Hessian and TD-DFT gradient, (ASA, deprecated), ECA, 1-Electron XAS/XES, NRVS
   Peter Pinski           : DLPNO-MP2, DLPNO-MP2 Gradient
   Christoph Reimann      : Effective Core Potentials
   Marius Retegan         : Local ZFS, SOC
   Christoph Riplinger    : Optimizer, TS searches, QM/MM, DLPNO-CCSD(T), (RO)-DLPNO pert. Triples
   Michael Roemelt        : Original ROCIS implementation
   Masaaki Saitow         : Open-shell DLPNO-CCSD energy and density
   Barbara Sandhoefer     : DKH picture change effects
   Kantharuban Sivalingam : CASSCF convergence/infrastructure, NEVPT2 and variants, FIC-MRCI
   Bernardo de Souza      : ESD, SOC TD-DFT
   Georgi Stoychev        : AutoAux, RI-MP2 NMR, DLPNO-MP2 response, X2C
   Van Anh Tran           : RI-MP2 g-tensors
   Willem Van den Heuvel  : Paramagnetic NMR
   Zikuan Wang            : NOTCH, Electric field optimization 
   Frank Wennmohs         : Technical directorship and infrastructure
   Hang Xu                : AUTO-CI-Response properties 


 We gratefully acknowledge several colleagues who have allowed us to
 interface, adapt or use parts of their codes:
   Stefan Grimme, W. Hujo, H. Kruse, P. Pracht,  : VdW corrections, initial TS optimization,
                  C. Bannwarth, S. Ehlert,         DFT functionals, gCP, sTDA/sTD-DF
                  L. Wittmann, M. Mueller
   Ed Valeev, F. Pavosevic, A. Kumar             : LibInt (2-el integral package), F12 methods
   Garnet Chan, S. Sharma, J. Yang, R. Olivares  : DMRG
   Ulf Ekstrom                                   : XCFun DFT Library
   Mihaly Kallay                                 : mrcc  (arbitrary order and MRCC methods)
   Frank Weinhold                                : gennbo (NPA and NBO analysis)
   Simon Mueller                                 : openCOSMO-RS
   Christopher J. Cramer and Donald G. Truhlar   : smd solvation model
   Lars Goerigk                                  : TD-DFT with DH, B97 family of functionals
   V. Asgeirsson, H. Jonsson                     : NEB implementation
   FAccTs GmbH                                   : IRC, NEB, NEB-TS, DLPNO-Multilevel, CI-OPT
                                                   MM, QMMM, 2- and 3-layer-ONIOM, Crystal-QMMM,
                                                   LR-CPCM, SF, NACMEs, symmetry and pop. for TD-DFT,
                                                   nearIR, NL-DFT gradient (VV10), updates on ESD,
                                                   ML-optimized integration grids, MBIS, APM,
                                                   GOAT, DOCKER, SOLVATOR, interface openCOSMO-RS
   S Lehtola, MJT Oliveira, MAL Marques          : LibXC Library
   Liviu Ungur et al                             : ANISO software


 Your calculation uses the libint2 library for the computation of 2-el integrals
 For citations please refer to: http://libint.valeyev.net

 Your ORCA version has been built with support for libXC version: 6.2.2
 For citations please refer to: https://libxc.gitlab.io

 This ORCA versions uses:
   CBLAS   interface :  Fast vector & matrix operations
   LAPACKE interface :  Fast linear algebra routines
   SCALAPACK package :  Parallel linear algebra routines
   Shared memory     :  Shared parallel matrices
   BLAS/LAPACK       :  OpenBLAS 0.3.27  USE64BITINT DYNAMIC_ARCH NO_AFFINITY SkylakeX SINGLE_THREADED
        Core in use  :  SkylakeX
   Copyright (c) 2011-2014, The OpenBLAS Project


Your calculation utilizes the geometrical counterpoise correction gCP
Please cite in your paper:
H.Kruse, S. Grimme J.Chem.Phys., 136, (2012), 154101 
   

Your calculation utilizes the atom-pairwise dispersion correction
based on EEQ partial charges (D4)


================================================================================

----- Orbital basis set information -----
Your calculation utilizes the basis: def2-mTZVPP
   Stefan Grimme, Andreas Hansen, Sebastian Ehlert, and Jan-Michael Mewes 
   J. Chem. Phys. 154, 064103 (2021). DOI: 10.1063/5.0040021

----- AuxJ basis set information -----
Your calculation utilizes the auxiliary basis: def2/J
   F. Weigend, Phys. Chem. Chem. Phys. 8, 1057 (2006).

================================================================================
                                        WARNINGS
                       Please study these warnings very carefully!
================================================================================

Using LibXC functional ID 497 : Re-regularized SCAN exchange by Furness et al
[ 1]  J. W. Furness, A. D. Kaplan, J. Ning, J. P. Perdew, and J. Sun.,  J. Phys. Chem. Lett. 11, 8208-8215 (2020)
[ 2]  J. W. Furness, A. D. Kaplan, J. Ning, J. P. Perdew, and J. Sun.,  J. Phys. Chem. Lett. 11, 9248-9248 (2020)
Using LibXC functional ID 498 : Re-regularized SCAN correlation by Furness et al
[ 1]  J. W. Furness, A. D. Kaplan, J. Ning, J. P. Perdew, and J. Sun.,  J. Phys. Chem. Lett. 11, 8208-8215 (2020)
[ 2]  J. W. Furness, A. D. Kaplan, J. Ning, J. P. Perdew, and J. Sun.,  J. Phys. Chem. Lett. 11, 9248-9248 (2020)
Using LibXC functional ID 497 : Re-regularized SCAN exchange by Furness et al
[ 1]  J. W. Furness, A. D. Kaplan, J. Ning, J. P. Perdew, and J. Sun.,  J. Phys. Chem. Lett. 11, 8208-8215 (2020)
[ 2]  J. W. Furness, A. D. Kaplan, J. Ning, J. P. Perdew, and J. Sun.,  J. Phys. Chem. Lett. 11, 9248-9248 (2020)
Using LibXC functional ID 498 : Re-regularized SCAN correlation by Furness et al
[ 1]  J. W. Furness, A. D. Kaplan, J. Ning, J. P. Perdew, and J. Sun.,  J. Phys. Chem. Lett. 11, 8208-8215 (2020)
[ 2]  J. W. Furness, A. D. Kaplan, J. Ning, J. P. Perdew, and J. Sun.,  J. Phys. Chem. Lett. 11, 9248-9248 (2020)

================================================================================
                                       INPUT FILE
================================================================================
NAME = sp_gas.inp
|  1> ! r2scan-3c def2/J RI DEFGRID2 scfconv6 printgap
|  2> %output
|  3>     printlevel normal
|  4> end
|  5> * xyz 0 1
|  6> C -2.5652247729 -0.5696887222 1.0867236926
|  7> C -2.0893877098 -0.8151674106 -0.3400145217
|  8> C -1.3760530521 0.4127925996 -0.9197983147
|  9> C -0.104780215 0.7092160667 -0.1662526792
| 10> O 0.1118174967 1.7298467108 0.4562641739
| 11> O 0.7652728444 -0.2846275651 -0.2650629734
| 12> C 2.0339269816 -0.1607875724 0.3979722816
| 13> C 3.051475152 -1.002165857 -0.3497272032
| 14> H -3.2703149585 0.257640298 1.116727556
| 15> H -3.054289085 -1.4558636242 1.482240278
| 16> H -1.7267300195 -0.3196536388 1.7344204977
| 17> H -2.9455776739 -1.0497258721 -0.9732127031
| 18> H -1.4043824583 -1.6637569714 -0.36171995
| 19> H -2.0172057078 1.2922857693 -0.8627476124
| 20> H -1.1110992958 0.2199950398 -1.9598292315
| 21> H 2.3131661156 0.8976641889 0.419902842
| 22> H 1.9099178901 -0.5096832594 1.4281032188
| 23> H 2.7262975142 -2.0378249991 -0.3781367583
| 24> H 3.1613231893 -0.6411627302 -1.3683160837
| 25> H 4.0091858604 -0.9402511779 0.1563991911
| 26> *
| 27> 
| 28>                          ****END OF INPUT****
================================================================================

                       ****************************
                       * Single Point Calculation *
                       ****************************

---------------------------------
CARTESIAN COORDINATES (ANGSTROEM)
---------------------------------
  C     -2.565225   -0.569689    1.086724
  C     -2.089388   -0.815167   -0.340015
  C     -1.376053    0.412793   -0.919798
  C     -0.104780    0.709216   -0.166253
  O      0.111817    1.729847    0.456264
  O      0.765273   -0.284628   -0.265063
  C      2.033927   -0.160788    0.397972
  C      3.051475   -1.002166   -0.349727
  H     -3.270315    0.257640    1.116728
  H     -3.054289   -1.455864    1.482240
  H     -1.726730   -0.319654    1.734420
  H     -2.945578   -1.049726   -0.973213
  H     -1.404382   -1.663757   -0.361720
  H     -2.017206    1.292286   -0.862748
  H     -1.111099    0.219995   -1.959829
  H      2.313166    0.897664    0.419903
  H      1.909918   -0.509683    1.428103
  H      2.726298   -2.037825   -0.378137
  H      3.161323   -0.641163   -1.368316
  H      4.009186   -0.940251    0.156399

----------------------------
CARTESIAN COORDINATES (A.U.)
----------------------------
  NO LB      ZA    FRAG     MASS         X           Y           Z
   0 C     6.0000    0    12.011   -4.847572   -1.076556    2.053610
   1 C     6.0000    0    12.011   -3.948371   -1.540443   -0.642534
   2 C     6.0000    0    12.011   -2.600363    0.780065   -1.738167
   3 C     6.0000    0    12.011   -0.198006    1.340224   -0.314172
   4 O     8.0000    0    15.999    0.211304    3.268937    0.862214
   5 O     8.0000    0    15.999    1.446156   -0.537868   -0.500896
   6 C     6.0000    0    12.011    3.843565   -0.303844    0.752059
   7 C     6.0000    0    12.011    5.766452   -1.893819   -0.660889
   8 H     1.0000    0     1.008   -6.180000    0.486870    2.110309
   9 H     1.0000    0     1.008   -5.771770   -2.751184    2.801028
  10 H     1.0000    0     1.008   -3.263047   -0.604058    3.277580
  11 H     1.0000    0     1.008   -5.566335   -1.983694   -1.839105
  12 H     1.0000    0     1.008   -2.653898   -3.144045   -0.683552
  13 H     1.0000    0     1.008   -3.811966    2.442066   -1.630357
  14 H     1.0000    0     1.008   -2.099673    0.415730   -3.703541
  15 H     1.0000    0     1.008    4.371250    1.696339    0.793501
  16 H     1.0000    0     1.008    3.609222   -0.963162    2.698724
  17 H     1.0000    0     1.008    5.151956   -3.850931   -0.714575
  18 H     1.0000    0     1.008    5.974035   -1.211622   -2.585743
  19 H     1.0000    0     1.008    7.576263   -1.776817    0.295552

--------------------------------
INTERNAL COORDINATES (ANGSTROEM)
--------------------------------
 C      0   0   0     0.000000000000     0.00000000     0.00000000
 C      1   0   0     1.523897184597     0.00000000     0.00000000
 C      2   1   0     1.533910482118   111.72378748     0.00000000
 C      3   2   1     1.507259938755   111.14336527    64.72819897
 O      4   3   2     1.214960374985   124.87101364   242.31606692
 O      4   3   2     1.324568218281   111.66387807    62.50683455
 C      6   4   3     1.436814327949   118.74334563   179.97586719
 C      7   6   4     1.517358301935   108.47765666   207.00791026
 H      1   2   3     1.087439979637   110.53921833    60.60710165
 H      1   2   3     1.086702915995   110.48244981   180.81241284
 H      1   2   3     1.088623968938   110.70323949   301.03579032
 H      2   1   3     1.090421415516   109.45964673   239.75695937
 H      2   1   3     1.090783004497   109.87934860   120.93411210
 H      3   2   1     1.089880610935   110.64934005   304.56715719
 H      3   2   1     1.090429135681   109.38788851   183.71920243
 H      7   6   4     1.094886101124   108.52727327   328.93621083
 H      7   6   4     1.094658030144   107.86419111    86.35961278
 H      8   7   6     1.085880959204   109.93349718   301.56551653
 H      8   7   6     1.086238075348   110.21885849    61.52573499
 H      8   7   6     1.084991776687   109.29482990   181.56773547

---------------------------
INTERNAL COORDINATES (A.U.)
---------------------------
 C      0   0   0     0.000000000000     0.00000000     0.00000000
 C      1   0   0     2.879748335142     0.00000000     0.00000000
 C      2   1   0     2.898670725154   111.72378748     0.00000000
 C      3   2   1     2.848308496879   111.14336527    64.72819897
 O      4   3   2     2.295942372288   124.87101364   242.31606692
 O      4   3   2     2.503071178247   111.66387807    62.50683455
 C      6   4   3     2.715185585118   118.74334563   179.97586719
 C      7   6   4     2.867391637689   108.47765666   207.00791026
 H      1   2   3     2.054963748591   110.53921833    60.60710165
 H      1   2   3     2.053570900163   110.48244981   180.81241284
 H      1   2   3     2.057201164116   110.70323949   301.03579032
 H      2   1   3     2.060597845887   109.45964673   239.75695937
 H      2   1   3     2.061281150035   109.87934860   120.93411210
 H      3   2   1     2.059575873339   110.64934005   304.56715719
 H      3   2   1     2.060612434886   109.38788851   183.71920243
 H      7   6   4     2.069034878962   108.52727327   328.93621083
 H      7   6   4     2.068603887270   107.86419111    86.35961278
 H      8   7   6     2.052017626935   109.93349718   301.56551653
 H      8   7   6     2.052692478646   110.21885849    61.52573499
 H      8   7   6     2.050337315496   109.29482990   181.56773547

---------------------
BASIS SET INFORMATION
---------------------
There are 3 groups of distinct atoms

 Group   1 Type C   : 11s6p1d contracted to 5s3p1d pattern {62111/411/1}
 Group   2 Type O   : 11s6p2d contracted to 5s3p2d pattern {62111/411/11}
 Group   3 Type H   : 4s1p contracted to 2s1p pattern {31/1}

Atom   0C    basis set group =>   1
Atom   1C    basis set group =>   1
Atom   2C    basis set group =>   1
Atom   3C    basis set group =>   1
Atom   4O    basis set group =>   2
Atom   5O    basis set group =>   2
Atom   6C    basis set group =>   1
Atom   7C    basis set group =>   1
Atom   8H    basis set group =>   3
Atom   9H    basis set group =>   3
Atom  10H    basis set group =>   3
Atom  11H    basis set group =>   3
Atom  12H    basis set group =>   3
Atom  13H    basis set group =>   3
Atom  14H    basis set group =>   3
Atom  15H    basis set group =>   3
Atom  16H    basis set group =>   3
Atom  17H    basis set group =>   3
Atom  18H    basis set group =>   3
Atom  19H    basis set group =>   3
---------------------------------
AUXILIARY/J BASIS SET INFORMATION
---------------------------------
There are 3 groups of distinct atoms

 Group   1 Type C   : 12s5p4d2f1g contracted to 6s4p3d1f1g pattern {711111/2111/211/2/1}
 Group   2 Type O   : 12s5p4d2f1g contracted to 6s4p3d1f1g pattern {711111/2111/211/2/1}
 Group   3 Type H   : 5s2p1d contracted to 3s1p1d pattern {311/2/1}

Atom   0C    basis set group =>   1
Atom   1C    basis set group =>   1
Atom   2C    basis set group =>   1
Atom   3C    basis set group =>   1
Atom   4O    basis set group =>   2
Atom   5O    basis set group =>   2
Atom   6C    basis set group =>   1
Atom   7C    basis set group =>   1
Atom   8H    basis set group =>   3
Atom   9H    basis set group =>   3
Atom  10H    basis set group =>   3
Atom  11H    basis set group =>   3
Atom  12H    basis set group =>   3
Atom  13H    basis set group =>   3
Atom  14H    basis set group =>   3
Atom  15H    basis set group =>   3
Atom  16H    basis set group =>   3
Atom  17H    basis set group =>   3
Atom  18H    basis set group =>   3
Atom  19H    basis set group =>   3

Checking for AutoStart:
The File: sp_gas.gbw exists
Trying to determine its content:
     ... Fine, the file contains calculation information
     ... Fine, the calculation information was read
     ... Fine, the file contains a basis set
     ... Fine, the basis set was read
     ... Fine, the file contains a geometry
     ... Fine, the geometry was read
     ... Fine, the file contains a set of orbitals
     ... Fine, the orbitals can be read
     => possible old guess file was deleted
     => GBW file was renamed to GES file
     => GES file is set as startup file
     => Guess is set to MORead
     ... now leaving AutoStart

------------------------------------------------------------------------------
                             ORCA STARTUP CALCULATIONS
                           -- RI-GTO INTEGRALS CHOSEN --
------------------------------------------------------------------------------
------------------------------------------------------------------------------
                   ___                                                        
                  /   \      - P O W E R E D   B Y -                         
                 /     \                                                     
                 |  |  |   _    _      __       _____    __    __             
                 |  |  |  | |  | |    /  \     |  _  \  |  |  /  |          
                  \  \/   | |  | |   /    \    | | | |  |  | /  /          
                 / \  \   | |__| |  /  /\  \   | |_| |  |  |/  /          
                |  |  |   |  __  | /  /__\  \  |    /   |      \           
                |  |  |   | |  | | |   __   |  |    \   |  |\   \          
                \     /   | |  | | |  |  |  |  | |\  \  |  | \   \       
                 \___/    |_|  |_| |__|  |__|  |_| \__\ |__|  \__/        
                                                                              
                      - O R C A' S   B I G   F R I E N D -                    
                                      &                                       
                       - I N T E G R A L  F E E D E R -                       
                                                                              
 v1 FN, 2020, v2 2021, v3 2022-2024                                           
------------------------------------------------------------------------------


----------------------
SHARK INTEGRAL PACKAGE
----------------------

Number of atoms                             ...     20
Number of basis functions                   ...    222
Number of shells                            ...    110
Maximum angular momentum                    ...      2
Integral batch strategy                     ... SHARK/LIBINT Hybrid
RI-J (if used) integral strategy            ... SPLIT-RIJ (Revised 2003 algorithm where possible)
Printlevel                                  ...      1
Contraction scheme used                     ... SEGMENTED contraction
Prescreening option                         ... SCHWARTZ
   Thresh                                   ... 1.000e-10
   Tcut                                     ... 1.000e-11
   Tpresel                                  ... 1.000e-11 
Coulomb Range Separation                    ... NOT USED
Exchange Range Separation                   ... NOT USED
Multipole approximations                    ... NOT USED
Finite Nucleus Model                        ... NOT USED
CABS basis                                  ... NOT available
Auxiliary Coulomb fitting basis             ... AVAILABLE
   # of basis functions in Aux-J            ...    524
   # of shells in Aux-J                     ...    180
   Maximum angular momentum in Aux-J        ...      4
Auxiliary J/K fitting basis                 ... NOT available
Auxiliary Correlation fitting basis         ... NOT available
Auxiliary 'external' fitting basis          ... NOT available

Checking pre-screening integrals            ... done (  0.0 sec) Dimension = 110
Check shell pair data                       ... done (  0.0 sec)
Shell pair information
Shell pair cut-off parameter TPreSel        ...   1.0e-11
Total number of shell pairs                 ...      6105
Shell pairs after pre-screening             ...      5317
Total number of primitive shell pairs       ...     21533
Primitive shell pairs kept                  ...     13233
          la=0 lb=0:   1788 shell pairs
          la=1 lb=0:   2003 shell pairs
          la=1 lb=1:    586 shell pairs
          la=2 lb=0:    567 shell pairs
          la=2 lb=1:    320 shell pairs
          la=2 lb=2:     53 shell pairs

Calculating one electron integrals          ... done (  0.0 sec)
Calculating RI/J V-Matrix + Cholesky decomp.... done (  0.1 sec)
Calculating Nuclear repulsion               ... done (  0.0 sec) ENN=    394.711664540765 Eh

Diagonalization of the overlap matrix:
Smallest eigenvalue                        ... 1.689e-04
Time for diagonalization                   ...    0.007 sec
Threshold for overlap eigenvalues          ... 1.000e-07
Number of eigenvalues below threshold      ... 0
Time for construction of square roots      ...    0.016 sec
Total time needed                          ...    0.033 sec

-------------------
DFT GRID GENERATION
-------------------

General Integration Accuracy     IntAcc      ... 4.388
Radial Grid Type                 RadialGrid  ... OptM3 with GC (2021)
Angular Grid (max. ang.)         AngularGrid ... 4 (Lebedev-302)
Angular grid pruning method      GridPruning ... 4 (adaptive)
Weight generation scheme         WeightScheme... mBecke (2022)
Basis function cutoff            BFCut       ... 1.0000e-10
Integration weight cutoff        WCut        ... 1.0000e-14
Partially contracted basis set               ... off
Rotationally invariant grid construction     ... off
Angular grids for H and He will be reduced by one unit
Diffuse basis detected: some atoms will have their outermost
                        angular grid increased by 1.

Total number of grid points                  ...    87402
Total number of batches                      ...     1374
Average number of points per batch           ...       63
Average number of grid points per atom       ...     4370
Initializing property integral containers    ... done (  0.3 sec)

SHARK setup successfully completed in   1.5 seconds

Maximum memory used throughout the entire STARTUP-calculation: 39.4 MB
-------------------------------------------------------------------------------
                                 ORCA GUESS
                   Start orbitals & Density for SCF / CASSCF
-------------------------------------------------------------------------------

------------
SCF SETTINGS
------------
Hamiltonian:
 Density Functional     Method          .... DFT(GTOs)
  Functional kind                       .... Exchange
  Functional name                       .... Re-regularized SCAN exchange by Furness et al
  Functional family                     .... MGGA
  Functional refs                              
    [ 0] J. W. Furness, A. D. Kaplan, J. Ning, J. P. Perdew, and J. Sun.,  J. Phys. Chem. Lett. 11, 8208-8215 (2020), doi: 10.1021/acs.jpclett.0c02405
    [ 1] J. W. Furness, A. D. Kaplan, J. Ning, J. P. Perdew, and J. Sun.,  J. Phys. Chem. Lett. 11, 9248-9248 (2020), doi: 10.1021/acs.jpclett.0c03077
  Functional external parameters        .... 6
    Parameter  0 _c1        =  6.670000e-01 : c1 parameter        
    Parameter  1 _c2        =  8.000000e-01 : c2 parameter        
    Parameter  2 _d         =  1.240000e+00 : d parameter         
    Parameter  3 _k1        =  6.500000e-02 : k1 parameter        
    Parameter  4 _eta       =  1.000000e-03 : eta parameter       
    Parameter  5 _dp2       =  3.610000e-01 : dp2 parameter       
  Functional kind                       .... Correlation
  Functional name                       .... Re-regularized SCAN correlation by Furness et al
  Functional family                     .... MGGA
  Functional refs                              
    [ 0] J. W. Furness, A. D. Kaplan, J. Ning, J. P. Perdew, and J. Sun.,  J. Phys. Chem. Lett. 11, 8208-8215 (2020), doi: 10.1021/acs.jpclett.0c02405
    [ 1] J. W. Furness, A. D. Kaplan, J. Ning, J. P. Perdew, and J. Sun.,  J. Phys. Chem. Lett. 11, 9248-9248 (2020), doi: 10.1021/acs.jpclett.0c03077
  Functional external parameters        .... 1
    Parameter  0 _eta       =  1.000000e-03 : Regularization parameter
 Gradients option       PostSCFGGA      .... off
 RI-approximation to the Coulomb term is turned on
   Number of AuxJ basis functions       .... 524


General Settings:
 Integral files         IntName         .... sp_gas
 Hartree-Fock type      HFTyp           .... RHF
 Total Charge           Charge          ....    0
 Multiplicity           Mult            ....    1
 Number of Electrons    NEL             ....   64
 Basis Dimension        Dim             ....  222
 Nuclear Repulsion      ENuc            ....    394.7116645408 Eh

Convergence Acceleration:
 AO-DIIS                CNVDIIS         .... on
   Start iteration      DIISMaxIt       ....    12
   Startup error        DIISStart       ....  0.200000
   # of expansion vecs  DIISMaxEq       ....     5
   Bias factor          DIISBfac        ....   1.050
   Max. coefficient     DIISMaxC        ....  10.000
 MO-DIIS                CNVKDIIS        .... off
 Trust-Rad. Augm. Hess. CNVTRAH         .... auto
   Auto Start mean grad. ratio tolernc. ....  1.125000
   Auto Start start iteration           ....     1
   Auto Start num. interpolation iter.  ....    10
   Max. Number of Micro iterations      ....    24
   Max. Number of Macro iterations      .... Maxiter - #DIIS iter
   Number of Davidson start vectors     ....     2
   Converg. threshold    (grad. norm)   ....   3.330e-04
   Grad. Scal. Fac. for Micro threshold ....   0.100
   Minimum threshold for Micro iter.    ....   1.000e-02
   NR start threshold (gradient norm)   ....   1.000e-04
   Initial trust radius                 ....   0.400
   Minimum AH scaling param. (alpha)    ....   1.000
   Maximum AH scaling param. (alpha)    .... 1000.000
   Quad. conv. algorithm                .... NR
   White noise on init. David. guess    .... on
   Maximum white noise                  ....   0.010
   Pseudo random numbers                .... off
   Inactive MOs                         .... canonical
   Orbital update algorithm             .... Taylor
   Preconditioner                       .... Diag
   Full preconditioner red. dimension   ....   250
   COSX micro iterations for RIJONX calc.... off
 SOSCF                  CNVSOSCF        .... on
   Start iteration      SOSCFMaxIt      ....   150
   Startup grad/error   SOSCFStart      ....  0.003300
   Hessian update       SOSCFHessUp     .... L-BFGS
 Level Shifting         CNVShift        .... on
   Level shift para.    LevelShift      ....    0.2500
   Turn off err/grad.   ShiftErr        ....    0.0010
 Zerner damping         CNVZerner       .... off
 Static damping         CNVDamp         .... on
   Fraction old density DampFac         ....    0.7000
   Max. Damping (<1)    DampMax         ....    0.9800
   Min. Damping (>=0)   DampMin         ....    0.0000
   Turn off err/grad.   DampErr         ....    0.1000

SCF Procedure:
 Maximum # iterations   MaxIter         ....   125
 SCF integral mode      SCFMode         .... Direct
   Integral package                     .... SHARK and LIBINT hybrid scheme
 Reset frequency        DirectResetFreq ....    20
 Integral Threshold     Thresh          ....  1.000e-10 Eh
 Primitive CutOff       TCut            ....  1.000e-11 Eh

Convergence Tolerance:
 Convergence Check Mode ConvCheckMode   .... Total+1el-Energy
 Convergence forced     ConvForced      .... 0
 Energy Change          TolE            ....  1.000e-06 Eh
 1-El. energy change                    ....  1.000e-03 Eh
 Orbital Gradient       TolG            ....  3.330e-04
 Orbital Rotation angle TolX            ....  3.330e-04
 DIIS Error             TolErr          ....  1.000e-06

---------------------
INITIAL GUESS: MOREAD
---------------------
Guess MOs are being read from file: sp_gas.ges
Input Geometry matches current geometry (good)
Atom 0: N(Shells)= 9 and 6 - projection required
Input basis set needs projection
NBasis(read)= 136
NBasis(calc)= 222
Basis set overlap was calculated
Using GuessMode=FMatrix for the initial guess
C*T matrix was formed
Effective Fockian was calculated
Effective Fockian was diagonalized
Initial density was built
                      ------------------
                      INITIAL GUESS DONE (   0.0 sec)
                      ------------------
             **** ENERGY FILE WAS UPDATED (sp_gas.en.tmp) ****
Finished Guess after   0.3 sec
Maximum memory used throughout the entire GUESS-calculation: 15.1 MB

-------------------------------------------------------------------------------------------
                                      ORCA LEAN-SCF
                              memory conserving SCF solver
-------------------------------------------------------------------------------------------

----------------------------------------D-I-I-S--------------------------------------------
Iteration    Energy (Eh)           Delta-E    RMSDP     MaxDP     DIISErr   Damp  Time(sec)
-------------------------------------------------------------------------------------------
               ***  Starting incremental Fock matrix formation  ***
    1    -386.0462112280587235     0.00e+00  3.82e-03  1.49e-01  6.27e-01  0.700   3.1
    2    -386.1042980422852224    -5.81e-02  3.11e-03  8.56e-02  4.41e-01  0.700   2.8
    3    -386.1453506470230650    -4.11e-02  2.29e-03  6.28e-02  3.09e-01  0.700   2.7
    4    -386.1741682876919413    -2.88e-02  1.64e-03  4.48e-02  2.16e-01  0.700   2.7
                               ***Turning on AO-DIIS***
    5    -386.1943795314904264    -2.02e-02  1.18e-03  3.21e-02  1.51e-01  0.700   2.6
    6    -386.2085458288909194    -1.42e-02  8.38e-04  2.27e-02  1.06e-01  0.700   2.6
    7    -386.2184756182723504    -9.93e-03  5.91e-04  1.60e-02  7.41e-02  0.700   2.6
    8    -386.2254322679733605    -6.96e-03  1.39e-03  3.74e-02  5.20e-02  0.000   2.5
                              *** Initializing SOSCF ***
---------------------------------------S-O-S-C-F--------------------------------------
Iteration    Energy (Eh)           Delta-E    RMSDP     MaxDP     MaxGrad    Time(sec)
--------------------------------------------------------------------------------------
    9    -386.2416844343540561    -1.63e-02  8.40e-06  3.70e-04  8.50e-05     2.7
               *** Restarting incremental Fock matrix formation ***
   10    -386.2416845397617635    -1.05e-07  4.68e-06  1.22e-04  3.58e-05     3.0
                  *** Gradient check signals convergence ***

               *****************************************************
               *                     SUCCESS                       *
               *           SCF CONVERGED AFTER  10 CYCLES          *
               *****************************************************

             **** ENERGY FILE WAS UPDATED (sp_gas.en.tmp) ****

----------------
TOTAL SCF ENERGY
----------------

Total Energy       :       -386.24168453976176 Eh          -10510.17056 eV

Components:
Nuclear Repulsion  :        394.71166454076456 Eh           10740.65044 eV
Electronic Energy  :       -780.95334908052632 Eh          -21250.82100 eV
One Electron Energy:      -1306.55426519654839 Eh          -35553.14904 eV
Two Electron Energy:        525.60091611602206 Eh           14302.32804 eV

Virial components:
Potential Energy   :       -770.88620126527474 Eh          -20976.87998 eV
Kinetic Energy     :        384.64451672551297 Eh           10466.70942 eV
Virial Ratio       :          2.00415232180572

DFT components:
N(Alpha)           :       31.999987618654 electrons
N(Beta)            :       31.999987618654 electrons
N(Total)           :       63.999975237309 electrons
E(X)               :      -52.080035296998 Eh       
E(C)               :       -2.037342219074 Eh       
E(XC)              :      -54.117377516072 Eh       

---------------
SCF CONVERGENCE
---------------

  Last Energy change         ...    1.0541e-07  Tolerance :   1.0000e-06
  Last MAX-Density change    ...    1.2222e-04  Tolerance :   1.0000e-05
  Last RMS-Density change    ...    4.6836e-06  Tolerance :   1.0000e-06
  Last DIIS Error            ...    8.5050e-05  Tolerance :   1.0000e-06
  Last Orbital Gradient      ...    3.5786e-05  Tolerance :   3.3300e-04
  Last Orbital Rotation      ...    1.3983e-04  Tolerance :   3.3300e-04


----------------
ORBITAL ENERGIES
----------------

  NO   OCC          E(Eh)            E(eV) 
   0   2.0000     -18.996425      -516.9190 
   1   2.0000     -18.925834      -514.9981 
   2   2.0000     -10.150414      -276.2068 
   3   2.0000     -10.091331      -274.5991 
   4   2.0000     -10.040433      -273.2141 
   5   2.0000     -10.036520      -273.1076 
   6   2.0000     -10.032414      -272.9959 
   7   2.0000     -10.019610      -272.6474 
   8   2.0000      -1.071500       -29.1570 
   9   2.0000      -0.973086       -26.4790 
  10   2.0000      -0.776085       -21.1183 
  11   2.0000      -0.741547       -20.1785 
  12   2.0000      -0.677644       -18.4396 
  13   2.0000      -0.616952       -16.7881 
  14   2.0000      -0.569535       -15.4978 
  15   2.0000      -0.532906       -14.5011 
  16   2.0000      -0.473450       -12.8832 
  17   2.0000      -0.448515       -12.2047 
  18   2.0000      -0.441201       -12.0057 
  19   2.0000      -0.424833       -11.5603 
  20   2.0000      -0.410646       -11.1742 
  21   2.0000      -0.382897       -10.4191 
  22   2.0000      -0.375268       -10.2116 
  23   2.0000      -0.370488       -10.0815 
  24   2.0000      -0.355578        -9.6758 
  25   2.0000      -0.337373        -9.1804 
  26   2.0000      -0.324845        -8.8395 
  27   2.0000      -0.312471        -8.5028 
  28   2.0000      -0.309549        -8.4232 
  29   2.0000      -0.308075        -8.3831 
  30   2.0000      -0.270173        -7.3518 
  31   2.0000      -0.230524        -6.2729 
  32   0.0000      -0.014173        -0.3857 
  33   0.0000       0.071924         1.9572 
  34   0.0000       0.094576         2.5736 
  35   0.0000       0.114914         3.1270 
  36   0.0000       0.118868         3.2346 
  37   0.0000       0.123246         3.3537 
  38   0.0000       0.133247         3.6258 
  39   0.0000       0.140841         3.8325 
  40   0.0000       0.150173         4.0864 
  41   0.0000       0.159505         4.3404 
  42   0.0000       0.165121         4.4932 
*Only the first 10 virtual orbitals were printed.

                    ********************************
                    * MULLIKEN POPULATION ANALYSIS *
                    ********************************

-----------------------
MULLIKEN ATOMIC CHARGES
-----------------------
   0 C :   -0.480399
   1 C :   -0.229683
   2 C :   -0.315102
   3 C :    0.357015
   4 O :   -0.423915
   5 O :   -0.166112
   6 C :   -0.148887
   7 C :   -0.442698
   8 H :    0.149123
   9 H :    0.147250
  10 H :    0.155237
  11 H :    0.145677
  12 H :    0.152311
  13 H :    0.168896
  14 H :    0.158366
  15 H :    0.176257
  16 H :    0.145541
  17 H :    0.151653
  18 H :    0.152587
  19 H :    0.146880
Sum of atomic charges:    0.0000000

--------------------------------
MULLIKEN REDUCED ORBITAL CHARGES
--------------------------------
  0 C s       :     3.326098  s :     3.326098
      pz      :     0.960991  p :     3.127280
      px      :     1.075135
      py      :     1.091154
      dz2     :     0.006663  d :     0.027021
      dxz     :     0.007290
      dyz     :     0.004335
      dx2y2   :     0.002015
      dxy     :     0.006718

  1 C s       :     3.195046  s :     3.195046
      pz      :     0.958207  p :     2.997626
      px      :     1.066007
      py      :     0.973411
      dz2     :     0.008721  d :     0.037011
      dxz     :     0.008902
      dyz     :     0.006084
      dx2y2   :     0.004320
      dxy     :     0.008984

  2 C s       :     3.242160  s :     3.242160
      pz      :     1.039200  p :     3.038216
      px      :     0.965049
      py      :     1.033968
      dz2     :     0.007585  d :     0.034725
      dxz     :     0.007450
      dyz     :     0.003932
      dx2y2   :     0.007188
      dxy     :     0.008571

  3 C s       :     3.163539  s :     3.163539
      pz      :     0.755329  p :     2.354426
      px      :     0.824810
      py      :     0.774287
      dz2     :     0.017361  d :     0.125020
      dxz     :     0.017795
      dyz     :     0.021235
      dx2y2   :     0.029780
      dxy     :     0.038849

  4 O s       :     3.838763  s :     3.838763
      pz      :     1.432455  p :     4.564044
      px      :     1.746784
      py      :     1.384806
      dz2     :     0.005286  d :     0.021107
      dxz     :     0.000285
      dyz     :     0.007636
      dx2y2   :     0.005986
      dxy     :     0.001913

  5 O s       :     3.695328  s :     3.695328
      pz      :     1.671393  p :     4.439862
      px      :     1.212954
      py      :     1.555516
      dz2     :     0.008487  d :     0.030922
      dxz     :     0.008856
      dyz     :     0.005905
      dx2y2   :     0.002257
      dxy     :     0.005417

  6 C s       :     3.282398  s :     3.282398
      pz      :     0.980566  p :     2.812803
      px      :     0.746539
      py      :     1.085698
      dz2     :     0.012439  d :     0.053686
      dxz     :     0.013042
      dyz     :     0.004789
      dx2y2   :     0.013926
      dxy     :     0.009489

  7 C s       :     3.310796  s :     3.310796
      pz      :     1.048027  p :     3.106090
      px      :     1.012568
      py      :     1.045496
      dz2     :     0.006161  d :     0.025812
      dxz     :     0.005566
      dyz     :     0.003277
      dx2y2   :     0.006528
      dxy     :     0.004280

  8 H s       :     0.832662  s :     0.832662
      pz      :     0.003569  p :     0.018214
      px      :     0.006699
      py      :     0.007946

  9 H s       :     0.834452  s :     0.834452
      pz      :     0.004701  p :     0.018298
      px      :     0.005196
      py      :     0.008400

 10 H s       :     0.826526  s :     0.826526
      pz      :     0.006260  p :     0.018237
      px      :     0.007837
      py      :     0.004140

 11 H s       :     0.836395  s :     0.836395
      pz      :     0.005947  p :     0.017928
      px      :     0.008075
      py      :     0.003906

 12 H s       :     0.829791  s :     0.829791
      pz      :     0.003397  p :     0.017899
      px      :     0.006559
      py      :     0.007943

 13 H s       :     0.813495  s :     0.813495
      pz      :     0.003191  p :     0.017609
      px      :     0.005778
      py      :     0.008640

 14 H s       :     0.823470  s :     0.823470
      pz      :     0.010534  p :     0.018164
      px      :     0.003836
      py      :     0.003793

 15 H s       :     0.805774  s :     0.805774
      pz      :     0.003062  p :     0.017969
      px      :     0.003025
      py      :     0.011882

 16 H s       :     0.837092  s :     0.837092
      pz      :     0.010683  p :     0.017367
      px      :     0.002431
      py      :     0.004253

 17 H s       :     0.830077  s :     0.830077
      pz      :     0.003616  p :     0.018270
      px      :     0.004191
      py      :     0.010462

 18 H s       :     0.829179  s :     0.829179
      pz      :     0.010293  p :     0.018234
      px      :     0.003618
      py      :     0.004323

 19 H s       :     0.834675  s :     0.834675
      pz      :     0.005116  p :     0.018444
      px      :     0.009624
      py      :     0.003704


------------------------
MULLIKEN OVERLAP CHARGES
------------------------
B(  0-C ,  1-C ) :   0.4409 B(  0-C ,  2-C ) :  -0.1879 B(  0-C ,  8-H ) :   0.8416 
B(  0-C ,  9-H ) :   0.8003 B(  0-C , 10-H ) :   0.8352 B(  0-C , 11-H ) :  -0.0558 
B(  0-C , 12-H ) :  -0.0590 B(  1-C ,  2-C ) :   0.3975 B(  1-C ,  3-C ) :  -0.1294 
B(  1-C ,  8-H ) :  -0.0835 B(  1-C ,  9-H ) :  -0.0809 B(  1-C , 10-H ) :  -0.0822 
B(  1-C , 11-H ) :   0.8272 B(  1-C , 12-H ) :   0.8511 B(  1-C , 13-H ) :  -0.0734 
B(  1-C , 14-H ) :  -0.0624 B(  2-C ,  3-C ) :   0.3805 B(  2-C ,  4-O ) :  -0.1178 
B(  2-C ,  5-O ) :  -0.0916 B(  2-C , 10-H ) :  -0.0509 B(  2-C , 11-H ) :  -0.1102 
B(  2-C , 12-H ) :  -0.0651 B(  2-C , 13-H ) :   0.9287 B(  2-C , 14-H ) :   0.7586 
B(  3-C ,  4-O ) :   0.9836 B(  3-C ,  5-O ) :   0.2999 B(  3-C ,  6-C ) :  -0.2093 
B(  3-C , 10-H ) :   0.0601 B(  3-C , 13-H ) :  -0.1615 B(  4-O ,  5-O ) :  -0.2211 
B(  5-O ,  6-C ) :   0.2559 B(  5-O ,  7-C ) :  -0.0800 B(  5-O , 15-H ) :  -0.0678 
B(  5-O , 16-H ) :  -0.0761 B(  6-C ,  7-C ) :   0.4634 B(  6-C , 15-H ) :   0.8733 
B(  6-C , 16-H ) :   0.7536 B(  6-C , 18-H ) :  -0.0820 B(  6-C , 19-H ) :  -0.0797 
B(  7-C , 15-H ) :  -0.0683 B(  7-C , 17-H ) :   0.8085 B(  7-C , 18-H ) :   0.8386 
B(  7-C , 19-H ) :   0.8213 B( 15-H , 16-H ) :  -0.0572 


                     *******************************
                     * LOEWDIN POPULATION ANALYSIS *
                     *******************************

----------------------
LOEWDIN ATOMIC CHARGES
----------------------
   0 C :   -0.414934
   1 C :   -0.293424
   2 C :   -0.230899
   3 C :    0.351389
   4 O :   -0.431437
   5 O :   -0.602261
   6 C :    0.033211
   7 C :   -0.386893
   8 H :    0.153354
   9 H :    0.151636
  10 H :    0.156351
  11 H :    0.153104
  12 H :    0.163613
  13 H :    0.177316
  14 H :    0.179033
  15 H :    0.189825
  16 H :    0.174311
  17 H :    0.158513
  18 H :    0.158785
  19 H :    0.159408

-------------------------------
LOEWDIN REDUCED ORBITAL CHARGES
-------------------------------
  0 C s       :     2.970318  s :     2.970318
      pz      :     1.083260  p :     3.381477
      px      :     1.144069
      py      :     1.154149
      dz2     :     0.015562  d :     0.063139
      dxz     :     0.016729
      dyz     :     0.009173
      dx2y2   :     0.004907
      dxy     :     0.016769

  1 C s       :     2.934846  s :     2.934846
      pz      :     1.081898  p :     3.278432
      px      :     1.112503
      py      :     1.084031
      dz2     :     0.018902  d :     0.080146
      dxz     :     0.019494
      dyz     :     0.011984
      dx2y2   :     0.009051
      dxy     :     0.020715

  2 C s       :     2.924722  s :     2.924722
      pz      :     1.094480  p :     3.232562
      px      :     1.037466
      py      :     1.100616
      dz2     :     0.017783  d :     0.073615
      dxz     :     0.014516
      dyz     :     0.007614
      dx2y2   :     0.013418
      dxy     :     0.020283

  3 C s       :     2.736777  s :     2.736777
      pz      :     0.815084  p :     2.639358
      px      :     0.914127
      py      :     0.910148
      dz2     :     0.033938  d :     0.272476
      dxz     :     0.036370
      dyz     :     0.049149
      dx2y2   :     0.066330
      dxy     :     0.086690

  4 O s       :     3.551401  s :     3.551401
      pz      :     1.467523  p :     4.664460
      px      :     1.702704
      py      :     1.494233
      dz2     :     0.030973  d :     0.215576
      dxz     :     0.026219
      dyz     :     0.056632
      dx2y2   :     0.050078
      dxy     :     0.051674

  5 O s       :     3.458009  s :     3.458009
      pz      :     1.671299  p :     4.661988
      px      :     1.381723
      py      :     1.608966
      dz2     :     0.081464  d :     0.482264
      dxz     :     0.095688
      dyz     :     0.050414
      dx2y2   :     0.122683
      dxy     :     0.132015

  6 C s       :     2.868227  s :     2.868227
      pz      :     1.023650  p :     2.978213
      px      :     0.859336
      py      :     1.095227
      dz2     :     0.028639  d :     0.120350
      dxz     :     0.029062
      dyz     :     0.009961
      dx2y2   :     0.030583
      dxy     :     0.022105

  7 C s       :     2.972349  s :     2.972349
      pz      :     1.134271  p :     3.353666
      px      :     1.091609
      py      :     1.127786
      dz2     :     0.014944  d :     0.060879
      dxz     :     0.013130
      dyz     :     0.007707
      dx2y2   :     0.015740
      dxy     :     0.009358

  8 H s       :     0.803241  s :     0.803241
      pz      :     0.007971  p :     0.043405
      px      :     0.016092
      py      :     0.019342

  9 H s       :     0.804861  s :     0.804861
      pz      :     0.010766  p :     0.043503
      px      :     0.012019
      py      :     0.020718

 10 H s       :     0.799801  s :     0.799801
      pz      :     0.015118  p :     0.043848
      px      :     0.019574
      py      :     0.009156

 11 H s       :     0.803518  s :     0.803518
      pz      :     0.014477  p :     0.043378
      px      :     0.019929
      py      :     0.008971

 12 H s       :     0.792686  s :     0.792686
      pz      :     0.008005  p :     0.043701
      px      :     0.016062
      py      :     0.019634

 13 H s       :     0.779522  s :     0.779522
      pz      :     0.007436  p :     0.043162
      px      :     0.013937
      py      :     0.021790

 14 H s       :     0.776608  s :     0.776608
      pz      :     0.025941  p :     0.044359
      px      :     0.009227
      py      :     0.009190

 15 H s       :     0.766961  s :     0.766961
      pz      :     0.006942  p :     0.043214
      px      :     0.006870
      py      :     0.029402

 16 H s       :     0.785334  s :     0.785334
      pz      :     0.024591  p :     0.040355
      px      :     0.005881
      py      :     0.009883

 17 H s       :     0.798067  s :     0.798067
      pz      :     0.007971  p :     0.043420
      px      :     0.009544
      py      :     0.025905

 18 H s       :     0.797861  s :     0.797861
      pz      :     0.025575  p :     0.043354
      px      :     0.007758
      py      :     0.010021

 19 H s       :     0.796743  s :     0.796743
      pz      :     0.012182  p :     0.043849
      px      :     0.023414
      py      :     0.008253


---------------------------------
LOEWDIN BOND ORDERS (THRESH 0.050000)
---------------------------------
B(  0-C ,  1-C ) :   1.1426 B(  0-C ,  2-C ) :   0.0663 B(  0-C ,  8-H ) :   0.9283 
B(  0-C ,  9-H ) :   0.9298 B(  0-C , 10-H ) :   0.9197 B(  1-C ,  2-C ) :   1.0828 
B(  1-C ,  3-C ) :   0.0694 B(  1-C , 11-H ) :   0.8931 B(  1-C , 12-H ) :   0.8864 
B(  2-C ,  3-C ) :   0.9246 B(  2-C ,  4-O ) :   0.1806 B(  2-C ,  5-O ) :   0.1771 
B(  2-C , 13-H ) :   0.8716 B(  2-C , 14-H ) :   0.8642 B(  3-C ,  4-O ) :   2.1719 
B(  3-C ,  5-O ) :   1.4508 B(  3-C ,  6-C ) :   0.0870 B(  4-O ,  5-O ) :   0.4618 
B(  4-O ,  6-C ) :   0.0727 B(  5-O ,  6-C ) :   1.2911 B(  5-O ,  7-C ) :   0.1685 
B(  5-O , 15-H ) :   0.0906 B(  5-O , 16-H ) :   0.0956 B(  6-C ,  7-C ) :   1.0914 
B(  6-C , 15-H ) :   0.8149 B(  6-C , 16-H ) :   0.8314 B(  7-C , 17-H ) :   0.9219 
B(  7-C , 18-H ) :   0.9240 B(  7-C , 19-H ) :   0.9193 

------------------------------------------
LOEWDIN REDUCED ORBITAL POPULATIONS PER MO
-------------------------------------------
THRESHOLD FOR PRINTING IS 0.1%%
                      0         1         2         3         4         5   
                 -18.99642 -18.92583 -10.15041 -10.09133 -10.04043 -10.03652
                   2.00000   2.00000   2.00000   2.00000   2.00000   2.00000
                  --------  --------  --------  --------  --------  --------
 1 C  s               0.0       0.0       0.0       0.0       0.0      99.7
 2 C  s               0.0       0.0       0.0       0.0      99.6       0.0
 3 C  s               0.0       0.0      98.9       0.0       0.0       0.0
 4 O  s               0.0      99.9       0.0       0.0       0.0       0.0
 4 O  py              0.0       0.0       0.1       0.0       0.0       0.0
 4 O  dyz             0.0       0.0       0.2       0.0       0.0       0.0
 4 O  dx2y2           0.0       0.0       0.1       0.0       0.0       0.0
 5 O  s              99.9       0.0       0.0       0.0       0.0       0.0
 5 O  dxz             0.0       0.0       0.0       0.1       0.0       0.0
 5 O  dx2y2           0.0       0.0       0.0       0.1       0.0       0.0
 5 O  dxy             0.0       0.0       0.2       0.0       0.0       0.0
 6 C  s               0.0       0.0       0.0      99.4       0.0       0.0

                      6         7         8         9        10        11   
                 -10.03241 -10.01961  -1.07150  -0.97309  -0.77608  -0.74155
                   2.00000   2.00000   2.00000   2.00000   2.00000   2.00000
                  --------  --------  --------  --------  --------  --------
 0 C  s               0.0      99.7       0.0       0.0       7.8       5.8
 0 C  pz              0.0       0.0       0.0       0.0       2.0       0.8
 0 C  px              0.0       0.0       0.0       0.0       0.3       0.1
 1 C  s               0.0       0.0       0.1       0.0      18.4       7.8
 1 C  pz              0.0       0.1       0.0       0.0       0.0       0.3
 1 C  px              0.0       0.0       0.2       0.0       0.3       0.1
 1 C  py              0.0       0.0       0.1       0.0       1.5       0.1
 2 C  s               0.0       0.0       1.0       0.2      18.8       1.9
 2 C  pz              0.0       0.0       0.4       0.2       0.6       0.1
 2 C  px              0.0       0.0       1.5       0.1       0.1       1.2
 2 C  py              0.0       0.0       0.0       0.3       1.4       0.4
 3 C  s               0.0       0.0      16.0       4.4       2.7       0.7
 3 C  pz              0.0       0.0       0.4       3.6       2.1       0.1
 3 C  px              0.0       0.0       4.2       0.5       4.7       0.9
 3 C  py              0.0       0.0       0.6      18.9       2.3       1.4
 3 C  dz2             0.0       0.0       0.3       0.0       0.0       0.0
 3 C  dyz             0.0       0.0       0.3       0.8       0.0       0.0
 3 C  dx2y2           0.0       0.0       0.1       0.4       0.1       0.0
 3 C  dxy             0.0       0.0       0.4       0.6       0.0       0.1
 4 O  s               0.0       0.0      11.1      43.4       1.3       0.2
 4 O  pz              0.0       0.0       0.7       1.1       0.1       0.0
 4 O  px              0.0       0.0       0.0       0.2       0.1       0.0
 4 O  py              0.0       0.0       2.3       2.5       0.2       0.1
 4 O  dz2             0.0       0.0       0.1       0.0       0.0       0.0
 4 O  dyz             0.0       0.0       0.6       0.1       0.2       0.1
 4 O  dx2y2           0.0       0.0       0.6       0.0       0.0       0.1
 4 O  dxy             0.0       0.0       0.1       0.2       0.2       0.0
 5 O  s               0.0       0.0      42.8      15.0       0.0       1.2
 5 O  pz              0.0       0.0       0.4       0.1       0.5       0.5
 5 O  px              0.0       0.0       0.1       0.6       5.7       7.4
 5 O  py              0.0       0.0       2.3       0.5       0.3       1.0
 5 O  dz2             0.0       0.0       0.3       0.1       0.0       0.1
 5 O  dxz             0.0       0.0       0.0       0.1       0.0       0.5
 5 O  dyz             0.0       0.0       0.1       0.2       0.0       0.0
 5 O  dx2y2           0.0       0.0       0.0       0.7       0.0       1.2
 5 O  dxy             0.0       0.0       0.4       0.4       0.2       0.0
 6 C  s               0.0       0.0       4.5       1.8       5.3      16.3
 6 C  pz              0.0       0.0       1.0       0.4       0.2       0.3
 6 C  px              0.0       0.0       4.5       1.0       0.2       2.6
 6 C  py              0.0       0.0       0.0       0.2       0.2       1.0
 6 C  dxz             0.0       0.0       0.2       0.1       0.0       0.0
 6 C  dx2y2           0.0       0.0       0.2       0.1       0.0       0.0
 7 C  s              99.7       0.0       0.3       0.2       3.3      20.6
 7 C  pz              0.0       0.0       0.0       0.0       0.1       0.5
 7 C  px              0.0       0.0       0.5       0.3       0.4       0.7
 7 C  py              0.0       0.0       0.1       0.1       0.2       0.5
 8 H  s               0.0       0.0       0.0       0.0       1.0       0.9
 9 H  s               0.0       0.0       0.0       0.0       1.0       0.9
10 H  s               0.0       0.0       0.0       0.0       1.1       0.9
11 H  s               0.0       0.0       0.0       0.0       2.4       1.3
11 H  px              0.0       0.0       0.0       0.0       0.1       0.1
12 H  s               0.0       0.0       0.0       0.0       2.5       1.1
12 H  py              0.0       0.0       0.0       0.0       0.1       0.1
13 H  s               0.0       0.0       0.1       0.0       2.4       0.4
13 H  py              0.0       0.0       0.0       0.0       0.2       0.0
14 H  s               0.0       0.0       0.1       0.0       2.7       0.2
14 H  pz              0.0       0.0       0.0       0.0       0.2       0.0
15 H  s               0.0       0.0       0.4       0.1       0.7       2.5
15 H  py              0.0       0.0       0.0       0.0       0.1       0.2
16 H  s               0.0       0.0       0.3       0.1       0.7       2.8
16 H  pz              0.0       0.0       0.0       0.0       0.1       0.2
17 H  s               0.0       0.0       0.0       0.0       0.5       3.3
17 H  py              0.0       0.0       0.0       0.0       0.0       0.3
18 H  s               0.0       0.0       0.0       0.0       0.4       3.3
18 H  pz              0.0       0.0       0.0       0.0       0.0       0.3
19 H  s               0.0       0.0       0.0       0.0       0.5       3.5
19 H  px              0.0       0.0       0.0       0.0       0.0       0.2

                     12        13        14        15        16        17   
                  -0.67764  -0.61695  -0.56954  -0.53291  -0.47345  -0.44851
                   2.00000   2.00000   2.00000   2.00000   2.00000   2.00000
                  --------  --------  --------  --------  --------  --------
 0 C  s              20.4       4.7       8.2       0.3       0.2       0.0
 0 C  pz              0.1       0.9       6.4       0.3       0.0       0.0
 0 C  px              0.0       0.1       0.4       0.1       2.5       1.0
 0 C  py              0.1       0.0       0.9       0.2       0.0       3.3
 0 C  dz2             0.0       0.0       0.1       0.0       0.0       0.0
 1 C  s               2.7       1.4      14.1       0.8       0.0       0.2
 1 C  pz              6.0       3.0       4.0       0.0       1.7       1.3
 1 C  px              2.5       0.2       0.0       0.1       4.0       2.5
 1 C  py              1.4       0.2       3.6       1.1       0.3       7.5
 1 C  dz2             0.1       0.0       0.0       0.0       0.0       0.0
 2 C  s              12.5       3.7       2.3       1.5       0.7       0.8
 2 C  pz              0.5       0.4       0.0       0.6       8.7       0.8
 2 C  px              1.6       1.9       2.1       0.9       2.3      12.5
 2 C  py              0.9       0.0       7.4       1.4       0.2       0.2
 2 C  dxz             0.0       0.0       0.0       0.0       0.1       0.1
 3 C  s               2.6       1.7       1.1       2.2       0.4       0.8
 3 C  pz              2.9       0.1       1.0       0.2       2.5       6.3
 3 C  px              3.7       0.9       2.9       1.5       8.7       3.1
 3 C  py              0.4       1.9       0.1       2.3       1.2       1.3
 4 O  s               0.8       0.2       1.0       1.3       0.0       0.1
 4 O  pz              0.3       0.0       0.4       0.0       0.5       3.4
 4 O  px              0.3       0.0       0.5       0.8       4.5       1.3
 4 O  py              0.2       0.2       0.2       1.9       0.2       0.2
 4 O  dz2             0.0       0.0       0.0       0.1       0.1       0.2
 4 O  dxz             0.2       0.0       0.1       0.0       0.1       0.0
 4 O  dyz             0.2       0.1       0.1       0.1       0.1       0.2
 4 O  dx2y2           0.0       0.2       0.0       0.2       0.1       0.1
 4 O  dxy             0.2       0.0       0.1       0.1       0.7       0.1
 5 O  s               0.7       0.0       0.6       4.9       0.2       0.1
 5 O  pz              0.5       2.1       0.1       1.1       3.9      11.8
 5 O  px              1.5      13.5       0.3       9.8       2.0       2.7
 5 O  py              0.1       1.7       0.1      11.1      13.2       0.5
 5 O  dz2             0.2       0.1       0.0       0.0       0.1       0.8
 5 O  dxz             0.1       0.8       0.4       0.5       0.0       0.0
 5 O  dyz             0.1       0.0       0.0       0.1       0.0       0.2
 5 O  dx2y2           0.5       0.1       0.1       0.1       0.4       0.4
 5 O  dxy             0.5       0.5       0.1       0.2       0.7       0.0
 6 C  s               0.2       5.5       2.6       5.7       0.0       0.3
 6 C  pz              0.1       1.1       1.0      10.2       5.2       7.5
 6 C  px              2.3       4.4       0.0       5.4       0.7       1.4
 6 C  py              0.3       0.9       0.4       5.7      11.2       0.9
 6 C  dxz             0.1       0.2       0.0       0.2       0.0       0.0
 6 C  dx2y2           0.0       0.0       0.0       0.2       0.0       0.0
 6 C  dxy             0.0       0.1       0.0       0.0       0.0       0.0
 7 C  s               6.2      14.8       1.4       0.5       0.0       0.3
 7 C  pz              0.0       0.7       0.6       3.2       2.1       0.7
 7 C  px              0.1       2.5       0.5       0.1       0.6       2.9
 7 C  py              0.0       0.9       0.6       2.1       2.4       4.8
 8 H  s               4.1       1.3       3.9       0.3       0.6       1.4
 8 H  px              0.1       0.0       0.1       0.0       0.0       0.0
 8 H  py              0.2       0.1       0.2       0.0       0.0       0.0
 9 H  s               4.6       1.5       3.0       0.1       0.3       0.3
 9 H  py              0.3       0.1       0.2       0.0       0.0       0.0
10 H  s               3.9       1.5       4.0       0.1       0.2       0.0
10 H  pz              0.1       0.0       0.1       0.0       0.0       0.0
10 H  px              0.2       0.1       0.2       0.0       0.0       0.0
11 H  s               0.6       0.6       6.8       0.3       1.0       0.2
11 H  pz              0.0       0.0       0.1       0.0       0.0       0.0
11 H  px              0.0       0.0       0.4       0.0       0.0       0.0
12 H  s               0.5       0.3       6.5       0.8       1.0       3.8
12 H  px              0.0       0.0       0.2       0.0       0.0       0.1
12 H  py              0.0       0.0       0.3       0.0       0.0       0.1
13 H  s               2.5       1.4       1.8       1.9       1.1       3.4
13 H  px              0.1       0.0       0.1       0.0       0.0       0.0
13 H  py              0.1       0.1       0.0       0.1       0.1       0.2
14 H  s               3.3       1.1       0.7       0.7       3.3       0.3
14 H  pz              0.3       0.1       0.0       0.0       0.1       0.0
14 H  px              0.0       0.0       0.0       0.0       0.0       0.1
15 H  s               0.0       1.6       1.2       7.8       3.1       0.9
15 H  py              0.0       0.1       0.1       0.4       0.1       0.1
16 H  s               0.0       2.1       1.4       5.7       3.8       1.9
16 H  pz              0.0       0.2       0.1       0.2       0.2       0.1
16 H  py              0.0       0.0       0.0       0.1       0.0       0.0
17 H  s               1.3       4.4       0.7       1.1       0.6       1.5
17 H  py              0.1       0.3       0.0       0.1       0.0       0.0
18 H  s               1.3       4.6       0.7       0.8       1.3       0.2
18 H  pz              0.1       0.3       0.0       0.0       0.1       0.0
19 H  s               1.6       5.3       0.5       0.0       0.0       1.7
19 H  pz              0.0       0.1       0.0       0.0       0.0       0.0
19 H  px              0.1       0.3       0.0       0.0       0.0       0.0

                     18        19        20        21        22        23   
                  -0.44120  -0.42483  -0.41065  -0.38290  -0.37527  -0.37049
                   2.00000   2.00000   2.00000   2.00000   2.00000   2.00000
                  --------  --------  --------  --------  --------  --------
 0 C  s               0.3       0.0       0.1       0.0       0.0       0.0
 0 C  pz              2.9       0.1       7.4       0.0       0.8       2.5
 0 C  px              0.4       7.1       5.7       1.2      11.1       0.1
 0 C  py              1.1       4.9       3.1      11.9       0.3       6.0
 1 C  s               0.3       0.1       0.1       0.1       0.2       0.0
 1 C  pz              1.0       1.0       0.1       0.2       5.4       4.4
 1 C  px              0.8       8.0      11.9       1.1       1.0       0.5
 1 C  py              1.5       6.0       2.6       4.2       0.0       0.3
 2 C  s               0.2       0.2       0.6       0.1       0.0       0.1
 2 C  pz             11.7       4.3       6.4       0.0       0.4       1.6
 2 C  px              1.7       1.4       0.5       0.0       1.6       0.0
 2 C  py              2.5       2.3       1.9       6.6       3.6       5.6
 2 C  dz2             0.0       0.0       0.1       0.0       0.0       0.0
 3 C  s               2.2       1.5       0.0       0.1       0.3       0.1
 3 C  pz              2.1       2.5       1.7       0.6       3.2       1.7
 3 C  px              0.7       0.3       0.8       2.8       1.7       0.1
 3 C  py              1.3       3.1       0.5       0.2       1.6       2.3
 3 C  dz2             0.0       0.0       0.0       0.0       0.1       0.0
 3 C  dxz             0.0       0.0       0.1       0.0       0.0       0.0
 3 C  dx2y2           0.2       0.0       0.1       0.0       0.0       0.1
 3 C  dxy             0.0       0.0       0.1       0.1       0.0       0.0
 4 O  s              10.1       3.9       1.2       0.1       0.0       1.7
 4 O  pz              4.0      10.0       0.0       1.4       3.8       1.6
 4 O  px              2.0       0.3       0.8       2.4       1.3       1.0
 4 O  py             17.6       5.2       5.2       0.4       2.1       9.3
 4 O  dz2             0.1       0.2       0.0       0.1       0.1       0.0
 4 O  dxz             0.0       0.0       0.0       0.2       0.0       0.1
 4 O  dyz             0.2       0.3       0.1       0.0       0.1       0.1
 4 O  dx2y2           0.1       0.0       0.1       0.0       0.1       0.1
 5 O  s               0.7       0.1       1.3       0.9       0.3       0.6
 5 O  pz              3.1       0.0       9.0       3.8       2.9       0.3
 5 O  px              3.8       0.2       2.1       0.3       2.1       0.2
 5 O  py              3.5       0.2       2.1       3.1       2.0       2.9
 5 O  dz2             0.2       0.0       0.0       0.2       0.0       0.0
 5 O  dxz             0.7       0.3       0.0       0.0       0.1       0.1
 5 O  dyz             0.1       0.3       0.1       0.0       0.2       0.0
 5 O  dx2y2           0.0       0.4       0.0       0.0       0.7       0.0
 5 O  dxy             0.1       0.9       0.0       0.4       0.1       0.0
 6 C  s               0.1       0.0       0.2       0.1       0.1       0.1
 6 C  pz              2.8       1.7       0.0       0.4       0.1       1.3
 6 C  px              1.3       0.5       4.8       0.6       0.2       1.7
 6 C  py              1.3       5.5       0.6       2.2       0.0       1.5
 6 C  dxz             0.0       0.0       0.0       0.0       0.2       0.0
 6 C  dx2y2           0.0       0.0       0.0       0.1       0.0       0.2
 6 C  dxy             0.0       0.0       0.0       0.1       0.0       0.0
 7 C  s               0.0       0.0       0.1       0.0       0.0       0.1
 7 C  pz              3.0       2.2       3.1       0.2      14.7      10.1
 7 C  px              0.1       0.8       0.7      19.2       5.9       5.1
 7 C  py              0.1       4.6       2.1       6.2       2.8       9.5
 7 C  dz2             0.0       0.0       0.0       0.0       0.1       0.0
 7 C  dxz             0.0       0.0       0.0       0.1       0.1       0.0
 7 C  dx2y2           0.0       0.0       0.0       0.1       0.1       0.3
 8 H  s               0.0       0.0       2.3       1.7       3.1       2.2
 8 H  px              0.0       0.0       0.0       0.1       0.0       0.0
 9 H  s               1.7       3.2       1.0       4.7       1.0       0.7
10 H  s               0.2       2.3       4.2       1.2       1.2       1.0
11 H  s               0.0       4.3       2.6       0.3       1.6       0.1
12 H  s               0.4       0.0       3.2       0.3       0.3       0.0
13 H  s               0.9       0.0       0.4       2.5       2.7       2.2
14 H  s               6.8       0.9       5.3       0.1       0.7       1.1
14 H  pz              0.2       0.0       0.1       0.0       0.0       0.0
15 H  s               0.0       2.3       0.0       0.2       0.1       0.9
16 H  s               1.7       1.7       0.0       0.0       0.0       0.7
17 H  s               0.0       1.8       0.9       6.0       0.2       7.4
17 H  pz              0.0       0.0       0.0       0.0       0.1       0.1
17 H  py              0.0       0.0       0.0       0.2       0.0       0.1
18 H  s               1.3       1.7       1.0       1.4       7.6       1.8
18 H  pz              0.0       0.1       0.0       0.1       0.1       0.0
18 H  px              0.0       0.0       0.0       0.1       0.1       0.0
18 H  py              0.0       0.0       0.0       0.0       0.0       0.1
19 H  s               0.1       0.0       0.0       7.5       7.8       6.9
19 H  pz              0.0       0.0       0.0       0.1       0.0       0.0
19 H  px              0.0       0.0       0.0       0.0       0.2       0.1

                     24        25        26        27        28        29   
                  -0.35558  -0.33737  -0.32485  -0.31247  -0.30955  -0.30807
                   2.00000   2.00000   2.00000   2.00000   2.00000   2.00000
                  --------  --------  --------  --------  --------  --------
 0 C  s               0.0       0.0       0.5       0.1       0.0       0.2
 0 C  pz              1.1       0.2      17.7       0.5       4.8       5.3
 0 C  px              3.5       7.2       1.5      11.9       0.5       2.1
 0 C  py              8.0       3.1       3.2       0.1      10.7       0.7
 0 C  dz2             0.0       0.0       0.0       0.2       0.0       0.1
 0 C  dxz             0.0       0.1       0.4       0.2       0.0       0.0
 0 C  dyz             0.0       0.1       0.0       0.1       0.2       0.0
 0 C  dxy             0.1       0.0       0.0       0.0       0.5       0.0
 1 C  s               0.1       0.0       0.3       0.0       0.1       0.0
 1 C  pz              0.0       0.5      15.6       0.2       4.9       4.2
 1 C  px              0.1       0.6       0.8      16.3       0.7       2.8
 1 C  py              0.1       0.4       5.1       0.0      15.6       1.7
 1 C  dz2             0.0       0.0       0.1       0.2       0.0       0.2
 1 C  dxz             0.0       0.0       0.5       0.1       0.0       0.0
 1 C  dyz             0.1       0.0       0.0       0.1       0.1       0.0
 1 C  dx2y2           0.0       0.0       0.0       0.2       0.0       0.0
 1 C  dxy             0.0       0.1       0.0       0.1       0.6       0.0
 2 C  s               0.1       0.4       0.4       0.1       0.4       0.1
 2 C  pz              0.5       2.0       1.0       1.9       5.7       4.4
 2 C  px              9.5       0.4       0.7       7.4       0.9       0.2
 2 C  py              3.2       2.0       3.0       0.0       9.9       0.5
 2 C  dz2             0.0       0.0       0.2       0.1       0.1       0.2
 2 C  dxz             0.0       0.0       0.1       0.0       0.0       0.0
 2 C  dx2y2           0.0       0.0       0.0       0.2       0.0       0.0
 2 C  dxy             0.2       0.0       0.0       0.1       0.3       0.0
 3 C  s               0.1       0.0       0.1       0.4       0.0       0.1
 3 C  pz              4.2       1.7       0.2       0.4       0.8       1.8
 3 C  px              2.2       1.9       1.0       1.4       0.1       0.2
 3 C  py              0.5       1.6       0.0       1.5       0.2       1.7
 3 C  dz2             0.0       0.0       0.0       0.1       0.1       0.2
 3 C  dyz             0.0       0.0       0.0       0.0       0.0       0.3
 3 C  dx2y2           0.0       0.3       0.0       0.1       0.0       0.3
 3 C  dxy             0.1       0.0       0.2       0.1       0.1       0.0
 4 O  s               0.1       0.1       0.0       0.4       0.0       0.5
 4 O  pz              1.7       8.5       0.0       5.1       3.4       0.5
 4 O  px              0.0       0.4       3.4       1.5       0.2       1.1
 4 O  py              3.7       0.2       0.1       1.3       0.4       8.6
 4 O  dz2             0.1       0.2       0.0       0.0       0.0       0.0
 4 O  dyz             0.1       0.0       0.0       0.0       0.0       0.1
 4 O  dx2y2           0.1       0.0       0.2       0.2       0.0       0.1
 5 O  s               0.0       0.3       0.4       0.8       0.0       1.6
 5 O  pz              0.4       0.5       1.7       3.4       2.1       5.9
 5 O  px              4.0       2.1       0.2       1.3       0.4       1.1
 5 O  py              0.1       2.3       0.5       4.5       0.0      13.8
 5 O  dz2             0.1       0.6       0.0       0.0       0.0       0.1
 5 O  dxz             0.7       0.1       0.0       0.0       0.1       0.0
 5 O  dyz             0.1       0.2       0.1       0.1       0.0       0.5
 5 O  dx2y2           0.0       0.4       0.0       0.4       0.0       0.2
 5 O  dxy             0.1       0.0       0.3       0.7       0.1       0.3
 6 C  s               0.1       0.1       0.1       0.2       0.0       0.3
 6 C  pz              2.7       8.0       0.2       1.5       1.4       0.7
 6 C  px              8.2       0.1       0.0       0.4       0.4       0.5
 6 C  py              4.0       2.2       5.0       0.8       0.1       9.1
 6 C  dz2             0.0       0.4       0.0       0.0       0.1       0.0
 6 C  dxz             0.2       0.1       0.0       0.0       0.0       0.0
 6 C  dx2y2           0.0       0.0       0.1       0.1       0.0       0.3
 6 C  dxy             0.1       0.0       0.1       0.1       0.0       0.3
 7 C  s               0.2       0.1       0.1       0.1       0.1       0.3
 7 C  pz              1.7      11.6       0.0       0.6       0.7       0.2
 7 C  px             11.7       0.3       0.1       0.1       0.7       0.4
 7 C  py              4.2       5.1       4.6       0.5       0.0       4.9
 7 C  dz2             0.0       0.4       0.0       0.0       0.0       0.0
 7 C  dxz             0.1       0.0       0.0       0.0       0.0       0.0
 8 H  s               5.8       0.0       0.1       3.0       7.1       1.4
 8 H  pz              0.0       0.0       0.2       0.0       0.0       0.1
 9 H  s               1.7       4.5       0.4       2.5       6.8       0.2
 9 H  pz              0.0       0.0       0.2       0.0       0.0       0.0
10 H  s               1.0       2.9       8.3       5.1       0.7       0.0
10 H  px              0.0       0.0       0.1       0.0       0.0       0.0
10 H  py              0.1       0.0       0.0       0.0       0.1       0.0
11 H  s               0.0       0.2       8.0       7.3       0.9       0.0
11 H  pz              0.0       0.0       0.0       0.1       0.0       0.0
11 H  px              0.0       0.0       0.2       0.0       0.0       0.0
11 H  py              0.0       0.0       0.0       0.0       0.2       0.0
12 H  s               0.0       0.1       1.1       5.6       9.0       2.9
12 H  pz              0.0       0.0       0.1       0.0       0.0       0.0
12 H  px              0.0       0.0       0.0       0.0       0.1       0.0
12 H  py              0.0       0.0       0.0       0.1       0.0       0.0
13 H  s               6.5       0.6       1.7       3.2       2.3       0.8
13 H  py              0.1       0.0       0.0       0.1       0.0       0.0
14 H  s               0.0       0.1       2.5       2.2       2.2       3.6
14 H  py              0.0       0.0       0.0       0.0       0.2       0.0
15 H  s               0.5       1.3       3.5       1.1       0.1       7.6
15 H  px              0.1       0.0       0.0       0.0       0.0       0.0
16 H  s               0.6       7.7       0.1       0.4       1.4       0.1
17 H  s               0.4       3.3       2.7       0.3       0.1       2.7
17 H  pz              0.0       0.1       0.0       0.0       0.0       0.0
17 H  px              0.1       0.0       0.0       0.0       0.0       0.0
18 H  s               0.4      10.2       0.3       0.1       0.5       0.3
18 H  pz              0.0       0.1       0.0       0.0       0.0       0.0
19 H  s               3.1       0.7       0.0       0.1       0.1       0.0
19 H  pz              0.1       0.0       0.0       0.0       0.0       0.0

                     30        31        32        33        34        35   
                  -0.27017  -0.23052  -0.01417   0.07192   0.09458   0.11491
                   2.00000   2.00000   0.00000   0.00000   0.00000   0.00000
                  --------  --------  --------  --------  --------  --------
 0 C  s               0.0       0.0       0.3       7.1       0.3      10.9
 0 C  pz              0.0       0.2       0.3       0.9       0.4       1.0
 0 C  px              0.2       0.0       0.1       0.5       0.2       2.8
 0 C  py              0.0       0.1       0.0       0.2       0.1       0.5
 0 C  dz2             0.0       0.0       0.1       0.1       0.0       0.4
 0 C  dyz             0.0       0.0       0.0       0.1       0.0       0.3
 0 C  dxy             0.0       0.0       0.0       0.0       0.0       0.2
 1 C  s               0.0       0.1       1.9       4.1       0.5       7.5
 1 C  pz              0.0       0.1       0.4       0.0       0.2       1.7
 1 C  px              0.4       0.8       0.2       0.1       0.1       4.2
 1 C  py              0.2       0.6       1.8       1.7       0.1       4.8
 1 C  dxz             0.0       0.1       0.0       0.1       0.0       0.2
 1 C  dyz             0.0       0.0       0.0       0.0       0.0       0.2
 1 C  dxy             0.0       0.0       0.1       0.2       0.0       0.0
[...]
 3 C  s               1.1       0.2       2.8       5.4       0.0       0.0
 3 C  pz              0.0       0.1       0.0       2.0       0.0       0.0
 3 C  px              0.3       0.4       3.2       0.2       0.0       0.0
 3 C  py              0.4       0.9       4.0       5.5       0.0       0.0
 3 C  dz2             0.0       0.3       2.3       0.1       0.0       0.0
 3 C  dxz             3.8       0.1       0.5       0.1       0.0       0.0
 3 C  dyz             0.1       0.0       0.0       3.7       0.0       0.0
 3 C  dx2y2           5.3       0.0       0.3       2.3       0.0       0.0
 3 C  dxy             1.4       1.5       9.1       0.4       0.0       0.0
 4 O  s               0.6       1.0       0.5      19.4       0.0       0.0
 4 O  pz              0.0       0.1       0.1       5.5       0.0       0.0
 4 O  px              5.3       0.1       0.3       1.0       0.0       0.0
 4 O  py              1.9       0.7       0.1      15.3       0.0       0.0
 4 O  dz2             1.8       0.0       0.0       0.3       0.0       0.0
 4 O  dxz             2.5       0.0       1.0       0.8       0.0       0.0
 4 O  dyz             0.1       0.9       0.1      18.0       0.0       0.0
 4 O  dx2y2           2.3       1.2       0.5      11.3       0.0       0.0
 4 O  dxy            10.5       0.0       0.5       2.4       0.0       0.0
 5 O  s               3.7      25.7       5.8       1.2       0.0       0.0
 5 O  pz              0.7       4.2       0.4       0.1       0.0       0.0
 5 O  px              0.1       7.9      22.0       0.5       0.0       0.0
 5 O  py              4.1       2.0       9.3       0.1       0.0       0.0
 5 O  dz2             0.1       4.1       4.5       0.2       0.0       0.0
 5 O  dxz             0.0       9.7       2.4       0.9       0.0       0.0
 5 O  dyz             2.8       0.4       0.1       0.0       0.0       0.0
 5 O  dx2y2           3.4       9.2       2.5       0.9       0.0       0.0
 5 O  dxy             0.2       2.0      20.2       0.0       0.0       0.0
 6 C  s               0.2       1.5       0.5       0.2      15.0       3.3
 6 C  pz              0.0       2.4       0.4       0.1       0.0       0.0
 6 C  px              0.0       5.7       1.7       0.2       0.0       0.0
 6 C  py              0.0       0.0       0.1       0.0       0.0       0.0
 6 C  dz2             0.0       1.0       0.0       0.0       0.0       0.0
 6 C  dxz             0.0       5.8       1.1       0.3       0.0       0.0
 6 C  dyz             0.2       0.3       0.0       0.0       0.0       0.0
 6 C  dx2y2           0.0       5.9       1.7       0.3       0.0       0.0
 6 C  dxy             0.6       0.1       0.0       0.0       0.0       0.0
 7 C  s               0.0       0.0       0.0       0.0      76.7       8.2
 7 C  dz2             0.3       0.1       0.0       0.0       0.0       0.0
 7 C  dxz             0.1       0.3       0.0       0.0       0.0       0.0
 7 C  dx2y2           0.0       0.2       0.0       0.0       0.0       0.0
 9 H  s               0.3       0.0       0.0       0.0       0.0       0.0
 9 H  pz              0.1       0.0       0.0       0.0       0.0       0.0
 9 H  px              0.2       0.0       0.0       0.0       0.0       0.0
 9 H  py              0.3       0.0       0.0       0.0       0.0       0.0
10 H  s               0.6       0.0       0.0       0.0       0.0       0.0
10 H  pz              0.7       0.0       0.0       0.0       0.0       0.0
10 H  px              0.9       0.0       0.0       0.0       0.0       0.0
11 H  s               1.2       0.0       0.0       0.0       0.0       0.0
11 H  pz              0.5       0.0       0.0       0.0       0.0       0.0
11 H  px              2.3       0.0       0.0       0.0       0.0       0.0
11 H  py              0.2       0.0       0.0       0.0       0.0       0.0
12 H  s               0.6       0.0       0.0       0.0       0.0       0.0
12 H  pz              0.1       0.0       0.0       0.0       0.0       0.0
12 H  px              0.3       0.0       0.0       0.0       0.0       0.0
12 H  py              1.1       0.0       0.0       0.0       0.0       0.0
13 H  s               3.7       0.0       0.1       0.1       0.0       0.0
13 H  px              2.1       0.0       0.0       0.0       0.0       0.0
13 H  py              5.1       0.0       0.1       0.1       0.0       0.0
14 H  s               0.7       0.0       0.0       0.0       0.0       0.0
14 H  pz              1.2       0.0       0.0       0.0       0.0       0.0
15 H  s               0.0       0.2       0.2       0.0       0.0       0.0
15 H  px              0.4       0.0       0.0       0.0       0.0       0.0
15 H  py              0.1       0.5       0.3       0.0       0.0       0.0
16 H  s               0.0       0.6       0.0       0.0       0.0       0.0
16 H  pz              0.0       0.7       0.0       0.0       0.0       0.0
16 H  px              0.0       0.6       0.0       0.0       0.0       0.0
16 H  py              0.0       0.2       0.0       0.0       0.0       0.0
19 H  px              0.0       0.2       0.0       0.0       0.0       0.0

                    216       217       218       219       220       221   
                  21.99008  22.02293  22.08288  22.27351  43.70760  43.75229
                   0.00000   0.00000   0.00000   0.00000   0.00000   0.00000
                  --------  --------  --------  --------  --------  --------
 0 C  s              16.3       0.5       2.3       0.1       0.0       0.0
 1 C  s               6.7      88.5       0.2       3.1       0.0       0.0
 2 C  s              16.8       0.6      67.7       0.1       0.0       0.0
 3 C  s               1.9       2.0       0.0      95.1       0.0       0.0
 4 O  s               0.0       0.0       0.0       0.2      98.6       1.3
 4 O  py              0.0       0.0       0.0       0.1       0.0       0.0
 5 O  s               0.0       0.0       0.1       0.1       1.3      98.6
 6 C  s              47.6       4.0      29.2       0.6       0.0       0.0
 7 C  s              10.5       4.1       0.2       0.1       0.0       0.0



                      *****************************
                      * MAYER POPULATION ANALYSIS *
                      *****************************

  NA   - Mulliken gross atomic population
  ZA   - Total nuclear charge
  QA   - Mulliken gross atomic charge
  VA   - Mayer's total valence
  BVA  - Mayer's bonded valence
  FA   - Mayer's free valence

  ATOM       NA         ZA         QA         VA         BVA        FA
  0 C      6.4804     6.0000    -0.4804     3.8286     3.8286     0.0000
  1 C      6.2297     6.0000    -0.2297     3.6669     3.6669     0.0000
  2 C      6.3151     6.0000    -0.3151     3.7182     3.7182     0.0000
  3 C      5.6430     6.0000     0.3570     3.8316     3.8316     0.0000
  4 O      8.4239     8.0000    -0.4239     1.9447     1.9447    -0.0000
  5 O      8.1661     8.0000    -0.1661     1.8921     1.8921    -0.0000
  6 C      6.1489     6.0000    -0.1489     3.6443     3.6443     0.0000
  7 C      6.4427     6.0000    -0.4427     3.8514     3.8514     0.0000
  8 H      0.8509     1.0000     0.1491     0.9642     0.9642     0.0000
  9 H      0.8527     1.0000     0.1473     0.9616     0.9616     0.0000
 10 H      0.8448     1.0000     0.1552     0.9633     0.9633     0.0000
 11 H      0.8543     1.0000     0.1457     0.9593     0.9593     0.0000
 12 H      0.8477     1.0000     0.1523     0.9625     0.9625     0.0000
 13 H      0.8311     1.0000     0.1689     0.9616     0.9616     0.0000
 14 H      0.8416     1.0000     0.1584     0.9593     0.9593    -0.0000
 15 H      0.8237     1.0000     0.1763     0.9541     0.9541    -0.0000
 16 H      0.8545     1.0000     0.1455     0.9514     0.9514    -0.0000
 17 H      0.8483     1.0000     0.1517     0.9611     0.9611     0.0000
 18 H      0.8474     1.0000     0.1526     0.9616     0.9616    -0.0000
 19 H      0.8531     1.0000     0.1469     0.9641     0.9641     0.0000

  Mayer bond orders larger than 0.100000
B(  0-C ,  1-C ) :   0.9136 B(  0-C ,  8-H ) :   0.9780 B(  0-C ,  9-H ) :   0.9705 
B(  0-C , 10-H ) :   0.9706 B(  1-C ,  2-C ) :   0.8839 B(  1-C , 11-H ) :   0.9640 
B(  1-C , 12-H ) :   0.9736 B(  2-C ,  3-C ) :   0.9602 B(  2-C , 13-H ) :   1.0036 
B(  2-C , 14-H ) :   0.9455 B(  3-C ,  4-O ) :   1.8436 B(  3-C ,  5-O ) :   1.0526 
B(  5-O ,  6-C ) :   0.7883 B(  6-C ,  7-C ) :   0.9485 B(  6-C , 15-H ) :   0.9648 
B(  6-C , 16-H ) :   0.9449 B(  7-C , 17-H ) :   0.9689 B(  7-C , 18-H ) :   0.9748 
B(  7-C , 19-H ) :   0.9677 

-------
TIMINGS
-------

Total SCF time: 0 days 0 hours 0 min 27 sec 

Total time                  ....      27.682 sec
Sum of individual times     ....      27.156 sec  ( 98.1%)

SCF preparation             ....       0.217 sec  (  0.8%)
Fock matrix formation       ....      25.840 sec  ( 93.3%)
  Startup                   ....       0.067 sec  (  0.3% of F)
  Split-RI-J                ....       5.284 sec  ( 20.4% of F)
  XC integration            ....      19.838 sec  ( 76.8% of F)
    XC Preparation          ....       0.000 sec  (  0.0% of XC)
    Basis function eval.    ....       3.561 sec  ( 18.0% of XC)
    Density eval.           ....       5.980 sec  ( 30.1% of XC)
    XC-Functional eval.     ....       2.591 sec  ( 13.1% of XC)
    XC-Potential eval.      ....       6.624 sec  ( 33.4% of XC)
Diagonalization             ....       0.000 sec  (  0.0%)
Density matrix formation    ....       0.284 sec  (  1.0%)
Total Energy calculation    ....       0.040 sec  (  0.1%)
Population analysis         ....       0.141 sec  (  0.5%)
Orbital Transformation      ....       0.070 sec  (  0.3%)
Orbital Orthonormalization  ....       0.000 sec  (  0.0%)
DIIS solution               ....       0.498 sec  (  1.8%)
  MO trafo                  ....       0.000 sec  (  0.0 % of DIIS)
  Orb grad                  ....       0.000 sec  (  0.0 % of DIIS)
  Energy W gradient         ....       0.000 sec  (  0.0 % of DIIS)
  DIIS error                ....       0.030 sec  (  5.9 % of DIIS)
  DIIS work                 ....       0.407 sec  ( 81.8 % of DIIS)
  Form Q                    ....       0.000 sec  (  0.0 % of DIIS)
  Form QpQm                 ....       0.000 sec  (  0.0 % of DIIS)
  Exp/Cayley                ....       0.000 sec  (  0.0 % of DIIS)
  Orb update                ....       0.000 sec  (  0.0 % of DIIS)
  Wake-sleep                ....       0.024 sec  (  4.7 % of DIIS)
SOSCF solution              ....       0.067 sec  (  0.2%)
  MO trafo                  ....       0.050 sec  ( 73.7 % of SOSCF)
  Orb grad                  ....       0.001 sec  (  1.2 % of SOSCF)
  Rot update                ....       0.000 sec  (  0.1 % of SOSCF)
  Step                      ....       0.017 sec  ( 24.8 % of SOSCF)
Finished LeanSCF after  27.8 sec

Maximum memory used throughout the entire LEANSCF-calculation: 23.9 MB


-------------------------------------------------------------------------------
                          DFT DISPERSION CORRECTION                            
                                                                               
                                DFTD4 V3.4.0                                   
-------------------------------------------------------------------------------
The R2SCAN3C composite method is recognized
Using three-body term ABC
Active option DFTDOPT                   ...         5   

-------------------------   ----------------
Dispersion correction           -0.005095114
-------------------------   ----------------

------------------   -----------------
gCP correction             0.011702167
------------------   -----------------

-------------------------   --------------------
FINAL SINGLE POINT ENERGY      -386.235077486626
-------------------------   --------------------


------------------------------------------------------------------------------
                              ORCA PROPERTY CALCULATIONS
------------------------------------------------------------------------------

GBWName                                 ... sp_gas.gbw
Number of atoms                         ...     20
Number of basis functions               ...    222
Max core memory                         ...   1024 MB

Electric properties:
Dipole moment                           ... YES
Quadrupole moment                       ...  NO
Static polarizability (Dipole/Dipole)   ...  NO
Static polarizability (Dipole/Quad.)    ...  NO
Static polarizability (Quad./Quad.)     ...  NO
Static polarizability (Velocity)        ...  NO

Atomic electric properties:
Dipole moment                           ...  NO
Quadrupole moment                       ...  NO
Static polarizability                   ...  NO

Choice of electric origin               ... Center of mass
Position of electric origin             ...    -0.000008    -0.000019    -0.000001

General magnetic properties:
Magnetizability                         ...  NO

EPR properties:
g-Tensor (aka g-matrix)                 ...  NO
Zero-Field splitting spin-orbit         ...  NO
Zero-field splitting spin-spin          ...  NO
Hyperfine couplings                     ...  NO (   0 nuclei)
Quadrupole couplings                    ...  NO (   0 nuclei)
Contact density                         ...  NO (   0 nuclei)

NMR properties:
Chemical shifts                         ...  NO (   0 nuclei)
Spin-rotation constants                 ...  NO (   0 nuclei)
Spin-spin couplings                     ...  NO (   0 nuclei,    0 pairs)

Choice of magnetic origin               ... GIAO
Position of magnetic origin             ...     0.000000     0.000000     0.000000

Properties with geometric perturbations:
SCF Hessian                             ...  NO
IR spectrum                             ...  NO
VCD spectrum                            ...  NO
X-ray spectroscopy properties:
SCF XES/XAS/RIXS spectra                ...  NO


-------------
DIPOLE MOMENT
-------------

Method             : SCF
Type of density    : Electron Density
Multiplicity       :   1
Irrep              :   0
Energy             :  -386.2416845397617635 Eh
Relativity type    : 
Basis              : AO
                                X                 Y                 Z
Electronic contribution:      1.484014678       4.714856111      -0.719281882
Nuclear contribution   :     -1.309536049      -5.560978048       0.409841190
                        -----------------------------------------
Total Dipole Moment    :      0.174478629      -0.846121938      -0.309440692
                        -----------------------------------------
Magnitude (a.u.)       :      0.917670239
Magnitude (Debye)      :      2.332532377



--------------------
Rotational spectrum 
--------------------
 
Rotational constants in cm-1:             0.116571             0.036803             0.033364 
Rotational constants in MHz :          3494.711052          1103.316579          1000.233238 

Dipole components along the rotational axes: 
x,y,z [a.u.] :     0.230878    -0.864157     0.205051 
x,y,z [Debye]:     0.586845    -2.196514     0.521199 

 

Dipole moment calculation done in   0.0 sec 

Maximum memory used throughout the entire PROP-calculation: 13.8 MB

--------------------------------
SUGGESTED CITATIONS FOR THIS RUN
--------------------------------

Below you find a list of papers that are relevant to this ORCA run
We neither can nor want to force you to cite these papers, but we appreciate if you do
You receive ORCA, which is the product of decades of hard work by many enthusiastic individuals, for free
The only thing we kindly ask in return is that you cite our papers,
We deeply appreciate it, if you show your appreciation for ORCA by not just citing the generic ORCA reference.

Please note that relegating all ORCA citations to the supporting information does *not* help us.
SI sections are not indexed - citations you put there will not count into any citation statistics
But we need these citations in order to attract the funding resources that allow us to do what we are doing

Therefore, if you are a happy ORCA user, please consider citing a few of the papers listed below in the main body of your paper

In addition to the list printed below, the program has created the file sp_gas.bibtex that contains the list in bibtex format
You can import this file easily into all common literature databanks and citation aid programs


List of essential papers. We consider these as the minimum necessary citations

  1. Neese,F.
     Software update: the ORCA program system, version 5.0
     WIRES Comput. Molec. Sci., 2022 12(1)e1606
     doi.org/10.1002/wcms.1606
  2. Grimme,S.; Hansen,A.; Ehlert,S.; Mewes,J.
     r2SCAN-3c: A 'Swiss army knife' composite electronic-structure method
     J. Chem. Phys., 2021 154 064103
     doi.org/10.1063/5.0040021

List of papers to cite with high priority. The work reported in these papers was absolutely
necessary for this run to complete.
Our perspective: the developers of density functionals and basis sets usually get cited in chemistry papers
Good! But without the algorithms to do something with them, the functionals or basis sets would not do anything.
Hence, in our opinion, the algorithm design and method developments papers are equally worthy of getting cited

  1. Neese,F.
     An improvement of the resolution of the identity approximation for the formation of the Coulomb matrix
     J. Comp. Chem., 2003 24(14)1740-1747
     doi.org/10.1002/jcc.10318
  2. Neese,F.
     The SHARK Integral Generation and Digestion System
     J. Comp. Chem., 2022  1-16
     doi.org/10.1002/jcc.26942
  3. Lehtola,S.; Steigemann,C.; Oliveira,M.; Marques,M.
     Recent developments in Libxc - A comprehensive library of functionals for density functional theory
     Software X, 2018 7 
     doi.org/10.1016/j.softx.2017.11.002
  4. Caldeweyher,E.; Bannwarth,C.; Grimme,S.
     Extension of the D3 dispersion coefficient model
     J. Chem. Phys., 2017 147 034112-XXXX
     doi.org/10.1063/1.4993215
  5. Caldeweyher,E.; Ehlert,S.; Hansen,A.; Neugebauer,H.; Spicher,S.; Bannwarth,C.; Grimme,S.
     A generally applicable atomic-charge dependent London dispersion correction
     J. Chem. Phys., 2019 150 154122-XXXX
     doi.org/10.1063/1.5090222
  6. Caldeweyher,E.; Mewes,J.; Ehlert,S.; Grimme,S.
     Extension and evaluation of the D4 London-dispersion model for periodic systems
     Phys. Chem. Chem. Phys., 2020 22(16)8499-8512
     doi.org/10.1039/D0CP00502A

List of suggested additional citations. These are papers that are important in the 'surrounding' of 
of this run, or papers that preceded the highly important papers. If you like your results we are grateful for a citation.

  1. Neese,F.
     The ORCA program system
     WIRES Comput. Molec. Sci., 2012 2(1)73-78
     doi.org/10.1002/wcms.81
  2. Neese,F.
     Software update: the ORCA program system, version 4.0
     WIRES Comput. Molec. Sci., 2018 8(1)1-6
     doi.org/10.1002/wcms.1327
  3. Neese,F.; Wennmohs,F.; Becker,U.; Riplinger,C.
     The ORCA quantum chemistry program package
     J. Chem. Phys., 2020 152 Art. No. L224108
     doi.org/10.1063/5.0004608

List of optional additional citations

  1. Neese,F.
     Approximate second-order SCF convergence for spin unrestricted wavefunctions
     Chem. Phys. Lett., 2000 325(1-3)93-98
     doi.org/10.1016/s0009-2614(00)00662-x

Timings for individual modules:

Sum of individual times          ...       29.860 sec (=   0.498 min)
Startup calculation              ...        1.580 sec (=   0.026 min)   5.3 %
SCF iterations                   ...       28.162 sec (=   0.469 min)  94.3 %
Property calculations            ...        0.117 sec (=   0.002 min)   0.4 %
                             ****ORCA TERMINATED NORMALLY****
TOTAL RUN TIME: 0 days 0 hours 0 minutes 30 seconds 765 msec
