20
 energy: -386.242889643627 gnorm: 0.001749980504 xtb: 6.7.1 (edcfbbe)
C           -3.44409709164234       -0.99227917349971        0.31304352234943
C           -2.09599581526255       -0.35085807245384        0.62330536227537
C           -1.30933605734853       -0.04972247010465       -0.66605961624577
C            0.00161834516653        0.59393276850949       -0.32656783563396
O            0.15398283386464        1.78868116594223       -0.11874563098341
O            0.99984197624432       -0.30237352707270       -0.22036350649918
C            2.30063215583859        0.22653504573029        0.18885348652313
C            3.26150510660102       -0.93393463771983        0.25094300664023
H           -4.00057703061156       -1.19309100817835        1.23363817890098
H           -4.05448089276709       -0.33490018347538       -0.31514633174997
H           -3.31344563507868       -1.94123457839860       -0.21752814244365
H           -1.50147763387672       -1.01600620452249        1.26001911943786
H           -2.24251490656064        0.58308292281391        1.17754025274647
H           -1.87659234842693        0.64836396372316       -1.28799965605423
H           -1.14208168929499       -0.97444521839627       -1.22444504638110
H            2.61296773248987        0.97634030077451       -0.54430047262435
H            2.18215984637382        0.71085790534777        1.16249999853398
H            4.24003262012713       -0.56240947455917        0.56815884275959
H            2.92776714343087       -1.68383483036142        0.97405975741265
H            3.37488120591077       -1.40735174016748       -0.72819906257445
20
 energy: -386.242899154805 gnorm: 0.000621715987 xtb: 6.7.1 (edcfbbe)
C           -3.44405636643137       -0.99243562548784        0.31289086558444
C           -2.09627198068641       -0.35160967677360        0.62327457533938
C           -1.30824837431739       -0.05048532897077       -0.66531413068729
C            0.00147922969369        0.59584918045455       -0.32732796964256
O            0.15136399992596        1.79065555461718       -0.11835757302384
O            1.00143387662911       -0.29868930566499       -0.22145468187544
C            2.30312799782757        0.22896745552930        0.18963451118167
C            3.25993902749987       -0.93399598289464        0.25098642857408
H           -4.00062764699526       -1.19412843303320        1.23330919962906
H           -4.05513970258987       -0.33491627476139       -0.31463711037215
H           -3.31418607929158       -1.94118807282914       -0.21844915134052
H           -1.50202280870101       -1.01658857898645        1.26062147656348
H           -2.24250906605488        0.58242295917306        1.17762545938710
H           -1.87670240592523        0.64513414962053       -1.28963344824774
H           -1.13916949926988       -0.97602235164881       -1.22257543892767
H            2.61623443281169        0.97824705892345       -0.54334940276476
H            2.18441705291374        0.71332454040060        1.16351706612490
H            4.24168687064006       -0.56808788173901        0.56623836859067
H            2.92492727547395       -1.68283611314895        0.97424012151824
H            3.36911400482525       -1.40826404588964       -0.72853295151120
20
 energy: -386.242902054108 gnorm: 0.001080523395 xtb: 6.7.1 (edcfbbe)
C           -3.44361315367310       -0.99239605905363        0.31194860895421
C           -2.09635397011110       -0.35198590266889        0.62352476085976
C           -1.30680276526810       -0.05210039580937       -0.66444827678458
C            0.00069313704244        0.59733370357659       -0.32397082771873
O            0.14851228808050        1.79269138242032       -0.11630752231063
O            1.00274526332425       -0.29497809662945       -0.22175058921350
C            2.30558679978544        0.23205794729959        0.18969145067847
C            3.25771139773509       -0.93416713900579        0.25033514470910
H           -4.00008283298341       -1.19543843158148        1.23220080113170
H           -4.05521427117801       -0.33426027007131       -0.31451924393827
H           -3.31422976317004       -1.94063094238483       -0.22060314488888
H           -1.50294437179477       -1.01700625824984        1.26173708991746
H           -2.24260744185662        0.58221642952208        1.17771142102046
H           -1.87556195958306        0.64032827340730       -1.29230576123966
H           -1.13445346279988       -0.97865998229736       -1.21925923107848
H            2.61995034404248        0.98095906573898       -0.54308001406926
H            2.18662158090734        0.71636943860387        1.16366095662257
H            4.24280142227912       -0.57405445243103        0.56218173602822
H            2.92077639850090       -1.68074591760549        0.97505401465027
H            3.36125498694062       -1.41017886473741       -0.72909530268606
20
 energy: -386.242904106755 gnorm: 0.000543717890 xtb: 6.7.1 (edcfbbe)
C           -3.44355932041408       -0.99241646394809        0.31173593418817
C           -2.09622160428350       -0.35207907406502        0.62361903139684
C           -1.30615047244232       -0.05258137973955       -0.66407851694309
C            0.00123584823507        0.59813616834688       -0.32510375762603
O            0.14775721314041        1.79295655236573       -0.11330050721474
O            1.00309890012379       -0.29400445857393       -0.22266679003769
C            2.30586085539705        0.23277480512316        0.18952544442564
C            3.25703865403522       -0.93434384915923        0.25026944199291
H           -4.00007469418051       -1.19633752172166        1.23176373248783
H           -4.05498914128654       -0.33372483161523       -0.31426705762933
H           -3.31381144933052       -1.94009496299597       -0.22167234878274
H           -1.50314217567434       -1.01710255678939        1.26208652418166
H           -2.24262222073345        0.58224444019718        1.17749730800375
H           -1.87523559954522        0.63876708307167       -1.29255214019700
H           -1.13272832316375       -0.97943116197469       -1.21774331247520
H            2.62098479030053        0.98141326864978       -0.54335657322247
H            2.18661937801399        0.71732481776702        1.16321579291349
H            4.24280249007951       -0.57515023425565        0.56026445568619
H            2.91950766230406       -1.67957530526451        0.97624919136009
H            3.35841875248351       -1.41142166503984       -0.72877962373528
20
 energy: -386.242904106755 gnorm: 0.000543717890 xtb: 6.7.1 (edcfbbe)
C           -3.44355932041408       -0.99241646394809        0.31173593418817
C           -2.09622160428350       -0.35207907406502        0.62361903139684
C           -1.30615047244232       -0.05258137973955       -0.66407851694309
C            0.00123584823507        0.59813616834688       -0.32510375762603
O            0.14775721314041        1.79295655236573       -0.11330050721474
O            1.00309890012379       -0.29400445857393       -0.22266679003769
C            2.30586085539705        0.23277480512316        0.18952544442564
C            3.25703865403522       -0.93434384915923        0.25026944199291
H           -4.00007469418051       -1.19633752172166        1.23176373248783
H           -4.05498914128654       -0.33372483161523       -0.31426705762933
H           -3.31381144933052       -1.94009496299597       -0.22167234878274
H           -1.50314217567434       -1.01710255678939        1.26208652418166
H           -2.24262222073345        0.58224444019718        1.17749730800375
H           -1.87523559954522        0.63876708307167       -1.29255214019700
H           -1.13272832316375       -0.97943116197469       -1.21774331247520
H            2.62098479030053        0.98141326864978       -0.54335657322247
H            2.18661937801399        0.71732481776702        1.16321579291349
H            4.24280249007951       -0.57515023425565        0.56026445568619
H            2.91950766230406       -1.67957530526451        0.97624919136009
H            3.35841875248351       -1.41142166503984       -0.72877962373528
