20
 energy: -386.241829461228 gnorm: 0.001154840471 xtb: 6.7.1 (edcfbbe)
C           -3.38990908463284       -1.00616006904341        0.33448942812964
C           -1.87456391886982       -0.95549546887577        0.16292506917898
C           -1.39397756106793        0.48061849718466       -0.02909582610043
C            0.08926409611501        0.69711175556491       -0.14914510294748
O            0.62171905253948        1.79030913020159       -0.02257490970633
O            0.76450398787023       -0.42543115070499       -0.44303506519408
C            2.21721177929418       -0.31667623425249       -0.58178553866067
C            2.88972633827569       -0.37816260883203        0.77027607022135
H           -3.70708888949014       -0.41939633513547        1.20358752478210
H           -3.89822002156919       -0.60009100329345       -0.54718889027845
H           -3.73608148997013       -2.03412641065671        0.47858805561268
H           -1.57885495400248       -1.56455619231380       -0.69731178465900
H           -1.38551429192763       -1.38828533903016        1.04318378904843
H           -1.73356035330003        1.11846018744801        0.79472496057136
H           -1.83312506828168        0.90899391564146       -0.94139935580262
H            2.48600555139254       -1.17386362150823       -1.20189486685279
H            2.45275923511646        0.60492480500598       -1.11954773941767
H            3.97505789609109       -0.35757327922527        0.63005663614235
H            2.60814855598993        0.47385948550090        1.39474988443681
H            2.62852077199751       -1.30380716974128        1.29150726289330
20
 energy: -386.241830518361 gnorm: 0.001073810560 xtb: 6.7.1 (edcfbbe)
C           -3.38992436218527       -1.00667088492192        0.33453485812014
C           -1.87458337294820       -0.95457598289813        0.16293837134278
C           -1.39442723731683        0.48164312877094       -0.02907102049121
C            0.08859603774573        0.69808019084153       -0.15191133554376
O            0.62238669472199        1.79028794600163       -0.02189270321868
O            0.76367356034489       -0.42572607205405       -0.44384476046747
C            2.21729617227192       -0.31731359691832       -0.58109155646725
C            2.89012131625360       -0.37806058851989        0.77049106527490
H           -3.70797067196217       -0.42158195310348        1.20441460889074
H           -3.89888795884112       -0.60032185869523       -0.54647321720817
H           -3.73461976144933       -2.03541552184358        0.47705186426062
H           -1.57885767247913       -1.56337102148112       -0.69748207112782
H           -1.38520754724664       -1.38731871725866        1.04296859566279
H           -1.73386146073404        1.11930890699675        0.79486578809966
H           -1.83388843052924        0.91027628252582       -0.94097775950610
H            2.48571441240242       -1.17515099787381       -1.20050121221950
H            2.45252711521982        0.60393181514873       -1.11953745312642
H            3.97544949602206       -0.35855146339792        0.62978048693976
H            2.60970536217391        0.47448656288057        1.39477068127568
H            2.62877984606791       -1.30330326767000        1.29207641977403
20
 energy: -386.241832632205 gnorm: 0.000274150548 xtb: 6.7.1 (edcfbbe)
C           -3.38997850536954       -1.00709374455793        0.33434869585677
C           -1.87464908703521       -0.95381825898072        0.16288794366707
C           -1.39474006080827        0.48245076533479       -0.02913792163367
C            0.08859604375396        0.69820655202213       -0.14982299830156
O            0.62280778169896        1.79039269468644       -0.02195498765405
O            0.76319254126019       -0.42605213922467       -0.44302641511840
C            2.21731343269515       -0.31768694210218       -0.58102379394249
C            2.89031820599675       -0.37800711475936        0.77031510425904
H           -3.70873222708803       -0.42347616712801        1.20495202613826
H           -3.89933656691203       -0.60035257025409       -0.54618532070127
H           -3.73350048955263       -2.03645007978775        0.47556741409638
H           -1.57849527484144       -1.56256739177901       -0.69742049430798
H           -1.38526880416447       -1.38628103426080        1.04302810184433
H           -1.73469503879306        1.12052828260790        0.79421772418379
H           -1.83360214378529        0.91075567787670       -0.94149459505836
H            2.48512579695683       -1.17601003154058       -1.20003217391717
H            2.45202861970789        0.60333565744120       -1.12000560209664
H            3.97559717424033       -0.35947139596443        0.62888676144097
H            2.61115323350762        0.47506295777808        1.39444087248597
H            2.62888670638132       -1.30281288644985        1.29256942477512
20
 energy: -386.241832632205 gnorm: 0.000274150548 xtb: 6.7.1 (edcfbbe)
C           -3.38997850536954       -1.00709374455793        0.33434869585677
C           -1.87464908703521       -0.95381825898072        0.16288794366707
C           -1.39474006080827        0.48245076533479       -0.02913792163367
C            0.08859604375396        0.69820655202213       -0.14982299830156
O            0.62280778169896        1.79039269468644       -0.02195498765405
O            0.76319254126019       -0.42605213922467       -0.44302641511840
C            2.21731343269515       -0.31768694210218       -0.58102379394249
C            2.89031820599675       -0.37800711475936        0.77031510425904
H           -3.70873222708803       -0.42347616712801        1.20495202613826
H           -3.89933656691203       -0.60035257025409       -0.54618532070127
H           -3.73350048955263       -2.03645007978775        0.47556741409638
H           -1.57849527484144       -1.56256739177901       -0.69742049430798
H           -1.38526880416447       -1.38628103426080        1.04302810184433
H           -1.73469503879306        1.12052828260790        0.79421772418379
H           -1.83360214378529        0.91075567787670       -0.94149459505836
H            2.48512579695683       -1.17601003154058       -1.20003217391717
H            2.45202861970789        0.60333565744120       -1.12000560209664
H            3.97559717424033       -0.35947139596443        0.62888676144097
H            2.61115323350762        0.47506295777808        1.39444087248597
H            2.62888670638132       -1.30281288644985        1.29256942477512
