      -----------------------------------------------------------      
     |                   =====================                   |     
     |                           x T B                           |     
     |                   =====================                   |     
     |                         S. Grimme                         |     
     |          Mulliken Center for Theoretical Chemistry        |     
     |                    University of Bonn                     |     
      -----------------------------------------------------------      

   * xtb version 6.7.1 (edcfbbe) compiled by 'albert@albert-system' on 2024-07-22

   xtb is free software: you can redistribute it and/or modify it under
   the terms of the GNU Lesser General Public License as published by
   the Free Software Foundation, either version 3 of the License, or
   (at your option) any later version.
   
   xtb is distributed in the hope that it will be useful,
   but WITHOUT ANY WARRANTY; without even the implied warranty of
   MERCHANTABILITY or FITNESS FOR A PARTICULAR PURPOSE.  See the
   GNU Lesser General Public License for more details.
   
   Cite this work as:
   * C. Bannwarth, E. Caldeweyher, S. Ehlert, A. Hansen, P. Pracht,
     J. Seibert, S. Spicher, S. Grimme, WIREs Comput. Mol. Sci., 2020, 11,
     e01493. DOI: 10.1002/wcms.1493
   
   for GFN2-xTB:
   * C. Bannwarth, S. Ehlert and S. Grimme., J. Chem. Theory Comput., 2019,
     15, 1652-1671. DOI: 10.1021/acs.jctc.8b01176
   for GFN1-xTB:
   * S. Grimme, C. Bannwarth, P. Shushkov, J. Chem. Theory Comput., 2017,
     13, 1989-2009. DOI: 10.1021/acs.jctc.7b00118
   for GFN0-xTB:
   * P. Pracht, E. Caldeweyher, S. Ehlert, S. Grimme, ChemRxiv, 2019, preprint.
     DOI: 10.26434/chemrxiv.8326202.v1
   for GFN-FF:
   * S. Spicher and S. Grimme, Angew. Chem. Int. Ed., 2020, 59, 15665-15673.
     DOI: 10.1002/anie.202004239
   
   for ALPB and GBSA implicit solvation:
   * S. Ehlert, M. Stahn, S. Spicher, S. Grimme, J. Chem. Theory Comput.,
     2021, 17, 4250-4261. DOI: 10.1021/acs.jctc.1c00471
   
   for ddCOSMO and CPCM-X implicit solvation:
   * M. Stahn, S. Ehlert, S. Grimme, J. Phys. Chem. A,
     2023, XX, XXXX-XXXX. DOI: 10.1021/acs.jpca.3c04382
   
   for DFT-D4:
   * E. Caldeweyher, C. Bannwarth and S. Grimme, J. Chem. Phys., 2017,
     147, 034112. DOI: 10.1063/1.4993215
   * E. Caldeweyher, S. Ehlert, A. Hansen, H. Neugebauer, S. Spicher,
     C. Bannwarth and S. Grimme, J. Chem. Phys., 2019, 150, 154122.
     DOI: 10.1063/1.5090222
   * E. Caldeweyher, J.-M. Mewes, S. Ehlert and S. Grimme, Phys. Chem. Chem. Phys.
     2020, 22, 8499-8512. DOI: 10.1039/D0CP00502A
   
   for sTDA-xTB:
   * S. Grimme and C. Bannwarth, J. Chem. Phys., 2016, 145, 054103.
     DOI: 10.1063/1.4959605
   
   in the mass-spec context:
   * V. Asgeirsson, C. Bauer and S. Grimme, Chem. Sci., 2017, 8, 4879.
     DOI: 10.1039/c7sc00601b
   * J. Koopman and S. Grimme, ACS Omega 2019, 4, 12, 15120-15133.
     DOI: 10.1021/acsomega.9b02011
   
   for metadynamics refer to:
   * S. Grimme, J. Chem. Theory Comput., 2019, 155, 2847-2862
     DOI: 10.1021/acs.jctc.9b00143
   
   for SPH calculations refer to:
   * S. Spicher and S. Grimme, J. Chem. Theory Comput., 2021, 17, 1701-1714
     DOI: 10.1021/acs.jctc.0c01306
   
   for ONIOM refer to:
   * C. Plett, A. Katbashev, S. Ehlert, S. Grimme, M. Bursch,
     Phys. Chem. Chem. Phys., 2023, 25, 17860-17868. DOI: 10.1039/D3CP02178E
   
   for DIPRO refer to:
   * J. Kohn, N. Gildemeister, S. Grimme, D. Fazzi, A. Hansen,
     J. Chem. Phys., 2023, just accepted.
   
   for PTB refer to:
   * S. Grimme, M. Mueller, A. Hansen, J. Chem. Phys., 2023, 158, 124111.
     DOI: 10.1063/5.0137838
   
   with help from (in alphabetical order)
   P. Atkinson, C. Bannwarth, F. Bohle, G. Brandenburg, E. Caldeweyher
   M. Checinski, S. Dohm, S. Ehlert, S. Ehrlich, I. Gerasimov, C. Hölzer
   A. Katbashev, J. Kohn, J. Koopman, C. Lavigne, S. Lehtola, F. März, M. Müller,
   F. Musil, H. Neugebauer, J. Pisarek, C. Plett, P. Pracht, F. Pultar,
   J. Seibert, P. Shushkov, S. Spicher, M. Stahn, M. Steiner, T. Strunk,
   J. Stückrath, T. Rose, and J. Unsleber
   
 * started run on 2025/04/11 at 12:27:11.005     
   ID    Z sym.   atoms
    1    6 C      1-3
    2    7 N      4
    3    8 O      5, 6
    4    1 H      7-13

           -------------------------------------------------
          |                Calculation Setup                |
           -------------------------------------------------

          program call               : /srv/scratch/z5358697/.xtb/bin/xtb gas.coord --gfn2 --sp --chrg 0 --norestart --parallel 1
          hostname                   : k061
          coordinate file            : gas.coord
          omp threads                :                     1


           -------------------------------------------------
          |                 G F N 2 - x T B                 |
           -------------------------------------------------

        Reference                      10.1021/acs.jctc.8b01176
      * Hamiltonian:
        H0-scaling (s, p, d)           1.850000    2.230000    2.230000
        zeta-weighting                 0.500000
      * Dispersion:
        s8                             2.700000
        a1                             0.520000
        a2                             5.000000
        s9                             5.000000
      * Repulsion:
        kExp                           1.500000    1.000000
        rExp                           1.000000
      * Coulomb:
        alpha                          2.000000
        third order                    shell-resolved
        anisotropic                    true
        a3                             3.000000
        a5                             4.000000
        cn-shift                       1.200000
        cn-exp                         4.000000
        max-rad                        5.000000


          ...................................................
          :                      SETUP                      :
          :.................................................:
          :  # basis functions                  31          :
          :  # atomic orbitals                  31          :
          :  # shells                           19          :
          :  # electrons                        36          :
          :  max. iterations                   250          :
          :  Hamiltonian                  GFN2-xTB          :
          :  restarted?                      false          :
          :  GBSA solvation                  false          :
          :  PC potential                    false          :
          :  electronic temp.          300.0000000     K    :
          :  accuracy                    1.0000000          :
          :  -> integral cutoff          0.2500000E+02      :
          :  -> integral neglect         0.1000000E-07      :
          :  -> SCF convergence          0.1000000E-05 Eh   :
          :  -> wf. convergence          0.1000000E-03 e    :
          :  Broyden damping             0.4000000          :
          :  net charge                          0          :
          :  unpaired electrons                  0          :
          ...................................................

 iter      E             dE          RMSdq      gap      omega  full diag
   1    -21.0070725 -0.210071E+02  0.519E+00    5.18       0.0  T
   2    -21.1432424 -0.136170E+00  0.215E+00    3.78       1.0  T
   3    -21.1446580 -0.141554E-02  0.129E+00    3.68       1.0  T
   4    -21.1449982 -0.340229E-03  0.159E-01    3.61       1.0  T
   5    -21.1450748 -0.765645E-04  0.860E-02    3.61       1.0  T
   6    -21.1450790 -0.418925E-05  0.239E-02    3.61       1.2  T
   7    -21.1450805 -0.156423E-05  0.109E-02    3.61       2.5  T
   8    -21.1450807 -0.216761E-06  0.244E-03    3.61      11.4  T
   9    -21.1450808 -0.170801E-07  0.104E-03    3.61      26.6  T
  10    -21.1450808 -0.994419E-09  0.337E-04    3.61      82.4  T
  11    -21.1450808 -0.115957E-09  0.666E-05    3.61     416.7  T

   *** convergence criteria satisfied after 11 iterations ***

         #    Occupation            Energy/Eh            Energy/eV
      -------------------------------------------------------------
         1        2.0000           -0.7790634             -21.1994
       ...           ...                  ...                  ...
        12        2.0000           -0.5028270             -13.6826
        13        2.0000           -0.4981326             -13.5549
        14        2.0000           -0.4774680             -12.9926
        15        2.0000           -0.4736817             -12.8895
        16        2.0000           -0.4611602             -12.5488
        17        2.0000           -0.4560408             -12.4095
        18        2.0000           -0.4446106             -12.0985 (HOMO)
        19                         -0.3119420              -8.4884 (LUMO)
        20                         -0.0270132              -0.7351
        21                          0.0707528               1.9253
        22                          0.1034981               2.8163
        23                          0.1051587               2.8615
       ...                                ...                  ...
        31                          0.4214468              11.4682
      -------------------------------------------------------------
                  HL-Gap            0.1326686 Eh            3.6101 eV
             Fermi-level           -0.3782763 Eh          -10.2934 eV

 SCC (total)                   0 d,  0 h,  0 min,  0.022 sec
 SCC setup                      ...        0 min,  0.000 sec (  1.143%)
 Dispersion                     ...        0 min,  0.000 sec (  0.358%)
 classical contributions        ...        0 min,  0.000 sec (  0.098%)
 integral evaluation            ...        0 min,  0.001 sec (  6.548%)
 iterations                     ...        0 min,  0.017 sec ( 76.319%)
 molecular gradient             ...        0 min,  0.003 sec ( 14.812%)
 printout                       ...        0 min,  0.000 sec (  0.635%)

         :::::::::::::::::::::::::::::::::::::::::::::::::::::
         ::                     SUMMARY                     ::
         :::::::::::::::::::::::::::::::::::::::::::::::::::::
         :: total energy             -20.953656982593 Eh    ::
         :: gradient norm              0.024462205089 Eh/a0 ::
         :: HOMO-LUMO gap              3.610095770020 eV    ::
         ::.................................................::
         :: SCC energy               -21.145076508151 Eh    ::
         :: -> isotropic ES            0.049323453204 Eh    ::
         :: -> anisotropic ES          0.009404131861 Eh    ::
         :: -> anisotropic XC          0.001550897155 Eh    ::
         :: -> dispersion             -0.006468780225 Eh    ::
         :: repulsion energy           0.191419525558 Eh    ::
         :: add. restraining           0.000000000000 Eh    ::
         :: total charge              -0.000000000000 e     ::
         :::::::::::::::::::::::::::::::::::::::::::::::::::::

           -------------------------------------------------
          |                Property Printout                |
           -------------------------------------------------

    * Orbital Energies and Occupations

         #    Occupation            Energy/Eh            Energy/eV
      -------------------------------------------------------------
         1        2.0000           -0.7790634             -21.1994
       ...           ...                  ...                  ...
         6        2.0000           -0.6268344             -17.0570
         7        2.0000           -0.6011399             -16.3578
         8        2.0000           -0.5981577             -16.2767
         9        2.0000           -0.5857033             -15.9378
        10        2.0000           -0.5496285             -14.9562
        11        2.0000           -0.5220051             -14.2045
        12        2.0000           -0.5028270             -13.6826
        13        2.0000           -0.4981326             -13.5549
        14        2.0000           -0.4774680             -12.9926
        15        2.0000           -0.4736817             -12.8895
        16        2.0000           -0.4611602             -12.5488
        17        2.0000           -0.4560408             -12.4095
        18        2.0000           -0.4446106             -12.0985 (HOMO)
        19                         -0.3119420              -8.4884 (LUMO)
        20                         -0.0270132              -0.7351
        21                          0.0707528               1.9253
        22                          0.1034981               2.8163
        23                          0.1051587               2.8615
        24                          0.1242398               3.3807
        25                          0.1527289               4.1560
        26                          0.1818692               4.9489
        27                          0.1906589               5.1881
        28                          0.2329802               6.3397
        29                          0.2474735               6.7341
       ...                                ...                  ...
        31                          0.4214468              11.4682
      -------------------------------------------------------------
                  HL-Gap            0.1326686 Eh            3.6101 eV
             Fermi-level           -0.3782763 Eh          -10.2934 eV

     #   Z          covCN         q      C6AA      α(0)
     1   6 C        3.753    -0.111    22.691     6.793
     2   6 C        3.801    -0.057    21.607     6.618
     3   6 C        3.741    -0.067    21.869     6.672
     4   7 N        2.755     0.547    13.513     5.460
     5   8 O        0.928    -0.376    21.168     6.170
     6   8 O        0.928    -0.378    21.218     6.177
     7   1 H        0.925     0.052     2.293     2.368
     8   1 H        0.925     0.045     2.385     2.415
     9   1 H        0.925     0.045     2.384     2.415
    10   1 H        0.924     0.052     2.300     2.372
    11   1 H        0.924     0.069     2.097     2.264
    12   1 H        0.924     0.088     1.903     2.157
    13   1 H        0.924     0.093     1.848     2.126

 Mol. C6AA /au·bohr⁶  :       1382.480840
 Mol. C8AA /au·bohr⁸  :      28849.361475
 Mol. α(0) /au        :         54.007408


Wiberg/Mayer (AO) data.
largest (>0.10) Wiberg bond orders for each atom

 ---------------------------------------------------------------------------
     #   Z sym  total        # sym  WBO       # sym  WBO       # sym  WBO
 ---------------------------------------------------------------------------
     1   6 C    3.994 --     2 C    1.018     8 H    0.987     9 H    0.987
                             7 H    0.985
     2   6 C    3.987 --     1 C    1.018     3 C    0.991    10 H    0.977
                            11 H    0.972
     3   6 C    3.962 --     2 C    0.991    12 H    0.970    13 H    0.942
                             4 N    0.936
     4   7 N    3.911 --     5 O    1.476     6 O    1.475     3 C    0.936
     5   8 O    1.944 --     4 N    1.476     6 O    0.375
     6   8 O    1.940 --     4 N    1.475     5 O    0.375
     7   1 H    0.996 --     1 C    0.985
     8   1 H    0.998 --     1 C    0.987
     9   1 H    0.998 --     1 C    0.987
    10   1 H    0.997 --     2 C    0.977
    11   1 H    0.995 --     2 C    0.972
    12   1 H    0.992 --     3 C    0.970
    13   1 H    0.991 --     3 C    0.942
 ---------------------------------------------------------------------------

Topologies differ in total number of bonds
Writing topology from bond orders to xtbtopo.mol

molecular dipole:
                 x           y           z       tot (Debye)
 q only:       -1.675      -0.150      -0.331
   full:       -1.732      -0.205      -0.392       4.544
molecular quadrupole (traceless):
                xx          xy          yy          xz          yz          zz
 q only:       -2.396       0.354      -0.861      -0.783       0.793       3.257
  q+dip:       -4.216       0.855      -1.384      -1.327       0.453       5.600
   full:       -3.970       0.708      -1.721      -1.450       0.696       5.692


           -------------------------------------------------
          | TOTAL ENERGY              -20.953656982593 Eh   |
          | GRADIENT NORM               0.024462205089 Eh/α |
          | HOMO-LUMO GAP               3.610095770020 eV   |
           -------------------------------------------------

------------------------------------------------------------------------
 * finished run on 2025/04/11 at 12:27:11.058     
------------------------------------------------------------------------
 total:
 * wall-time:     0 d,  0 h,  0 min,  0.052 sec
 *  cpu-time:     0 d,  0 h,  0 min,  0.023 sec
 * ratio c/w:     0.443 speedup
 SCF:
 * wall-time:     0 d,  0 h,  0 min,  0.023 sec
 *  cpu-time:     0 d,  0 h,  0 min,  0.013 sec
 * ratio c/w:     0.580 speedup

