20
 energy: -27.121334795863 gnorm: 0.037475954143 xtb: 6.7.1 (edcfbbe)
C           -3.50143044580184       -0.92050968040062        0.20798630588020
C           -2.18375406230771       -0.22148334598715        0.52507921891195
C           -1.26861755428969       -0.17628391759148       -0.71159408827911
C            0.02124176887254        0.52020147126968       -0.39058258579390
O            0.12478010653799        1.72109843486501       -0.20384872775501
O            1.06025544832315       -0.33915422191788       -0.29547832637311
C            2.36516841664499        0.24342261928198        0.05661410276866
C            3.23807922919354       -0.86565710166103        0.59359966678877
H           -4.04327305471568       -0.39209269684308       -0.58237168859851
H           -3.32624400828427       -1.94652677024907       -0.12945884466371
H           -4.14300380380058       -0.95966196500766        1.09223236774507
H           -1.66822472749467       -0.74444857413406        1.33821233456874
H           -2.37318172446755        0.80263221501627        0.86443441513383
H           -1.76416554727156        0.39620620951176       -1.50175545234557
H           -1.07144665257257       -1.18739490167683       -1.07305158132991
H            2.77835419133210        0.68706773177300       -0.85503407418561
H            2.20409931772505        1.02962155994437        0.79892630230806
H            2.81743783144172       -1.28433773412262        1.51255646019483
H            3.36571410333219       -1.66614027549224       -0.14043506553886
H            4.22283751852895       -0.45102094587488        0.82401395397357
20
 energy: -27.122655260283 gnorm: 0.016031928963 xtb: 6.7.1 (edcfbbe)
C           -3.49472385209556       -0.91931416207125        0.20572324790508
C           -2.17872350892587       -0.22274915238876        0.52212405404766
C           -1.26471828767759       -0.17849917589933       -0.71219503798315
C            0.02141558753443        0.52234975902837       -0.37979355702810
O            0.12695190592748        1.71794751756555       -0.19979574096811
O            1.05268296973343       -0.32321229343770       -0.28568746167146
C            2.35209630457247        0.23823895581511        0.05648096437786
C            3.23596396038288       -0.86533864994618        0.59404525370852
H           -4.03110158298052       -0.38933719087674       -0.57969405745914
H           -3.31815113301767       -1.94063448641160       -0.12777497562040
H           -4.12741266133433       -0.95218491954811        1.09044924188094
H           -1.66603816038528       -0.75057865394118        1.33010978779481
H           -2.36756097377582        0.79976084988313        0.85847726445382
H           -1.76234921298846        0.38834697928863       -1.50239802933364
H           -1.05271767014283       -1.18901855640171       -1.06128640098969
H            2.76348664255943        0.68115417298885       -0.85455453024627
H            2.19015262052362        1.02919439178821        0.79281169188205
H            2.81011297610641       -1.28645638924956        1.50208737628189
H            3.34715210661389       -1.65810247853085       -0.14196793243805
H            4.21810832029601       -0.45602840695145        0.82288353481576
20
 energy: -27.122981478478 gnorm: 0.004991359282 xtb: 6.7.1 (edcfbbe)
C           -3.48875671073492       -0.91835390652500        0.20556000854715
C           -2.16990633928371       -0.22631228697347        0.52146632372038
C           -1.25799298454637       -0.18270125495720       -0.71304127751081
C            0.02557872778332        0.52734582689079       -0.38119656440498
O            0.12662658198949        1.72185032755156       -0.19511361195444
O            1.04877472353777       -0.30913878228446       -0.27949848231133
C            2.33908705491907        0.24023340438195        0.05822777307867
C            3.22322084935609       -0.86841041601579        0.59266713448614
H           -4.02062078111604       -0.38622338784887       -0.57776301308064
H           -3.31287941548955       -1.93729903030339       -0.12648502728008
H           -4.11700828127611       -0.94679089839561        1.09070485406589
H           -1.65880201871608       -0.75798213596822        1.32591797770343
H           -2.35545221050074        0.79560915623676        0.85698300133896
H           -1.75923129625009        0.37609506948541       -1.50436321263896
H           -1.03204303213712       -1.19243739311229       -1.05242469815714
H            2.75664712526067        0.68187213877673       -0.85090040102721
H            2.18591228782155        1.03607352353584        0.79304784937262
H            2.79406748359917       -1.29154156143115        1.49505126786550
H            3.32433842439483       -1.65427181476885       -0.14871477401922
H            4.20306616231490       -0.46207846757134        0.81991956561646
20
 energy: -27.123030936919 gnorm: 0.001961546465 xtb: 6.7.1 (edcfbbe)
C           -3.48664398498838       -0.91807869209320        0.20607272195601
C           -2.16588557824325       -0.22809016453733        0.52160731634174
C           -1.25553723302953       -0.18524724334578       -0.71384412706894
C            0.02487644149982        0.53077743460079       -0.37888647581422
O            0.12135943671171        1.72794269974528       -0.19814773391668
O            1.04866733125136       -0.30229748072583       -0.27798107677978
C            2.33650809133326        0.24403569035347        0.05889935316432
C            3.21632741245285       -0.87054443986621        0.59111782040688
H           -4.01735020826321       -0.38444296355866       -0.57736595685458
H           -3.31233801822071       -1.93751858713998       -0.12617894419031
H           -4.11447712634746       -0.94508691194272        1.09181296769021
H           -1.65477363960465       -0.76151459832133        1.32500031965600
H           -2.34871643839432        0.79401299634351        0.85829484478918
H           -1.75822892701433        0.36725416237050       -1.50841403407299
H           -1.02238130954681       -1.19502519701550       -1.04824800873168
H            2.75870047353631        0.68713309768272       -0.84824817526542
H            2.18990139001130        1.03976321092494        0.79626870430276
H            2.78374724837778       -1.29465103157956        1.49189048930696
H            3.31340329911758       -1.65407978063744       -0.15377065897733
H            4.19746769028679       -0.46880409055427        0.82016534746827
20
 energy: -27.123053530119 gnorm: 0.003262800974 xtb: 6.7.1 (edcfbbe)
C           -3.48385367872415       -0.91757916822322        0.20863968408754
C           -2.15944278625110       -0.23209953626878        0.52216969024932
C           -1.25217925782507       -0.18845405486158       -0.71543218778631
C            0.02433531165017        0.53902433772375       -0.38693754426865
O            0.11036718706150        1.73838012696399       -0.20519591895319
O            1.05046006336020       -0.29017606151278       -0.28104172704884
C            2.33565098140925        0.25154516424988        0.06191766317168
C            3.20635606477132       -0.87411379933051        0.58928393202936
H           -4.01372799692781       -0.38133837368908       -0.57471840128236
H           -3.31335786242559       -1.93806430000949       -0.12514974896741
H           -4.11178056844105       -0.94346787732818        1.09517174717837
H           -1.64739858228779       -0.76892224087318        1.32327793991534
H           -2.33784539587118        0.79004114325826        0.86240733478134
H           -1.76066081705429        0.35336178649538       -1.51355421625107
H           -1.00955134106224       -1.19797695552624       -1.04400417088687
H            2.76587855997285        0.69888276622100       -0.84056441006704
H            2.19588320107653        1.04447157945118        0.80461697167256
H            2.76626247664830       -1.30094182979916        1.48629311892278
H            3.29815159061261       -1.65364736481782       -0.16163546694538
H            4.19107920123365       -0.48338723142004        0.82450040385919
20
 energy: -27.123061054639 gnorm: 0.001668520029 xtb: 6.7.1 (edcfbbe)
C           -3.48353942133397       -0.91723531322077        0.20893161971487
C           -2.15913585596709       -0.23233243037307        0.52204978653149
C           -1.25222078102118       -0.18863971684139       -0.71580050622155
C            0.02371377295036        0.53918341507791       -0.38675723646944
O            0.11015550336528        1.73818237074477       -0.20703605339150
O            1.05084494989929       -0.28989162882402       -0.28240443296352
C            2.33660870463677        0.25225204503005        0.06219766398004
C            3.20618422812745       -0.87401334482743        0.58911718815855
H           -4.01405093939945       -0.38090176775760       -0.57383063398843
H           -3.31382885484696       -1.93771867247865       -0.12507183781080
H           -4.11094132950544       -0.94324765149242        1.09575318615699
H           -1.64692007336504       -0.76969440127938        1.32269367027741
H           -2.33720439046799        0.78963700263463        0.86299999497401
H           -1.76117510609015        0.35289406253989       -1.51384683565182
H           -1.00987732026819       -1.19819436243514       -1.04444111056362
H            2.76678615556189        0.70079684356189       -0.83943003654793
H            2.19443881766454        1.04347089437481        0.80582288467558
H            2.76519979050175       -1.30139323937142        1.48527545530010
H            3.29856816399491       -1.65301958867752       -0.16203501339707
H            4.19102033648932       -0.48459640568177        0.82585694064701
20
 energy: -27.123065490138 gnorm: 0.001214581330 xtb: 6.7.1 (edcfbbe)
C           -3.48228327963765       -0.91628083677953        0.21028640748449
C           -2.15699486889397       -0.23371435057883        0.52169406724179
C           -1.25189495354641       -0.18933496764719       -0.71751383485981
C            0.02306868599454        0.54003331211057       -0.38979991770180
O            0.11013505965034        1.73788797556994       -0.21074322402881
O            1.05130352269980       -0.28877634706716       -0.28655070596142
C            2.33725994312175        0.25383511435682        0.06379626951698
C            3.20468576335311       -0.87391779689041        0.58905509121863
H           -4.01394418209847       -0.37877048018468       -0.57049092895598
H           -3.31495629661796       -1.93650933642352       -0.12478596690752
H           -4.10768333079115       -0.94224003459151        1.09825099012445
H           -1.64411024458158       -0.77295330992944        1.32051512388138
H           -2.33337154339457        0.78785211987290        0.86448704454992
H           -1.76299176022627        0.35149491828877       -1.51460593224121
H           -1.00949443979842       -1.19875447056826       -1.04624355161720
H            2.76827654070168        0.70584213368259       -0.83501888874768
H            2.18925461123978        1.04113331799617        0.80975452253419
H            2.76087003746153       -1.30379621242464        1.48216262980537
H            3.29817168387776       -1.65031123351075       -0.16412662788691
H            4.18932540241225       -0.48718140457847        0.82992212596152
20
 energy: -27.123067208780 gnorm: 0.000448396356 xtb: 6.7.1 (edcfbbe)
C           -3.48187404167440       -0.91597972668991        0.21096380121749
C           -2.15568687534372       -0.23435715331295        0.52150012685170
C           -1.25167155594931       -0.18973725799734       -0.71854555738265
C            0.02309634086855        0.54024421677037       -0.39109152873522
O            0.10972986154538        1.73843946724616       -0.21171067716357
O            1.05118158860966       -0.28829735928843       -0.28713169309460
C            2.33635254725383        0.25430732983800        0.06456488302678
C            3.20358197550977       -0.87417118578591        0.58906478579337
H           -4.01366692975442       -0.37756590744439       -0.56916931006756
H           -3.31538978635468       -1.93616238046189       -0.12480352752166
H           -4.10650273045909       -0.94187177792297        1.09953317204286
H           -1.64231911287787       -0.77431498449801        1.31952847553165
H           -2.33101056599285        0.78718883473821        0.86492727467494
H           -1.76353146508856        0.35061906467595       -1.51545529096448
H           -1.00842400790072       -1.19901329325352       -1.04708431688323
H            2.76824974925192        0.70752594336930       -0.83331046747062
H            2.18811708570734        1.04100578016137        0.81131609051088
H            2.75897304603363       -1.30540408771603        1.48120626279215
H            3.29746948406713       -1.64941076174188       -0.16538737177388
H            4.18795174347452       -0.48750664998276        0.83112956202603
20
 energy: -27.123068637155 gnorm: 0.000240122639 xtb: 6.7.1 (edcfbbe)
C           -3.48135313282482       -0.91550130417624        0.21212406758447
C           -2.15398172490166       -0.23509292467574        0.52102868414073
C           -1.25180019996857       -0.18989805539967       -0.72042547719674
C            0.02306908599673        0.54003510879926       -0.39338113404990
O            0.10966638347972        1.73850388164465       -0.21380441827071
O            1.05083195202120       -0.28847660153686       -0.28789975345415
C            2.33502512140333        0.25444034299631        0.06595549694706
C            3.20275304500663       -0.87434575428237        0.58923801506525
H           -4.01389476957819       -0.37586831601294       -0.56671444003802
H           -3.31609931632665       -1.93552524799884       -0.12485043201074
H           -4.10449485267085       -0.94165209738922        1.10177522117392
H           -1.63966855656457       -0.77604835339199        1.31776845821141
H           -2.32794480078373        0.78634413129960        0.86549033601351
H           -1.76469768560787        0.35063382636627       -1.51648592574639
H           -1.00836054954260       -1.19890729892513       -1.04953061133368
H            2.76772953738782        0.70974753867394       -0.83053548137519
H            2.18575735694593        1.03991798297703        0.81397238002101
H            2.75733607387124       -1.30798846378357        1.47985874762992
H            3.29841510297001       -1.64781804629614       -0.16691427682897
H            4.18633828061299       -0.48696223818499        0.83337523692758
20
 energy: -27.123070030270 gnorm: 0.000526361992 xtb: 6.7.1 (edcfbbe)
C           -3.48060936926015       -0.91497378687466        0.21355934477309
C           -2.15199907088357       -0.23591760433275        0.52036751509154
C           -1.25208040532457       -0.18989850195819       -0.72277511254644
C            0.02294507901621        0.53981225269595       -0.39599249475960
O            0.10982229060836        1.73859411949941       -0.21762124490081
O            1.05029692437440       -0.28881566773317       -0.28830027513511
C            2.33351627506482        0.25451124337060        0.06779631536573
C            3.20194862971284       -0.87455238828239        0.58945191667975
H           -4.01442821589812       -0.37392363378427       -0.56344071151000
H           -3.31686900841880       -1.93473084418120       -0.12500803244109
H           -4.10172818686063       -0.94165371473123        1.10462944035569
H           -1.63641518382248       -0.77810869483887        1.31544527998945
H           -2.32445785199386        0.78530733244510        0.86624411215900
H           -1.76620661706784        0.35122551215459       -1.51760280958175
H           -1.00896439551440       -1.19867212940174       -1.05286680787311
H            2.76677105766575        0.71251147216472       -0.82710150174933
H            2.18283987026223        1.03820432777832        0.81750937561197
H            2.75558249162026       -1.31140758530350        1.47806371565703
H            3.30018530736948       -1.64576093115647       -0.16874992917588
H            4.18447673027618       -0.48621266682688        0.83643659740026
20
 energy: -27.123072444732 gnorm: 0.000672008105 xtb: 6.7.1 (edcfbbe)
C           -3.47899769815471       -0.91402575388909        0.21649333130334
C           -2.14808369757213       -0.23762381807076        0.51914458439334
C           -1.25291912257017       -0.18948550610824       -0.72752021492272
C            0.02270806753164        0.53949334454827       -0.40191686739792
O            0.11065517481701        1.73882768962224       -0.22732484843046
O            1.04888924788023       -0.28980313830865       -0.28825457053663
C            2.33051511012016        0.25441206974294        0.07190805551279
C            3.20070389992815       -0.87491887181915        0.58997762644325
H           -4.01571103940892       -0.37000862316606       -0.55646030660457
H           -3.31827997840965       -1.93307056702222       -0.12566427169164
H           -4.09590584002097       -0.94225607215338        1.11045979241884
H           -1.62981220101168       -0.78240099840879        1.31072701569621
H           -2.31778117080299        0.78301654413338        0.86816700702686
H           -1.76957896059620        0.35338907134077       -1.51945571833584
H           -1.01109203040188       -1.19771692023220       -1.06019922644078
H            2.76430759765577        0.71771368287082       -0.82002329453464
H            2.17710349630635        1.03443126930318        0.82499055982471
H            2.75243931649393       -1.31842758850499        1.47435453931138
H            3.30449701592746       -1.64141185252615       -0.17232086706293
H            4.18096916321468       -0.48459585064857        0.84296236743777
20
 energy: -27.123075009780 gnorm: 0.000704948174 xtb: 6.7.1 (edcfbbe)
C           -3.47624552918611       -0.91278719089586        0.22091039819953
C           -2.14198100857284       -0.24040835810808        0.51745335567618
C           -1.25421420273772       -0.18850785484772       -0.73454342676238
C            0.02232349614370        0.53959225178004       -0.41096744710215
O            0.11248253222413        1.74005204947433       -0.24531089970616
O            1.04630231873588       -0.29100020171508       -0.28644617788644
C            2.32595866370689        0.25444346545788        0.07854051016066
C            3.19854160024668       -0.87563705097289        0.59081684705636
H           -4.01745696035040       -0.36392743588877       -0.54549492148828
H           -3.32011798131353       -1.93050784199896       -0.12727631590485
H           -4.08673241136006       -0.94399955445898        1.11921193239092
H           -1.61950634439505       -0.78950893349012        1.30331760611815
H           -2.30756408996917        0.77910671327249        0.87185732310980
H           -1.77503030096745        0.35705481290146       -1.52185078385507
H           -1.01435160137413       -1.19586551237843       -1.07130136077256
H            2.75979302179771        0.72549105513491       -0.80935334048561
H            2.16908328559209        1.02892198964181        0.83668397152185
H            2.74742030797880       -1.32932421437592        1.46860885697160
H            3.31043404170240       -1.63474592835006       -0.17776529990377
H            4.17548751302426       -0.48290414947872        0.85295386607261
20
 energy: -27.123077165869 gnorm: 0.000508374513 xtb: 6.7.1 (edcfbbe)
C           -3.47416128185465       -0.91233085984032        0.22358397994114
C           -2.13805822790647       -0.24229873419919        0.51668243272320
C           -1.25533939957711       -0.18713284387021       -0.73882926302428
C            0.02214344112783        0.54012733620645       -0.41734081028788
O            0.11474337928679        1.74143674100867       -0.26001119606207
O            1.04380306915849       -0.29190926059466       -0.28316037360419
C            2.32279084805247        0.25417367881253        0.08329160982194
C            3.19725850700238       -0.87614749851175        0.59152873515545
H           -4.01835905395413       -0.36013459450871       -0.53824367427411
H           -3.32067311396375       -1.92887724249236       -0.12903691951352
H           -4.08055726829452       -0.94628152731831        1.12451002327544
H           -1.61283533918869       -0.79441021776829        1.29856776380579
H           -2.30139683472301        0.77619586700648        0.87502215915610
H           -1.77897103879057        0.36061468794965       -1.52268170802015
H           -1.01703385602677       -1.19378044709084       -1.07875298082831
H            2.75568355249271        0.72938940975407       -0.80276555314616
H            2.16481083264987        1.02558205491276        0.84423732232775
H            2.74479262624769       -1.33592821296934        1.46529557720097
H            3.31379187210245       -1.63062765138131       -0.18075132374376
H            4.17219363708509       -0.48212257440200        0.85889889250704
20
 energy: -27.123081994706 gnorm: 0.000630088071 xtb: 6.7.1 (edcfbbe)
C           -3.46949523511755       -0.91219066841625        0.22870853857684
C           -2.13021023973470       -0.24611657424093        0.51560727919617
C           -1.25790927574876       -0.18309094431183       -0.74696920039762
C            0.02190245159298        0.54210811369772       -0.43047849682347
O            0.12133754809116        1.74565793215943       -0.29591440623844
O            1.03748694383269       -0.29375403962603       -0.27229841922024
C            2.31626198157198        0.25357300312523        0.09375140913567
C            3.19449576980600       -0.87753197127600        0.59323321271161
H           -4.01979839688125       -0.35301681905560       -0.52356669444958
H           -3.32045435772598       -1.92589805893098       -0.13379735149150
H           -4.06798953835678       -0.95304492212374        1.13462122623913
H           -1.59906342963947       -0.80463453114814        1.28888458376358
H           -2.28977798619904        0.76986913670945        0.88279391736336
H           -1.78766017170203        0.36952130866902       -1.52319650294010
H           -1.02298564401650       -1.18812957700208       -1.09394812392673
H            2.74542163315299        0.73600964581996       -0.79015771098271
H            2.15801171831050        1.01958310450454        0.85988755633021
H            2.74033090038027       -1.34886435725634        1.45979687693382
H            3.31867399961799       -1.62306298803392       -0.18635046303094
H            4.16604767969159       -0.48144868256023        0.86943746266134
20
 energy: -27.123086696433 gnorm: 0.000867031923 xtb: 6.7.1 (edcfbbe)
C           -3.46456415109106       -0.91326763943388        0.23267718900289
C           -2.12335602963978       -0.24932140957627        0.51534111118918
C           -1.26063962628729       -0.17769055243924       -0.75346784087208
C            0.02195304407993        0.54489937240379       -0.44262056888579
O            0.13003970241925        1.75034921504055       -0.33397197777321
O            1.02987698545749       -0.29506561317524       -0.25756394630333
C            2.30975535699010        0.25268707394249        0.10406005037783
C            3.19176533724550       -0.87911953302681        0.59495931500179
H           -4.02018538011257       -0.34817113585082       -0.51109375101996
H           -3.31808913492613       -1.92392607816347       -0.13905038072318
H           -4.05669970071256       -0.96156570978448        1.14231354517601
H           -1.58675296567313       -0.81341680185731        1.28064081143955
H           -2.28080692380161        0.76391102618538        0.89090263253483
H           -1.79598676892188        0.37985419533578       -1.52217608217500
H           -1.02896149320385       -1.18102150090282       -1.10745989076490
H            2.73372442134370        0.73973004184744       -0.77981976055600
H            2.15446795570853        1.01536959981252        0.87396213343369
H            2.73815502836065       -1.35864446447750        1.45697394507563
H            3.31945235343826       -1.61794733677241       -0.19007176667326
H            4.16147834025254       -0.48210463840444        0.87550992592571
20
 energy: -27.123090270169 gnorm: 0.000534794747 xtb: 6.7.1 (edcfbbe)
C           -3.46200660866673       -0.91492532251155        0.23381181271890
C           -2.12090150266156       -0.25013943923300        0.51553571080054
C           -1.26184516114404       -0.17416866190478       -0.75538804587719
C            0.02225022368067        0.54685939389983       -0.44735639298853
O            0.13573303346662        1.75264018881566       -0.35314307758558
O            1.02555521085472       -0.29471774968952       -0.24804220883016
C            2.30695874207125        0.25248340909846        0.10897819130182
C            3.19006813434881       -0.88022796442039        0.59572005358963
H           -4.01957390354234       -0.34836685438429       -0.50721794509104
H           -3.31496498602480       -1.92420310083636       -0.14121225974011
H           -4.05242520458165       -0.96671727405909        1.14430404982383
H           -1.58178224652141       -0.81586241639738        1.27764492598150
H           -2.27881685387258        0.76168479769900        0.89450473529302
H           -1.79944930141948        0.38550851270993       -1.52077019379875
H           -1.03152593982323       -1.17663617098374       -1.11254991581863
H            2.72760621349620        0.74016748620986       -0.77624702259872
H            2.15525752998962        1.01479547614799        0.88001940994700
H            2.73872094194732       -1.36071044534177        1.45836646998603
H            3.31498816831076       -1.61791233935376       -0.19080363592684
H            4.16077986101793       -0.48401341476185        0.87389003222365
20
 energy: -27.123093086374 gnorm: 0.001081684768 xtb: 6.7.1 (edcfbbe)
C           -3.45678508200007       -0.91758933140771        0.23714957329242
C           -2.11512016003790       -0.25184981548105        0.51510087399265
C           -1.26441757545891       -0.16790129330419       -0.76127480091006
C            0.02234945195546        0.55026293338207       -0.45800462732899
O            0.14491606354063        1.75748407075591       -0.38970919050859
O            1.01787365373627       -0.29464799334331       -0.23236976184092
C            2.30102661505365        0.25204849085634        0.11970880779578
C            3.18685454595690       -0.88254808326727        0.59703405630199
H           -4.01956119782015       -0.34790923250972       -0.49791075556815
H           -3.30972265650562       -1.92461670838303       -0.14436118266993
H           -4.04221511092095       -0.97542848647721        1.15074140353514
H           -1.57015987774917       -0.82101313096385        1.27069346034383
H           -2.27316095048305        0.75754040210661        0.90079684264260
H           -1.80669651824517        0.39616553077166       -1.52018811671357
H           -1.03706982308765       -1.16889349962140       -1.12477732357898
H            2.71659738908012        0.74408236279045       -0.76581603429556
H            2.15315516734245        1.01143993894635        0.89463794431388
H            2.73938993407840       -1.36718273274937        1.45979767464585
H            3.30846284064214       -1.61691189483777       -0.19366046219696
H            4.15890964184869       -0.48699341656030        0.87245631215797
20
 energy: -27.123096573700 gnorm: 0.000323408888 xtb: 6.7.1 (edcfbbe)
C           -3.45451440087607       -0.91960380464865        0.23795654063960
C           -2.11354791135450       -0.25157056164268        0.51451928901054
C           -1.26509593217013       -0.16514001043001       -0.76317965345349
C            0.02255766578928        0.55173851197392       -0.46085818818963
O            0.14835798483527        1.75855744998740       -0.39981949910641
O            1.01504887509915       -0.29358930823452       -0.22680412011106
C            2.29891082013881        0.25212945272842        0.12366185566537
C            3.18512166009844       -0.88367343289434        0.59720320867302
H           -4.01881104618630       -0.35100276566209       -0.49679666130611
H           -3.30617781943573       -1.92647774439204       -0.14346720192051
H           -4.03909831463232       -0.97805170480304        1.15201006446580
H           -1.56635577488227       -0.82034384698850        1.26877534009776
H           -2.27284858201126        0.75721115373768        0.90125296015995
H           -1.80836777232581        0.40039340482927       -1.52023245302301
H           -1.03868097765610       -1.16563716868637       -1.12865565024664
H            2.71298194581421        0.74569420718451       -0.76177912293526
H            2.15299022335394        1.01045000471871        0.90011069410970
H            2.74228820016958       -1.36598500760369        1.46370993932700
H            3.29989520770778       -1.61968273820554       -0.19309228506289
H            4.15997229945011       -0.48987798026524        0.86552963661666
20
 energy: -27.123099552784 gnorm: 0.000367938398 xtb: 6.7.1 (edcfbbe)
C           -3.44980478680377       -0.92282874370520        0.24054397194479
C           -2.10964818899304       -0.25151409949559        0.51279386542891
C           -1.26664301055145       -0.15990991162051       -0.76806344203245
C            0.02286171517195        0.55443264551876       -0.46794178298351
O            0.15497981177753        1.76143147960073       -0.42278274893421
O            1.00938221612250       -0.29282942453254       -0.21632129287546
C            2.29395010267648        0.25183635423781        0.13230704926367