16
 energy: -17.082815334404 gnorm: 0.022878885168 xtb: 6.7.1 (edcfbbe)
C            1.76990070168821       -0.83957693335259        0.35853537044627
C            1.20262482460635        0.56051227870315        0.11808529472032
C            0.02332531590424        0.60712543606815       -0.86950941554072
C           -1.35988026280329        0.51090066697639       -0.22294537003581
N           -1.64092202314622       -0.70862280460321        0.55817563003974
H            2.60855128038980       -0.80876299195705        1.06270730196718
H            1.02022310890011       -1.52586354643037        0.76370364856016
H            2.13814393104631       -1.27093954161674       -0.57915953613415
H            0.89082499966619        1.00441113660685        1.07400168560827
H            2.01262398922328        1.19527041250985       -0.25986824394169
H            0.05205911419417        1.54962335714540       -1.43209372508605
H            0.13266799226474       -0.19794930010195       -1.61042313080023
H           -2.12104889918246        0.59569863348545       -1.00829275487906
H           -1.50393305917704        1.37271568089929        0.44057975241470
H           -0.98972441575204       -0.74132750342970        1.33741939931765
H           -1.39408876498529       -1.51092331102723       -0.01652000704895
16
 energy: -17.083674128062 gnorm: 0.009786661915 xtb: 6.7.1 (edcfbbe)
C            1.76279701199452       -0.83602069554698        0.35277949483701
C            1.20339128204046        0.56397027359550        0.11997493485218
C            0.03212419924856        0.59990638327015       -0.87141724448044
C           -1.35191152343736        0.51362336881188       -0.21779082788392
N           -1.63044350446683       -0.69991739229091        0.54959476137383
H            2.59519147578998       -0.79576050246328        1.05466236304386
H            1.01365838056261       -1.51339802594531        0.75997939341761
H            2.12926002332855       -1.26046459274516       -0.58243801660796
H            0.88584572095031        1.00001594661682        1.07305059492455
H            2.01192573814297        1.19156775978644       -0.26472534399946
H            0.06289722928113        1.54086029579037       -1.42795182077224
H            0.14474931795955       -0.20970309714803       -1.60073163530070
H           -2.11600633799626        0.58050769075577       -0.99971457750337
H           -1.49583781001686        1.36423387256830        0.45691081542749
H           -0.99355983885006       -0.73852901913581        1.34099358077917
H           -1.41273353169420       -1.50860059604406       -0.02878057249995
16
 energy: -17.083835141673 gnorm: 0.003878349289 xtb: 6.7.1 (edcfbbe)
C            1.76342799886400       -0.83345949193589        0.35280569260530
C            1.20574726738066        0.56701746693692        0.11871890437997
C            0.03617779504666        0.60196601321544       -0.87421201727182
C           -1.34818302027772        0.51086548480070       -0.21538808307131
N           -1.62571152178892       -0.69776091284453        0.54686429856888
H            2.59371943297210       -0.79359739526342        1.05364781562090
H            1.01143318992490       -1.50456732850333        0.75862662114465
H            2.12634166644173       -1.25479977689705       -0.58189727637281
H            0.88535568736741        0.99947345485928        1.06949733429289
H            2.01418948218231        1.19201200591820       -0.26563990696396
H            0.06464457318178        1.53929448781657       -1.43283293858687
H            0.14688524880908       -0.21289932137804       -1.59355490033204
H           -2.11293844982571        0.57742121647581       -0.99546562327395
H           -1.48495094889078        1.35796551225681        0.46223170033724
H           -0.99843216693874       -0.74508431556300        1.34441934994415
H           -1.43635840161172       -1.51155543001878       -0.03342507141357
16
 energy: -17.083865524007 gnorm: 0.001888612081 xtb: 6.7.1 (edcfbbe)
C            1.76508551214694       -0.83186462232271        0.35286121456422
C            1.20784200357795        0.56975685953543        0.11805032562870
C            0.03767682171613        0.60052682762049       -0.87498051391079
C           -1.34725719244999        0.50951695925479       -0.21300974072528
N           -1.62626182813308       -0.69841644576134        0.54621215787147
H            2.59540076313374       -0.79239749628506        1.05379078779383
H            1.01149757324225       -1.50119694520993        0.75884835356625
H            2.12722546666068       -1.25403985374685       -0.58179917452881
H            0.88678535074302        1.00270993350113        1.06816309657344
H            2.01592042855340        1.19506771774127       -0.26639426340418
H            0.06414708370006        1.53626639628829       -1.43558709582810
H            0.14799713991206       -0.21613919718560       -1.59200702460224
H           -2.11123539013948        0.58134486340702       -0.99327136490067
H           -1.47976793549650        1.35699158114993        0.46484521795286
H           -1.00177550683698       -0.75270940498031        1.34416062831820
H           -1.45193245749315       -1.51312550313086       -0.03548670476124
16
 energy: -17.083880754758 gnorm: 0.001449369833 xtb: 6.7.1 (edcfbbe)
C            1.76988564381789       -0.82915072168790        0.35440730431679
C            1.21082132731738        0.57188373210460        0.11601040193826
C            0.03855350238708        0.59781350271469       -0.87498198036596
C           -1.34674279842113        0.50865129058503       -0.20941080105205
N           -1.63146255042840       -0.69949299440108        0.54503610448147
H            2.60082734130524       -0.78925692988503        1.05556287739786
H            1.01516302289077       -1.49757885077174        0.76123065670849
H            2.13191170121950       -1.25352202363625       -0.58004329535102
H            0.89034623852882        1.00715702368748        1.06570503175338
H            2.01779950369426        1.19814696395297       -0.27021001812250
H            0.06210275094462        1.53132446854348       -1.43995630425573
H            0.14825364050482       -0.22157239472944       -1.58954618018670
H           -2.11055194052893        0.59054549617646       -0.98931757323420
H           -1.47261223002235        1.35622753921565        0.47034680919888
H           -1.00624230037293       -0.76544839723782        1.33999216170866
H           -1.47670501999959       -1.51343603475541       -0.04042929532796
16
 energy: -17.083887746295 gnorm: 0.000825842348 xtb: 6.7.1 (edcfbbe)
C            1.77122462438220       -0.82802038776811        0.35533759750198
C            1.21127999011620        0.57189097477446        0.11528330401586
C            0.03818258905171        0.59603907785620       -0.87432393640766
C           -1.34645453827029        0.50961697844537       -0.20820707544060
N           -1.63441571880661       -0.69946852570117        0.54420663734424
H            2.60204009021217       -0.78610585667292        1.05648777276751
H            1.01767629305690       -1.49716195821031        0.76323410124167
H            2.13426333439237       -1.25371330240829       -0.57820983774339
H            0.89214917732538        1.00900487627225        1.06479884082824
H            2.01755745153972        1.19782159075623       -0.27325583189233
H            0.06179529181857        1.52863461343348       -1.44112912330076
H            0.14679977565166       -0.22452593325073       -1.58797621968003
H           -2.11113930836322        0.59505413695909       -0.98697877393371
H           -1.46966264342267        1.35593202856098        0.47382939808147
H           -1.00502281947259       -0.77053835872305        1.33575460573757
H           -1.48492575637445       -1.51216828444781       -0.04445555951240
16
 energy: -17.083895058867 gnorm: 0.000478516531 xtb: 6.7.1 (edcfbbe)
C            1.77380114896467       -0.82612510749765        0.35757740097298
C            1.21185168747014        0.57179816844092        0.11356786072634
C            0.03704253453775        0.59336016870033       -0.87379651179782
C           -1.34598863378140        0.51196043454525       -0.20558443665465
N           -1.63878416178417       -0.69933352570781        0.54253217403491
H            2.60380045409976       -0.78087870006392        1.05936101951221
H            1.02147339598522       -1.49598842504494        0.76628577515869
H            2.13855675971251       -1.25328131161862       -0.57447751208168
H            0.89432653204274        1.01171296302155        1.06227613402697
H            2.01706915706143        1.19680410754182       -0.27851169289172
H            0.06135939230586        1.52340043826727       -1.44487225774785
H            0.14359221908500       -0.23050942254049       -1.58394368745183
H           -2.11243432761528        0.60363461194856       -0.98178204615043
H           -1.46391292907804        1.35531813499922        0.48096784549098
H           -1.00129304795167       -0.78009002593919        1.32734407599500
H           -1.49911234821746       -1.50949083917660       -0.05254824153444
16
 energy: -17.083897326908 gnorm: 0.000382975631 xtb: 6.7.1 (edcfbbe)
C            1.77527313866158       -0.82473202885383        0.35868959369968
C            1.21263440202639        0.57269925103617        0.11268150592200
C            0.03663360473459        0.59105577865451       -0.87362264713843
C           -1.34558019799473        0.51318145947152       -0.20353893031897
N           -1.64146407656254       -0.69968865799923        0.54106982265983
H            2.60461301216067       -0.77727718856993        1.06098242429070
H            1.02340699417429       -1.49461565694153        0.76822545280234
H            2.14123517820506       -1.25325617797712       -0.57224890483662
H            0.89596834535558        1.01448422258920        1.06078503472373
H            2.01707262090745        1.19714319199678       -0.28182413279865
H            0.06136036641792        1.51902016403559       -1.44789794435981
H            0.14117083627759       -0.23541014804745       -1.58102470391506
H           -2.11322707894311        0.61042156659978       -0.97782788126237
H           -1.45884952698260        1.35455780752088        0.48616055686586
H           -0.99999838102590       -0.78735037196580        1.32194395857597
H           -1.50890140457518       -1.50794154167384       -0.05815730530255
16
 energy: -17.083898146556 gnorm: 0.000176428793 xtb: 6.7.1 (edcfbbe)
C            1.77638343985183       -0.82402906066294        0.35961343094013
C            1.21302869212154        0.57285609117006        0.11173900908709
C            0.03632160464674        0.59020552134900       -0.87381982449881
C           -1.34536212702531        0.51384980172799       -0.20222776929960
N           -1.64283843146370       -0.70007953339672        0.53994206141815
H            2.60562122312811       -0.77571758947072        1.06202877535702
H            1.02443387170283       -1.49353882346698        0.76960861974556
H            2.14245519733489       -1.25326706338526       -0.57091635927382
H            0.89668795907430        1.01549376188837        1.05948539791551
H            2.01706409631102        1.19709060241056       -0.28381157847812
H            0.06099901118068        1.51702412376795       -1.44989540970219
H            0.14006836979020       -0.23769719313834       -1.57958379315448
H           -2.11360691630187        0.61428733157287       -0.97544282823929
H           -1.45618137081497        1.35402587105938        0.48929378702658
H           -1.00065657264354       -0.79107345150836        1.31962857580532
H           -1.51307021405569       -1.50713872004118       -0.06124619504140
16
 energy: -17.083898484895 gnorm: 0.000091549790 xtb: 6.7.1 (edcfbbe)
C            1.77666342382347       -0.82366537316461        0.35995322934936
C            1.21340861446859        0.57317631498853        0.11125522555787
C            0.03626284253566        0.58982603362521       -0.87386248398938
C           -1.34521166617688        0.51397773709249       -0.20160380010495
N           -1.64343897452329       -0.70054261468724        0.53912809213503
H            2.60609990518538       -0.77491833647929        1.06211794022417
H            1.02464706577815       -1.49266043778805        0.77069232534542
H            2.14237581984500       -1.25368217410135       -0.57035881023786
H            0.89733460325500        1.01644049723004        1.05877653339119
H            2.01739618717990        1.19707858900344       -0.28489993710457
H            0.06082691055458        1.51613404295002       -1.45069268633851
H            0.13952949704971       -0.23867874430266       -1.57894128050963
H           -2.11373637043859        0.61630683580943       -0.97427120924058
H           -1.45462272963123        1.35344255377571        0.49092962517979
H           -1.00194109581802       -0.79289158094034        1.31909366589232
H           -1.51424620025039       -1.50705167313562       -0.06292052994202
16
 energy: -17.083898746928 gnorm: 0.000140680210 xtb: 6.7.1 (edcfbbe)
C            1.77656572046463       -0.82350394706888        0.36026856002354
C            1.21367711722022        0.57339293991912        0.11086370138889
C            0.03623083118034        0.58974767008760       -0.87392204761486
C           -1.34504562335634        0.51400440319694       -0.20115687859995
N           -1.64377737149550       -0.70114829199042        0.53829326291941
H            2.60653522455650       -0.77453807992888        1.06180179485258
H            1.02454310125147       -1.49183670265682        0.77209858385261
H            2.14144453739805       -1.25443282463110       -0.56996135181072
H            0.89808780250555        1.01737881610540        1.05821591203997
H            2.01770116117770        1.19681013272742       -0.28599981170634
H            0.06061160624523        1.51591715768000       -1.45096605421960
H            0.13924744009614       -0.23891914283280       -1.57885268941308
H           -2.11369515752424        0.61757985823327       -0.97352690339696
H           -1.45378038242823        1.35285511322784        0.49219205758487
H           -1.00354031275683       -0.79386317403534        1.31919835515424
H           -1.51345786169763       -1.50715225815766       -0.06415059144692
16
 energy: -17.083898988843 gnorm: 0.000097902218 xtb: 6.7.1 (edcfbbe)
C            1.77618828835973       -0.82345229591360        0.36064323918783
C            1.21406293417609        0.57357396786823        0.11039502739918
C            0.03618304462198        0.58995996882779       -0.87383058422405
C           -1.34498446569238        0.51389782466700       -0.20090884882890
N           -1.64389503349078       -0.70189330621022        0.53741194826130
H            2.60697689534695       -0.77434365125797        1.06119643443682
H            1.02414779743407       -1.49079012342264        0.77404471212235
H            2.13972579443222       -1.25562116139937       -0.56954434857036
H            0.89914139022725        1.01846406719372        1.05754211086887
H            2.01830820867114        1.19619588691184       -0.28730293393900
H            0.06028706614789        1.51625631405178       -1.45069442567968
H            0.13910207911569       -0.23853526689100       -1.57898030670816
H           -2.11377860672427        0.61841052363757       -0.97305608565511
H           -1.45336727592281        1.35210177182742        0.49324990214871
H           -1.00508103035214       -0.79443611355222        1.31951986853977
H           -1.51166925351358       -1.50749673646264       -0.06528980975191
16
 energy: -17.083899166419 gnorm: 0.000077193952 xtb: 6.7.1 (edcfbbe)
C            1.77563552973098       -0.82347235232669        0.36101022533366
C            1.21428493445945        0.57371359338167        0.11005969012324
C            0.03618050331755        0.59031584692663       -0.87383064195743
C           -1.34481998871892        0.51373599998613       -0.20069625297748
N           -1.64380356515922       -0.70256902986350        0.53679677780864
H            2.60726175297677       -0.77426868347043        1.06055360924311
H            1.02363757534451       -1.48987832143854        0.77595003843619
H            2.13782638749332       -1.25684664343532       -0.56914342581844
H            0.90011761307879        1.01955481408456        1.05702096234074
H            2.01877265675087        1.19546875693217       -0.28850759276072
H            0.06001293334442        1.51692980121119       -1.45022764203796
H            0.13909340378577       -0.23780703447211       -1.57944391003824
H           -2.11362362539751        0.61867894889707       -0.97278951538369
H           -1.45329702080404        1.35148371818531        0.49399171313883
H           -1.00589223866548       -0.79487340571336        1.31970847865484
H           -1.51003901870018       -1.50787433900908       -0.06605661449763
16
 energy: -17.083899325257 gnorm: 0.000063092444 xtb: 6.7.1 (edcfbbe)
C            1.77511388096973       -0.82353902527181        0.36139150172317
C            1.21455905294203        0.57381930521751        0.10974225193610
C            0.03616340485309        0.59068991067040       -0.87374624732465
C           -1.34478811335404        0.51355778989416       -0.20062790519421
N           -1.64357720092615       -0.70308868467442        0.53640926171403
H            2.60748792932452       -0.77427874276052        1.06003467445505
H            1.02314356192279       -1.48910859744192        0.77769868734686
H            2.13608062722182       -1.25796947156429       -0.56874322056759
H            0.90102656033316        1.02048664152064        1.05652351332608
H            2.01931385006265        1.19477996590053       -0.28955204639565
H            0.05971593890870        1.51769325389010       -1.44954938126475
H            0.13917269841453       -0.23693981574135       -1.57993748250498
H           -2.11362986237988        0.61861004902525       -0.97269455233348
H           -1.45348632488401        1.35099228121810        0.49441547365766
H           -1.00595155922821       -0.79525079194763        1.31959947236331
H           -1.50899661134366       -1.50816239805906       -0.06656810132928
16
 energy: -17.083899491038 gnorm: 0.000085583720 xtb: 6.7.1 (edcfbbe)
C            1.77454818474269       -0.82359458801414        0.36180094336737
C            1.21478547904438        0.57394299914506        0.10945713192122
C            0.03618774099150        0.59116447751197       -0.87373171293293
C           -1.34468330009373        0.51331414721554       -0.20054797554241
N           -1.64319732941202       -0.70356927601446        0.53621836427169
H            2.60765383527077       -0.77427680017952        1.05956226447426
H            1.02257139484721       -1.48825603495347        0.77950670367623
H            2.13427167919743       -1.25915231635824       -0.56828980460348
H            0.90188663255753        1.02150498470250        1.05602757897489
H            2.01985281657543        1.19402273686804       -0.29057939142053
H            0.05944296025324        1.51862392295728       -1.44884712096090
H            0.13932065877252       -0.23592564052654       -1.58055057513422
H           -2.11356514805796        0.61831250605395       -0.97259326456407
H           -1.45365594414641        1.35054502829163        0.49470902164651
H           -1.00537379179226       -0.79586195005474        1.31924870014512
H           -1.50869803591327       -1.50850252676919       -0.06699496371108
16
 energy: -17.083899606134 gnorm: 0.000041406095 xtb: 6.7.1 (edcfbbe)
C            1.77405926149528       -0.82362200484400        0.36222280030657
C            1.21503630701225        0.57409326007844        0.10914831296597
C            0.03619521785527        0.59151383901746       -0.87373252477595
C           -1.34459888153558        0.51312971581819       -0.20041961182758
N           -1.64284339482924       -0.70398996008228        0.53604530706954
H            2.60779568137076       -0.77423186208342        1.05922858503713
H            1.02206963949257       -1.48750782172008        0.78112918300066
H            2.13271406219284       -1.26017060457862       -0.56780911279185
H            0.90265742569061        1.02242435191036        1.05551773125929
H            2.02036282026222        1.19344396499807       -0.29151088000783
H            0.05917776951323        1.51932155662365       -1.44829720085611
H            0.13941343075861       -0.23512838827810       -1.58106106974358
H           -2.11354083271933        0.61815143433319       -0.97239119049636
H           -1.45372259907992        1.35016266249998        0.49506152732985
H           -1.00467269466260       -0.79660543546691        1.31873139306173
H           -1.50875537997992       -1.50869303835025       -0.06746734992381
16
 energy: -17.083899662578 gnorm: 0.000024801860 xtb: 6.7.1 (edcfbbe)
C            1.77387447325484       -0.82358672543404        0.36246940273781
C            1.21517067331361        0.57418779783144        0.10896581352727
C            0.03619320189016        0.59166467979772       -0.87374703796460
C           -1.34453397588988        0.51305433327196       -0.20029408981938
N           -1.64271262386958       -0.70423318261660        0.53590554873149
H            2.60792520739832       -0.77411636336639        1.05909638933620
H            1.02185118742867       -1.48699363645374        0.78206322824746
H            2.13196314178272       -1.26073924486515       -0.56750151205956
H            0.90307513433097        1.02300540072404        1.05519877676420
H            2.02062698746891        1.19311097114017       -0.29209224033662
H            0.05903443768069        1.51958809558316       -1.44813614904430
H            0.13940070971781       -0.23484484887018       -1.58123143340776
H           -2.11356418558745        0.61828820714821       -0.97214891885474
H           -1.45355358652348        1.34992112201644        0.49540531139587
H           -1.00430957692763       -0.79723392078544        1.31834262980430
H           -1.50909337263163       -1.50878101524588       -0.06789981944998
