
                                 *****************
                                 * O   R   C   A *
                                 *****************

                                            #,                                       
                                            ###                                      
                                            ####                                     
                                            #####                                    
                                            ######                                   
                                           ########,                                 
                                     ,,################,,,,,                         
                               ,,#################################,,                 
                          ,,##########################################,,             
                       ,#########################################, ''#####,          
                    ,#############################################,,   '####,        
                  ,##################################################,,,,####,       
                ,###########''''           ''''###############################       
              ,#####''   ,,,,##########,,,,          '''####'''          '####       
            ,##' ,,,,###########################,,,                        '##       
           ' ,,###''''                  '''############,,,                           
         ,,##''                                '''############,,,,        ,,,,,,###''
      ,#''                                            '''#######################'''  
     '                                                          ''''####''''         
             ,#######,   #######,   ,#######,      ##                                
            ,#'     '#,  ##    ##  ,#'     '#,    #''#        ,####,   ,####,        
            ##       ##  ##   ,#'  ##            #'  '#       #'       #'  '#        
            ##       ##  #######   ##           ,######,      #####,   #    #        
            '#,     ,#'  ##    ##  '#,     ,#' ,#      #,     #,   #   #,  ,#        
             '#######'   ##     ##  '#######'  #'      '#     '####' # '####'        



                #########################################################
                #                        -***-                          #
                #          Department of theory and spectroscopy        #
                #                                                       #
                #                      Frank Neese                      #
                #                                                       #
                #     Directorship, Architecture, Infrastructure        #
                #                    SHARK, DRIVERS                     #
                #        Core code/Algorithms in most modules           #
                #                                                       #
                #        Max Planck Institute fuer Kohlenforschung      #
                #                Kaiser Wilhelm Platz 1                 #
                #                 D-45470 Muelheim/Ruhr                 #
                #                      Germany                          #
                #                                                       #
                #                  All rights reserved                  #
                #                        -***-                          #
                #########################################################


                         Program Version 6.0.0  -   RELEASE  -


 With contributions from (in alphabetic order):
   Daniel Aravena         : Magnetic Suceptibility
   Michael Atanasov       : Ab Initio Ligand Field Theory (pilot matlab implementation)
   Alexander A. Auer      : GIAO ZORA, VPT2 properties, NMR spectrum
   Ute Becker             : All parallelization in ORCA, NUMFREQ, NUMCALC
   Giovanni Bistoni       : ED, misc. LED, open-shell LED, HFLD
   Martin Brehm           : Molecular dynamics
   Dmytro Bykov           : pre 5.0 version of the SCF Hessian
   Marcos Casanova-Páez   : Triplet and SCS-CIS(D). UHF-(DLPNO)-IP/EA/STEOM-CCSD. UHF-CVS-IP/STEOM-CCSD
   Vijay G. Chilkuri      : MRCI spin determinant printing, contributions to CSF-ICE
   Pauline Colinet        : FMM embedding
   Dipayan Datta          : RHF DLPNO-CCSD density
   Achintya Kumar Dutta   : EOM-CC, STEOM-CC
   Nicolas Foglia         : Exact transition moments, OPA infrastructure, MCD improvements
   Dmitry Ganyushin       : Spin-Orbit,Spin-Spin,Magnetic field MRCI
   Miquel Garcia          : C-PCM and meta-GGA Hessian, CCSD/C-PCM, Gaussian charge scheme
   Tiago L. C. Gouveia    : GS-ROHF, GS-ROCIS
   Yang Guo               : DLPNO-NEVPT2, F12-NEVPT2, CIM, IAO-localization
   Andreas Hansen         : Spin unrestricted coupled pair/coupled cluster methods
   Ingolf Harden          : AUTO-CI MPn and infrastructure 
   Benjamin Helmich-Paris : MC-RPA, TRAH-(SCF,CASSCF), AVAS, COSX integrals, SCF dyn. polar.
   Lee Huntington         : MR-EOM, pCC
   Robert Izsak           : Overlap fitted RIJCOSX, COSX-SCS-MP3, EOM
   Riya Kayal             : Wick's Theorem for AUTO-CI, AUTO-CI UHF-CCSDT
   Emily Kempfer          : AUTO-CI, RHF CISDT and CCSDT
   Christian Kollmar      : KDIIS, OOCD, Brueckner-CCSD(T), CCSD density, CASPT2, CASPT2-K, improved NEVPT2
   Axel Koslowski         : Symmetry handling
   Simone Kossmann        : Meta GGA functionals, TD-DFT gradient, OOMP2, (MP2 Hessian; deprecated post 5.0)
   Lucas Lang             : DCDCAS
   Marvin Lechner         : AUTO-CI (C++ implementation), FIC-MRCC
   Spencer Leger          : CASSCF response
   Dagmar Lenk            : GEPOL surface, SMD, ORCA-2-JSON
   Dimitrios Liakos       : Extrapolation schemes; Compound Job, initial MDCI parallelization
   Dimitrios Manganas     : Further ROCIS development; embedding schemes. LFT, Crystal Embedding
   Dimitrios Pantazis     : SARC Basis sets
   Anastasios Papadopoulos: AUTO-CI, single reference methods and gradients
   Taras Petrenko         : pre 6.0 DFT Hessian and TD-DFT gradient, (ASA, deprecated), ECA, 1-Electron XAS/XES, NRVS
   Peter Pinski           : DLPNO-MP2, DLPNO-MP2 Gradient
   Christoph Reimann      : Effective Core Potentials
   Marius Retegan         : Local ZFS, SOC
   Christoph Riplinger    : Optimizer, TS searches, QM/MM, DLPNO-CCSD(T), (RO)-DLPNO pert. Triples
   Michael Roemelt        : Original ROCIS implementation
   Masaaki Saitow         : Open-shell DLPNO-CCSD energy and density
   Barbara Sandhoefer     : DKH picture change effects
   Kantharuban Sivalingam : CASSCF convergence/infrastructure, NEVPT2 and variants, FIC-MRCI
   Bernardo de Souza      : ESD, SOC TD-DFT
   Georgi Stoychev        : AutoAux, RI-MP2 NMR, DLPNO-MP2 response, X2C
   Van Anh Tran           : RI-MP2 g-tensors
   Willem Van den Heuvel  : Paramagnetic NMR
   Zikuan Wang            : NOTCH, Electric field optimization 
   Frank Wennmohs         : Technical directorship and infrastructure
   Hang Xu                : AUTO-CI-Response properties 


 We gratefully acknowledge several colleagues who have allowed us to
 interface, adapt or use parts of their codes:
   Stefan Grimme, W. Hujo, H. Kruse, P. Pracht,  : VdW corrections, initial TS optimization,
                  C. Bannwarth, S. Ehlert,         DFT functionals, gCP, sTDA/sTD-DF
                  L. Wittmann, M. Mueller
   Ed Valeev, F. Pavosevic, A. Kumar             : LibInt (2-el integral package), F12 methods
   Garnet Chan, S. Sharma, J. Yang, R. Olivares  : DMRG
   Ulf Ekstrom                                   : XCFun DFT Library
   Mihaly Kallay                                 : mrcc  (arbitrary order and MRCC methods)
   Frank Weinhold                                : gennbo (NPA and NBO analysis)
   Simon Mueller                                 : openCOSMO-RS
   Christopher J. Cramer and Donald G. Truhlar   : smd solvation model
   Lars Goerigk                                  : TD-DFT with DH, B97 family of functionals
   V. Asgeirsson, H. Jonsson                     : NEB implementation
   FAccTs GmbH                                   : IRC, NEB, NEB-TS, DLPNO-Multilevel, CI-OPT
                                                   MM, QMMM, 2- and 3-layer-ONIOM, Crystal-QMMM,
                                                   LR-CPCM, SF, NACMEs, symmetry and pop. for TD-DFT,
                                                   nearIR, NL-DFT gradient (VV10), updates on ESD,
                                                   ML-optimized integration grids, MBIS, APM,
                                                   GOAT, DOCKER, SOLVATOR, interface openCOSMO-RS
   S Lehtola, MJT Oliveira, MAL Marques          : LibXC Library
   Liviu Ungur et al                             : ANISO software


 Your calculation uses the libint2 library for the computation of 2-el integrals
 For citations please refer to: http://libint.valeyev.net

 Your ORCA version has been built with support for libXC version: 6.2.2
 For citations please refer to: https://libxc.gitlab.io

 This ORCA versions uses:
   CBLAS   interface :  Fast vector & matrix operations
   LAPACKE interface :  Fast linear algebra routines
   SCALAPACK package :  Parallel linear algebra routines
   Shared memory     :  Shared parallel matrices
   BLAS/LAPACK       :  OpenBLAS 0.3.27  USE64BITINT DYNAMIC_ARCH NO_AFFINITY SkylakeX SINGLE_THREADED
        Core in use  :  SkylakeX
   Copyright (c) 2011-2014, The OpenBLAS Project


Your calculation utilizes the geometrical counterpoise correction gCP
Please cite in your paper:
H.Kruse, S. Grimme J.Chem.Phys., 136, (2012), 154101 
   

Your calculation utilizes the atom-pairwise dispersion correction
based on EEQ partial charges (D4)


Your calculation utilizes the SMD solvation module
Please cite in your paper:
A.V. Marenich, C.J. Cramer, D.G. Truhlar J. Phys. Chem. B, 113, (2009), 6378 

================================================================================

----- Orbital basis set information -----
Your calculation utilizes the basis: def2-mTZVPP
   Stefan Grimme, Andreas Hansen, Sebastian Ehlert, and Jan-Michael Mewes 
   J. Chem. Phys. 154, 064103 (2021). DOI: 10.1063/5.0040021

----- AuxJ basis set information -----
Your calculation utilizes the auxiliary basis: def2/J
   F. Weigend, Phys. Chem. Chem. Phys. 8, 1057 (2006).

================================================================================
                                        WARNINGS
                       Please study these warnings very carefully!
================================================================================

Using LibXC functional ID 497 : Re-regularized SCAN exchange by Furness et al
[ 1]  J. W. Furness, A. D. Kaplan, J. Ning, J. P. Perdew, and J. Sun.,  J. Phys. Chem. Lett. 11, 8208-8215 (2020)
[ 2]  J. W. Furness, A. D. Kaplan, J. Ning, J. P. Perdew, and J. Sun.,  J. Phys. Chem. Lett. 11, 9248-9248 (2020)
Using LibXC functional ID 498 : Re-regularized SCAN correlation by Furness et al
[ 1]  J. W. Furness, A. D. Kaplan, J. Ning, J. P. Perdew, and J. Sun.,  J. Phys. Chem. Lett. 11, 8208-8215 (2020)
[ 2]  J. W. Furness, A. D. Kaplan, J. Ning, J. P. Perdew, and J. Sun.,  J. Phys. Chem. Lett. 11, 9248-9248 (2020)
Using LibXC functional ID 497 : Re-regularized SCAN exchange by Furness et al
[ 1]  J. W. Furness, A. D. Kaplan, J. Ning, J. P. Perdew, and J. Sun.,  J. Phys. Chem. Lett. 11, 8208-8215 (2020)
[ 2]  J. W. Furness, A. D. Kaplan, J. Ning, J. P. Perdew, and J. Sun.,  J. Phys. Chem. Lett. 11, 9248-9248 (2020)
Using LibXC functional ID 498 : Re-regularized SCAN correlation by Furness et al
[ 1]  J. W. Furness, A. D. Kaplan, J. Ning, J. P. Perdew, and J. Sun.,  J. Phys. Chem. Lett. 11, 8208-8215 (2020)
[ 2]  J. W. Furness, A. D. Kaplan, J. Ning, J. P. Perdew, and J. Sun.,  J. Phys. Chem. Lett. 11, 9248-9248 (2020)

================================================================================
                                       INPUT FILE
================================================================================
NAME = sp_solv.inp
|  1> ! r2scan-3c def2/J RI DEFGRID2 scfconv6 printgap
|  2> %output
|  3>     printlevel normal
|  4> end
|  5> %cpcm
|  6>     smd true
|  7>     smdsolvent "water"
|  8> end
|  9> * xyz 0 1
| 10> C -3.4134568335 -1.0032886585 0.2838251497
| 11> C -2.0611676683 -0.6435819138 -0.3180550988
| 12> C -1.3108286916 0.3631973839 0.5671739429
| 13> C 0.0055580057 0.7027607122 -0.0767780111
| 14> O 0.1884854158 1.6287413387 -0.8416325733
| 15> O 0.9527413879 -0.1592630536 0.2609406406
| 16> C 2.2595987746 0.0085028901 -0.3147877401
| 17> C 3.2335133739 -0.8598960633 0.4580722841
| 18> H -3.9294008015 -1.7150190171 -0.3547131504
| 19> H -3.2856599958 -1.4489738843 1.2667542832
| 20> H -4.0338807545 -0.1165040924 0.3841047977
| 21> H -2.2003899732 -0.2086137112 -1.3100618872
| 22> H -1.4531654011 -1.5437999057 -0.4251215348
| 23> H -1.1261068656 -0.0764871218 1.5463301308
| 24> H -1.8978599107 1.2757623263 0.6661715335
| 25> H 2.2086235548 -0.2822538445 -1.3690571405
| 26> H 2.5263742108 1.0692980172 -0.264780762
| 27> H 4.2247624371 -0.7568884242 0.0292761738
| 28> H 3.2600908575 -0.5547105658 1.5000073952
| 29> H 2.9251928176 -1.899720004 0.4054251456
| 30> *
| 31> 
| 32>                          ****END OF INPUT****
================================================================================

                       ****************************
                       * Single Point Calculation *
                       ****************************

---------------------------------
CARTESIAN COORDINATES (ANGSTROEM)
---------------------------------
  C     -3.413457   -1.003289    0.283825
  C     -2.061168   -0.643582   -0.318055
  C     -1.310829    0.363197    0.567174
  C      0.005558    0.702761   -0.076778
  O      0.188485    1.628741   -0.841633
  O      0.952741   -0.159263    0.260941
  C      2.259599    0.008503   -0.314788
  C      3.233513   -0.859896    0.458072
  H     -3.929401   -1.715019   -0.354713
  H     -3.285660   -1.448974    1.266754
  H     -4.033881   -0.116504    0.384105
  H     -2.200390   -0.208614   -1.310062
  H     -1.453165   -1.543800   -0.425122
  H     -1.126107   -0.076487    1.546330
  H     -1.897860    1.275762    0.666172
  H      2.208624   -0.282254   -1.369057
  H      2.526374    1.069298   -0.264781
  H      4.224762   -0.756888    0.029276
  H      3.260091   -0.554711    1.500007
  H      2.925193   -1.899720    0.405425

----------------------------
CARTESIAN COORDINATES (A.U.)
----------------------------
  NO LB      ZA    FRAG     MASS         X           Y           Z
   0 C     6.0000    0    12.011   -6.450499   -1.895941    0.536352
   1 C     6.0000    0    12.011   -3.895042   -1.216194   -0.601037
   2 C     6.0000    0    12.011   -2.477107    0.686344    1.071803
   3 C     6.0000    0    12.011    0.010503    1.328025   -0.145089
   4 O     8.0000    0    15.999    0.356186    3.077875   -1.590455
   5 O     8.0000    0    15.999    1.800420   -0.300964    0.493106
   6 C     6.0000    0    12.011    4.270023    0.016068   -0.594863
   7 C     6.0000    0    12.011    6.110455   -1.624968    0.865631
   8 H     1.0000    0     1.008   -7.425491   -3.240916   -0.670311
   9 H     1.0000    0     1.008   -6.208998   -2.738164    2.393819
  10 H     1.0000    0     1.008   -7.622930   -0.220161    0.725853
  11 H     1.0000    0     1.008   -4.158134   -0.394223   -2.475658
  12 H     1.0000    0     1.008   -2.746085   -2.917359   -0.803363
  13 H     1.0000    0     1.008   -2.128034   -0.144540    2.922140
  14 H     1.0000    0     1.008   -3.586435    2.410841    1.258882
  15 H     1.0000    0     1.008    4.173694   -0.533382   -2.587143
  16 H     1.0000    0     1.008    4.774155    2.020680   -0.500363
  17 H     1.0000    0     1.008    7.983644   -1.430312    0.055324
  18 H     1.0000    0     1.008    6.160679   -1.048251    2.834603
  19 H     1.0000    0     1.008    5.527813   -3.589951    0.766142

--------------------------------
INTERNAL COORDINATES (ANGSTROEM)
--------------------------------
 C      0   0   0     0.000000000000     0.00000000     0.00000000
 C      1   0   0     1.523264508230     0.00000000     0.00000000
 C      2   1   0     1.536308429483   111.14075237     0.00000000
 C      3   2   1     1.504277670450   109.18777860   180.84812263
 O      4   3   2     1.214868330041   124.98282936    91.61679319
 O      4   3   2     1.324498101179   111.69954020   273.38640719
 C      6   4   3     1.437875102149   118.15992335   177.89987312
 C      7   6   4     1.516554979551   108.22875490   166.49488520
 H      1   2   3     1.086503309780   110.12316324   179.98713900
 H      1   2   3     1.086792083936   110.47579555   299.93227639
 H      1   2   3     1.086907869244   110.52018426    60.09810641
 H      2   1   3     1.092088666586   109.86434574   239.34893609
 H      2   1   3     1.091568784630   109.78483021   120.61873986
 H      3   2   1     1.089124170082   109.65192807    61.33937866
 H      3   2   1     1.089578335523   109.75968299   299.95927227
 H      7   6   4     1.094815929903   108.19601890   287.60780317
 H      7   6   4     1.094968553383   108.43243445    44.76366645
 H      8   7   6     1.084919989315   109.32701116   179.24795195
 H      8   7   6     1.086035600826   110.10417388   299.30996115
 H      8   7   6     1.085848568762   109.95534954    59.19981052

---------------------------
INTERNAL COORDINATES (A.U.)
---------------------------
 C      0   0   0     0.000000000000     0.00000000     0.00000000
 C      1   0   0     2.878552750078     0.00000000     0.00000000
 C      2   1   0     2.903202188958   111.14075237     0.00000000
 C      3   2   1     2.842672826524   109.18777860   180.84812263
 O      4   3   2     2.295768432552   124.98282936    91.61679319
 O      4   3   2     2.502938676126   111.69954020   273.38640719
 C      6   4   3     2.717190157847   118.15992335   177.89987312
 C      7   6   4     2.865873578387   108.22875490   166.49488520
 H      1   2   3     2.053193699083   110.12316324   179.98713900
 H      1   2   3     2.053739403152   110.47579555   299.93227639
 H      1   2   3     2.053958205676   110.52018426    60.09810641
 H      2   1   3     2.063748493808   109.86434574   239.34893609
 H      2   1   3     2.062766059288   109.78483021   120.61873986
 H      3   2   1     2.058146407289   109.65192807    61.33937866
 H      3   2   1     2.059004655591   109.75968299   299.95927227
 H      7   6   4     2.068902274570   108.19601890   287.60780317
 H      7   6   4     2.069190691150   108.43243445    44.76366645
 H      8   7   6     2.050201657023   109.32701116   179.24795195
 H      8   7   6     2.052309857250   110.10417388   299.30996115
 H      8   7   6     2.051956417870   109.95534954    59.19981052

---------------------
BASIS SET INFORMATION
---------------------
There are 3 groups of distinct atoms

 Group   1 Type C   : 11s6p1d contracted to 5s3p1d pattern {62111/411/1}
 Group   2 Type O   : 11s6p2d contracted to 5s3p2d pattern {62111/411/11}
 Group   3 Type H   : 4s1p contracted to 2s1p pattern {31/1}

Atom   0C    basis set group =>   1
Atom   1C    basis set group =>   1
Atom   2C    basis set group =>   1
Atom   3C    basis set group =>   1
Atom   4O    basis set group =>   2
Atom   5O    basis set group =>   2
Atom   6C    basis set group =>   1
Atom   7C    basis set group =>   1
Atom   8H    basis set group =>   3
Atom   9H    basis set group =>   3
Atom  10H    basis set group =>   3
Atom  11H    basis set group =>   3
Atom  12H    basis set group =>   3
Atom  13H    basis set group =>   3
Atom  14H    basis set group =>   3
Atom  15H    basis set group =>   3
Atom  16H    basis set group =>   3
Atom  17H    basis set group =>   3
Atom  18H    basis set group =>   3
Atom  19H    basis set group =>   3
---------------------------------
AUXILIARY/J BASIS SET INFORMATION
---------------------------------
There are 3 groups of distinct atoms

 Group   1 Type C   : 12s5p4d2f1g contracted to 6s4p3d1f1g pattern {711111/2111/211/2/1}
 Group   2 Type O   : 12s5p4d2f1g contracted to 6s4p3d1f1g pattern {711111/2111/211/2/1}
 Group   3 Type H   : 5s2p1d contracted to 3s1p1d pattern {311/2/1}

Atom   0C    basis set group =>   1
Atom   1C    basis set group =>   1
Atom   2C    basis set group =>   1
Atom   3C    basis set group =>   1
Atom   4O    basis set group =>   2
Atom   5O    basis set group =>   2
Atom   6C    basis set group =>   1
Atom   7C    basis set group =>   1
Atom   8H    basis set group =>   3
Atom   9H    basis set group =>   3
Atom  10H    basis set group =>   3
Atom  11H    basis set group =>   3
Atom  12H    basis set group =>   3
Atom  13H    basis set group =>   3
Atom  14H    basis set group =>   3
Atom  15H    basis set group =>   3
Atom  16H    basis set group =>   3
Atom  17H    basis set group =>   3
Atom  18H    basis set group =>   3
Atom  19H    basis set group =>   3

Checking for AutoStart:
The File: sp_solv.gbw exists
Trying to determine its content:
     ... Fine, the file contains calculation information
     ... Fine, the calculation information was read
     ... Fine, the file contains a basis set
     ... Fine, the basis set was read
     ... Fine, the file contains a geometry
     ... Fine, the geometry was read
     ... Fine, the file contains a set of orbitals
     ... Fine, the orbitals can be read
     => possible old guess file was deleted
     => GBW file was renamed to GES file
     => GES file is set as startup file
     => Guess is set to MORead
     ... now leaving AutoStart

------------------------------------------------------------------------------
                             ORCA STARTUP CALCULATIONS
                           -- RI-GTO INTEGRALS CHOSEN --
------------------------------------------------------------------------------
------------------------------------------------------------------------------
                   ___                                                        
                  /   \      - P O W E R E D   B Y -                         
                 /     \                                                     
                 |  |  |   _    _      __       _____    __    __             
                 |  |  |  | |  | |    /  \     |  _  \  |  |  /  |          
                  \  \/   | |  | |   /    \    | | | |  |  | /  /          
                 / \  \   | |__| |  /  /\  \   | |_| |  |  |/  /          
                |  |  |   |  __  | /  /__\  \  |    /   |      \           
                |  |  |   | |  | | |   __   |  |    \   |  |\   \          
                \     /   | |  | | |  |  |  |  | |\  \  |  | \   \       
                 \___/    |_|  |_| |__|  |__|  |_| \__\ |__|  \__/        
                                                                              
                      - O R C A' S   B I G   F R I E N D -                    
                                      &                                       
                       - I N T E G R A L  F E E D E R -                       
                                                                              
 v1 FN, 2020, v2 2021, v3 2022-2024                                           
------------------------------------------------------------------------------


----------------------
SHARK INTEGRAL PACKAGE
----------------------

Number of atoms                             ...     20
Number of basis functions                   ...    222
Number of shells                            ...    110
Maximum angular momentum                    ...      2
Integral batch strategy                     ... SHARK/LIBINT Hybrid
RI-J (if used) integral strategy            ... SPLIT-RIJ (Revised 2003 algorithm where possible)
Printlevel                                  ...      1
Contraction scheme used                     ... SEGMENTED contraction
Prescreening option                         ... SCHWARTZ
   Thresh                                   ... 1.000e-10
   Tcut                                     ... 1.000e-11
   Tpresel                                  ... 1.000e-11 
Coulomb Range Separation                    ... NOT USED
Exchange Range Separation                   ... NOT USED
Multipole approximations                    ... NOT USED
Finite Nucleus Model                        ... NOT USED
CABS basis                                  ... NOT available
Auxiliary Coulomb fitting basis             ... AVAILABLE
   # of basis functions in Aux-J            ...    524
   # of shells in Aux-J                     ...    180
   Maximum angular momentum in Aux-J        ...      4
Auxiliary J/K fitting basis                 ... NOT available
Auxiliary Correlation fitting basis         ... NOT available
Auxiliary 'external' fitting basis          ... NOT available

Checking pre-screening integrals            ... done (  0.0 sec) Dimension = 110
Check shell pair data                       ... done (  0.0 sec)
Shell pair information
Shell pair cut-off parameter TPreSel        ...   1.0e-11
Total number of shell pairs                 ...      6105
Shell pairs after pre-screening             ...      5147
Total number of primitive shell pairs       ...     21533
Primitive shell pairs kept                  ...     12848
          la=0 lb=0:   1733 shell pairs
          la=1 lb=0:   1937 shell pairs
          la=1 lb=1:    573 shell pairs
          la=2 lb=0:    545 shell pairs
          la=2 lb=1:    309 shell pairs
          la=2 lb=2:     50 shell pairs

Calculating one electron integrals          ... done (  0.0 sec)
Calculating RI/J V-Matrix + Cholesky decomp.... done (  0.1 sec)
Calculating Nuclear repulsion               ... done (  0.0 sec) ENN=    386.363280351910 Eh

Diagonalization of the overlap matrix:
Smallest eigenvalue                        ... 1.300e-04
Time for diagonalization                   ...    0.009 sec
Threshold for overlap eigenvalues          ... 1.000e-07
Number of eigenvalues below threshold      ... 0
Time for construction of square roots      ...    0.016 sec
Total time needed                          ...    0.034 sec

-------------------
DFT GRID GENERATION
-------------------

General Integration Accuracy     IntAcc      ... 4.388
Radial Grid Type                 RadialGrid  ... OptM3 with GC (2021)
Angular Grid (max. ang.)         AngularGrid ... 4 (Lebedev-302)
Angular grid pruning method      GridPruning ... 4 (adaptive)
Weight generation scheme         WeightScheme... mBecke (2022)
Basis function cutoff            BFCut       ... 1.0000e-10
Integration weight cutoff        WCut        ... 1.0000e-14
Partially contracted basis set               ... off
Rotationally invariant grid construction     ... off
Angular grids for H and He will be reduced by one unit
Diffuse basis detected: some atoms will have their outermost
                        angular grid increased by 1.

Total number of grid points                  ...    87469
Total number of batches                      ...     1375
Average number of points per batch           ...       63
Average number of grid points per atom       ...     4373
Initializing property integral containers    ... done (  0.0 sec)

SHARK setup successfully completed in   1.3 seconds

Maximum memory used throughout the entire STARTUP-calculation: 39.2 MB
-------------------------------------------------------------------------------
                                 ORCA GUESS
                   Start orbitals & Density for SCF / CASSCF
-------------------------------------------------------------------------------

------------
SCF SETTINGS
------------
Hamiltonian:
 Density Functional     Method          .... DFT(GTOs)
  Functional kind                       .... Exchange
  Functional name                       .... Re-regularized SCAN exchange by Furness et al
  Functional family                     .... MGGA
  Functional refs                              
    [ 0] J. W. Furness, A. D. Kaplan, J. Ning, J. P. Perdew, and J. Sun.,  J. Phys. Chem. Lett. 11, 8208-8215 (2020), doi: 10.1021/acs.jpclett.0c02405
    [ 1] J. W. Furness, A. D. Kaplan, J. Ning, J. P. Perdew, and J. Sun.,  J. Phys. Chem. Lett. 11, 9248-9248 (2020), doi: 10.1021/acs.jpclett.0c03077
  Functional external parameters        .... 6
    Parameter  0 _c1        =  6.670000e-01 : c1 parameter        
    Parameter  1 _c2        =  8.000000e-01 : c2 parameter        
    Parameter  2 _d         =  1.240000e+00 : d parameter         
    Parameter  3 _k1        =  6.500000e-02 : k1 parameter        
    Parameter  4 _eta       =  1.000000e-03 : eta parameter       
    Parameter  5 _dp2       =  3.610000e-01 : dp2 parameter       
  Functional kind                       .... Correlation
  Functional name                       .... Re-regularized SCAN correlation by Furness et al
  Functional family                     .... MGGA
  Functional refs                              
    [ 0] J. W. Furness, A. D. Kaplan, J. Ning, J. P. Perdew, and J. Sun.,  J. Phys. Chem. Lett. 11, 8208-8215 (2020), doi: 10.1021/acs.jpclett.0c02405
    [ 1] J. W. Furness, A. D. Kaplan, J. Ning, J. P. Perdew, and J. Sun.,  J. Phys. Chem. Lett. 11, 9248-9248 (2020), doi: 10.1021/acs.jpclett.0c03077
  Functional external parameters        .... 1
    Parameter  0 _eta       =  1.000000e-03 : Regularization parameter
 Gradients option       PostSCFGGA      .... off
 RI-approximation to the Coulomb term is turned on
   Number of AuxJ basis functions       .... 524


General Settings:
 Integral files         IntName         .... sp_solv
 Hartree-Fock type      HFTyp           .... RHF
 Total Charge           Charge          ....    0
 Multiplicity           Mult            ....    1
 Number of Electrons    NEL             ....   64
 Basis Dimension        Dim             ....  222
 Nuclear Repulsion      ENuc            ....    386.3632803519 Eh

Convergence Acceleration:
 AO-DIIS                CNVDIIS         .... on
   Start iteration      DIISMaxIt       ....    12
   Startup error        DIISStart       ....  0.200000
   # of expansion vecs  DIISMaxEq       ....     5
   Bias factor          DIISBfac        ....   1.050
   Max. coefficient     DIISMaxC        ....  10.000
 MO-DIIS                CNVKDIIS        .... off
 Trust-Rad. Augm. Hess. CNVTRAH         .... auto
   Auto Start mean grad. ratio tolernc. ....  1.125000
   Auto Start start iteration           ....     1
   Auto Start num. interpolation iter.  ....    10
   Max. Number of Micro iterations      ....    24
   Max. Number of Macro iterations      .... Maxiter - #DIIS iter
   Number of Davidson start vectors     ....     2
   Converg. threshold    (grad. norm)   ....   3.330e-04
   Grad. Scal. Fac. for Micro threshold ....   0.100
   Minimum threshold for Micro iter.    ....   1.000e-02
   NR start threshold (gradient norm)   ....   1.000e-04
   Initial trust radius                 ....   0.400
   Minimum AH scaling param. (alpha)    ....   1.000
   Maximum AH scaling param. (alpha)    .... 1000.000
   Quad. conv. algorithm                .... NR
   White noise on init. David. guess    .... on
   Maximum white noise                  ....   0.010
   Pseudo random numbers                .... off
   Inactive MOs                         .... canonical
   Orbital update algorithm             .... Taylor
   Preconditioner                       .... Diag
   Full preconditioner red. dimension   ....   250
   COSX micro iterations for RIJONX calc.... off
 SOSCF                  CNVSOSCF        .... on
   Start iteration      SOSCFMaxIt      ....   150
   Startup grad/error   SOSCFStart      ....  0.003300
   Hessian update       SOSCFHessUp     .... L-BFGS
 Level Shifting         CNVShift        .... on
   Level shift para.    LevelShift      ....    0.2500
   Turn off err/grad.   ShiftErr        ....    0.0010
 Zerner damping         CNVZerner       .... off
 Static damping         CNVDamp         .... on
   Fraction old density DampFac         ....    0.7000
   Max. Damping (<1)    DampMax         ....    0.9800
   Min. Damping (>=0)   DampMin         ....    0.0000
   Turn off err/grad.   DampErr         ....    0.1000

SCF Procedure:
 Maximum # iterations   MaxIter         ....   125
 SCF integral mode      SCFMode         .... Direct
   Integral package                     .... SHARK and LIBINT hybrid scheme
 Reset frequency        DirectResetFreq ....    20
 Integral Threshold     Thresh          ....  1.000e-10 Eh
 Primitive CutOff       TCut            ....  1.000e-11 Eh

Convergence Tolerance:
 Convergence Check Mode ConvCheckMode   .... Total+1el-Energy
 Convergence forced     ConvForced      .... 0
 Energy Change          TolE            ....  1.000e-06 Eh
 1-El. energy change                    ....  1.000e-03 Eh
 Orbital Gradient       TolG            ....  3.330e-04
 Orbital Rotation angle TolX            ....  3.330e-04
 DIIS Error             TolErr          ....  1.000e-06

---------------------
INITIAL GUESS: MOREAD
---------------------
Guess MOs are being read from file: sp_solv.ges
Input Geometry matches current geometry (good)
Atom 0: N(Shells)= 9 and 6 - projection required
Input basis set needs projection
NBasis(read)= 136
NBasis(calc)= 222
Basis set overlap was calculated
Using GuessMode=FMatrix for the initial guess
C*T matrix was formed
Effective Fockian was calculated
Effective Fockian was diagonalized
Initial density was built
                      ------------------
                      INITIAL GUESS DONE (   0.0 sec)
                      ------------------
             **** ENERGY FILE WAS UPDATED (sp_solv.en.tmp) ****
Finished Guess after   0.3 sec
Maximum memory used throughout the entire GUESS-calculation: 14.8 MB

-------------------------------------------------------------------------------------------
                                      ORCA LEAN-SCF
                              memory conserving SCF solver
-------------------------------------------------------------------------------------------

--------------------
CPCM SOLVATION MODEL
--------------------
CPCM parameters:
  Epsilon                                         ...      78.3550
  Refrac                                          ...       1.3328
  Rsolv                                           ...       1.3000
  Surface type                                    ... GAUSSIAN VDW
  Discretization scheme                           ... Constant charge density
    Threshold for H atoms                         ...       5.0000 (charges/Ang^2)
    Threshold for non-H atoms                     ...       5.0000 (charges/Ang^2)
  Epsilon function type                           ...         CPCM
Solvent:                                          ... WATER
SMD-CDS solvent descriptors:
  Soln                                            ...       1.3328
  Soln25                                          ...       1.3323
  Sola                                            ...       0.0000
  Solb                                            ...       0.0000
  Solg                                            ...       0.0000
  Solc                                            ...       0.0000
  Solh                                            ...       0.0000
Radii:
  Scheme                                          ... Element-dependent radii
  Radius for C  used is    3.4960 Bohr (=   1.8500 Ang.)
  Radius for O  used is    2.8724 Bohr (=   1.5200 Ang.)
  Radius for H  used is    2.2677 Bohr (=   1.2000 Ang.)
Calculating surface                               ...        done! (  0.0s)
Cavity surface points                             ...         1503
Cavity Volume                                     ...     879.7181
Cavity Surface-area                               ...     591.5804
Calculating surface distance matrix               ...        done! (  0.0s)
Performing Cholesky decomposition & store         ...        done! (  0.1s)
Overall time for CPCM initialization              ...                 0.1s

----------------------------------------D-I-I-S--------------------------------------------
Iteration    Energy (Eh)           Delta-E    RMSDP     MaxDP     DIISErr   Damp  Time(sec)
-------------------------------------------------------------------------------------------
               ***  Starting incremental Fock matrix formation  ***
    1    -386.0570195215442482     0.00e+00  3.62e-03  1.33e-01  6.27e-01  0.700   3.6
    2    -386.1159687785255983    -5.89e-02  2.94e-03  9.76e-02  4.40e-01  0.700   3.3
    3    -386.1576973114564453    -4.17e-02  2.16e-03  6.89e-02  3.09e-01  0.700   3.5
    4    -386.1870347064667612    -2.93e-02  1.55e-03  4.85e-02  2.17e-01  0.700   3.3
                               ***Turning on AO-DIIS***
    5    -386.2076379163333968    -2.06e-02  1.13e-03  3.50e-02  1.52e-01  0.700   3.2
    6    -386.2220846210278751    -1.44e-02  8.02e-04  2.48e-02  1.06e-01  0.700   3.1
    7    -386.2322271573833632    -1.01e-02  5.67e-04  1.75e-02  7.41e-02  0.700   3.1
    8    -386.2393361209821023    -7.11e-03  1.33e-03  4.08e-02  5.20e-02  0.000   3.0
                              *** Initializing SOSCF ***
---------------------------------------S-O-S-C-F--------------------------------------
Iteration    Energy (Eh)           Delta-E    RMSDP     MaxDP     MaxGrad    Time(sec)
--------------------------------------------------------------------------------------
    9    -386.2559587955538518    -1.66e-02  1.26e-05  3.72e-04  1.84e-04     3.3
               *** Restarting incremental Fock matrix formation ***
   10    -386.2559589420812927    -1.47e-07  6.91e-06  1.82e-04  4.42e-05     3.5
                  *** Gradient check signals convergence ***

               *****************************************************
               *                     SUCCESS                       *
               *           SCF CONVERGED AFTER  10 CYCLES          *
               *****************************************************


SMD CDS free energy correction energy :                 5.06633     Kcal/mol
Total Energy after SMD CDS correction =              -386.247885240 Eh
             **** ENERGY FILE WAS UPDATED (sp_solv.en.tmp) ****

----------------
TOTAL SCF ENERGY
----------------

Total Energy       :       -386.24788523961416 Eh          -10510.33929 eV

Components:
Nuclear Repulsion  :        386.36328035190979 Eh           10513.47935 eV
Electronic Energy  :       -772.60273145696544 Eh          -21023.58914 eV
One Electron Energy:      -1289.98350157320192 Eh          -35102.23564 eV
Two Electron Energy:        517.38077011623648 Eh           14078.64650 eV
CPCM Dielectric    :         -0.01650783702564 Eh              -0.44920 eV
SMD CDS (Gcds)     :          0.00807370246712 Eh               0.21970 eV

Virial components:
Potential Energy   :       -770.89275871351913 Eh          -20977.05842 eV
Kinetic Energy     :        384.64487347390497 Eh           10466.71912 eV
Virial Ratio       :          2.00416751106347

DFT components:
N(Alpha)           :       32.000028112949 electrons
N(Beta)            :       32.000028112949 electrons
N(Total)           :       64.000056225898 electrons
E(X)               :      -52.085820675789 Eh       
E(C)               :       -2.036429301988 Eh       
E(XC)              :      -54.122249977777 Eh       

CPCM Solvation Model Properties:
Surface-charge          :         -0.04846822156676
Corrected charge        :         -0.00000000000000
Outlying charge corr.   :          0.00017444792398 Eh               0.00475 eV
Free-energy (cav+disp)  :          0.00807370246712 Eh               0.21970 eV

---------------
SCF CONVERGENCE
---------------

  Last Energy change         ...    1.4653e-07  Tolerance :   1.0000e-06
  Last MAX-Density change    ...    1.8234e-04  Tolerance :   1.0000e-05
  Last RMS-Density change    ...    6.9076e-06  Tolerance :   1.0000e-06
  Last DIIS Error            ...    1.8388e-04  Tolerance :   1.0000e-06
  Last Orbital Gradient      ...    4.4213e-05  Tolerance :   3.3300e-04
  Last Orbital Rotation      ...    1.0120e-04  Tolerance :   3.3300e-04


----------------
ORBITAL ENERGIES
----------------

  NO   OCC          E(Eh)            E(eV) 
   0   2.0000     -19.002340      -517.0800 
   1   2.0000     -18.942723      -515.4577 
   2   2.0000     -10.161238      -276.5013 
   3   2.0000     -10.083821      -274.3947 
   4   2.0000     -10.034850      -273.0621 
   5   2.0000     -10.030460      -272.9427 
   6   2.0000     -10.018812      -272.6257 
   7   2.0000     -10.012000      -272.4404 
   8   2.0000      -1.079200       -29.3665 
   9   2.0000      -0.987607       -26.8742 
  10   2.0000      -0.770366       -20.9627 
  11   2.0000      -0.735110       -20.0033 
  12   2.0000      -0.674084       -18.3428 
  13   2.0000      -0.607373       -16.5275 
  14   2.0000      -0.559901       -15.2357 
  15   2.0000      -0.533005       -14.5038 
  16   2.0000      -0.470353       -12.7990 
  17   2.0000      -0.459679       -12.5085 
  18   2.0000      -0.446253       -12.1432 
  19   2.0000      -0.425527       -11.5792 
  20   2.0000      -0.402385       -10.9495 
  21   2.0000      -0.380975       -10.3668 
  22   2.0000      -0.365300        -9.9403 
  23   2.0000      -0.360383        -9.8065 
  24   2.0000      -0.348396        -9.4803 
  25   2.0000      -0.336223        -9.1491 
  26   2.0000      -0.321403        -8.7458 
  27   2.0000      -0.312955        -8.5159 
  28   2.0000      -0.304798        -8.2940 
  29   2.0000      -0.300430        -8.1751 
  30   2.0000      -0.276377        -7.5206 
  31   2.0000      -0.248335        -6.7575 
  32   0.0000      -0.022728        -0.6185 
  33   0.0000       0.077634         2.1125 
  34   0.0000       0.104461         2.8425 
  35   0.0000       0.115707         3.1486 
  36   0.0000       0.128296         3.4911 
  37   0.0000       0.135802         3.6954 
  38   0.0000       0.146667         3.9910 
  39   0.0000       0.147590         4.0161 
  40   0.0000       0.153202         4.1688 
  41   0.0000       0.165379         4.5002 
  42   0.0000       0.173907         4.7323 
*Only the first 10 virtual orbitals were printed.

                    ********************************
                    * MULLIKEN POPULATION ANALYSIS *
                    ********************************

-----------------------
MULLIKEN ATOMIC CHARGES
-----------------------
   0 C :   -0.517342
   1 C :   -0.219007
   2 C :   -0.368119
   3 C :    0.454242
   4 O :   -0.513918
   5 O :   -0.186813
   6 C :   -0.151453
   7 C :   -0.489976
   8 H :    0.162473
   9 H :    0.159002
  10 H :    0.159074
  11 H :    0.157721
  12 H :    0.157447
  13 H :    0.176925
  14 H :    0.176633
  15 H :    0.172223
  16 H :    0.171808
  17 H :    0.168759
  18 H :    0.165854
  19 H :    0.164466
Sum of atomic charges:   -0.0000000

--------------------------------
MULLIKEN REDUCED ORBITAL CHARGES
--------------------------------
  0 C s       :     3.356040  s :     3.356040
      pz      :     1.073435  p :     3.134363
      px      :     0.965890
      py      :     1.095038
      dz2     :     0.005559  d :     0.026939
      dxz     :     0.004742
      dyz     :     0.005023
      dx2y2   :     0.003745
      dxy     :     0.007870

  1 C s       :     3.194870  s :     3.194870
      pz      :     1.015899  p :     2.987083
      px      :     0.955708
      py      :     1.015476
      dz2     :     0.008225  d :     0.037054
      dxz     :     0.006362
      dyz     :     0.006423
      dx2y2   :     0.006040
      dxy     :     0.010005

  2 C s       :     3.298130  s :     3.298130
      pz      :     1.015833  p :     3.035496
      px      :     0.953278
      py      :     1.066385
      dz2     :     0.007284  d :     0.034493
      dxz     :     0.006907
      dyz     :     0.005714
      dx2y2   :     0.007129
      dxy     :     0.007459

  3 C s       :     3.131880  s :     3.131880
      pz      :     0.734598  p :     2.288795
      px      :     0.805252
      py      :     0.748945
      dz2     :     0.020920  d :     0.125082
      dxz     :     0.024732
      dyz     :     0.017579
      dx2y2   :     0.026592
      dxy     :     0.035260

  4 O s       :     3.831355  s :     3.831355
      pz      :     1.436748  p :     4.659459
      px      :     1.800413
      py      :     1.422298
      dz2     :     0.005739  d :     0.023105
      dxz     :     0.002104
      dyz     :     0.008143
      dx2y2   :     0.005166
      dxy     :     0.001953

  5 O s       :     3.702667  s :     3.702667
      pz      :     1.688257  p :     4.443311
      px      :     1.151691
      py      :     1.603363
      dz2     :     0.007881  d :     0.040836
      dxz     :     0.014124
      dyz     :     0.006879
      dx2y2   :     0.002017
      dxy     :     0.009934

  6 C s       :     3.288219  s :     3.288219
      pz      :     1.015828  p :     2.809893
      px      :     0.720892
      py      :     1.073172
      dz2     :     0.012753  d :     0.053342
      dxz     :     0.011936
      dyz     :     0.004184
      dx2y2   :     0.014788
      dxy     :     0.009681

  7 C s       :     3.337241  s :     3.337241
      pz      :     1.051768  p :     3.127103
      px      :     1.033380
      py      :     1.041954
      dz2     :     0.006963  d :     0.025633
      dxz     :     0.004724
      dyz     :     0.003143
      dx2y2   :     0.006531
      dxy     :     0.004272

  8 H s       :     0.819156  s :     0.819156
      pz      :     0.006118  p :     0.018371
      px      :     0.005369
      py      :     0.006885

  9 H s       :     0.822724  s :     0.822724
      pz      :     0.009758  p :     0.018274
      px      :     0.003597
      py      :     0.004919

 10 H s       :     0.822653  s :     0.822653
      pz      :     0.003757  p :     0.018273
      px      :     0.006043
      py      :     0.008473

 11 H s       :     0.824456  s :     0.824456
      pz      :     0.009813  p :     0.017823
      px      :     0.003450
      py      :     0.004559

 12 H s       :     0.824700  s :     0.824700
      pz      :     0.003506  p :     0.017852
      px      :     0.005736
      py      :     0.008610

 13 H s       :     0.805030  s :     0.805030
      pz      :     0.010053  p :     0.018045
      px      :     0.003350
      py      :     0.004642

 14 H s       :     0.805462  s :     0.805462
      pz      :     0.003330  p :     0.017905
      px      :     0.005602
      py      :     0.008974

 15 H s       :     0.810306  s :     0.810306
      pz      :     0.011283  p :     0.017472
      px      :     0.002247
      py      :     0.003942

 16 H s       :     0.810467  s :     0.810467
      pz      :     0.003157  p :     0.017725
      px      :     0.002984
      py      :     0.011584

 17 H s       :     0.812750  s :     0.812750
      pz      :     0.004693  p :     0.018491
      px      :     0.010143
      py      :     0.003655

 18 H s       :     0.815851  s :     0.815851
      pz      :     0.010665  p :     0.018295
      px      :     0.003535
      py      :     0.004095

 19 H s       :     0.817209  s :     0.817209
      pz      :     0.003591  p :     0.018324
      px      :     0.004086
      py      :     0.010648


------------------------
MULLIKEN OVERLAP CHARGES
------------------------
B(  0-C ,  1-C ) :   0.4654 B(  0-C ,  2-C ) :  -0.1833 B(  0-C ,  8-H ) :   0.8051 
B(  0-C ,  9-H ) :   0.8605 B(  0-C , 10-H ) :   0.8581 B(  1-C ,  2-C ) :   0.4719 
B(  1-C ,  8-H ) :  -0.0805 B(  1-C ,  9-H ) :  -0.0998 B(  1-C , 10-H ) :  -0.0947 
B(  1-C , 11-H ) :   0.8300 B(  1-C , 12-H ) :   0.8358 B(  1-C , 13-H ) :  -0.0595 
B(  1-C , 14-H ) :  -0.0638 B(  2-C ,  3-C ) :   0.4210 B(  2-C ,  4-O ) :  -0.0867 
B(  2-C , 11-H ) :  -0.0575 B(  2-C , 12-H ) :  -0.0579 B(  2-C , 13-H ) :   0.8612 
B(  2-C , 14-H ) :   0.8822 B(  3-C ,  4-O ) :   0.9418 B(  3-C ,  5-O ) :   0.3765 
B(  3-C ,  6-C ) :  -0.1904 B(  3-C , 13-H ) :  -0.1050 B(  3-C , 14-H ) :  -0.1112 
B(  4-O ,  5-O ) :  -0.2227 B(  5-O ,  6-C ) :   0.2747 B(  5-O ,  7-C ) :  -0.0907 
B(  5-O , 15-H ) :  -0.0706 B(  5-O , 16-H ) :  -0.0711 B(  6-C ,  7-C ) :   0.4498 
B(  6-C , 15-H ) :   0.7736 B(  6-C , 16-H ) :   0.8454 B(  6-C , 17-H ) :  -0.0673 
B(  6-C , 18-H ) :  -0.0819 B(  7-C , 16-H ) :  -0.0570 B(  7-C , 17-H ) :   0.8129 
B(  7-C , 18-H ) :   0.8440 B(  7-C , 19-H ) :   0.8153 B(  9-H , 10-H ) :  -0.0518 
B( 15-H , 16-H ) :  -0.0654 B( 18-H , 19-H ) :  -0.0502 


                     *******************************
                     * LOEWDIN POPULATION ANALYSIS *
                     *******************************

----------------------
LOEWDIN ATOMIC CHARGES
----------------------
   0 C :   -0.424766
   1 C :   -0.285248
   2 C :   -0.228218
   3 C :    0.362980
   4 O :   -0.491774
   5 O :   -0.600002
   6 C :    0.036383
   7 C :   -0.389901
   8 H :    0.156437
   9 H :    0.154867
  10 H :    0.154872
  11 H :    0.161390
  12 H :    0.161618
  13 H :    0.185344
  14 H :    0.182474
  15 H :    0.183496
  16 H :    0.186812
  17 H :    0.168237
  18 H :    0.162408
  19 H :    0.162592

-------------------------------
LOEWDIN REDUCED ORBITAL CHARGES
-------------------------------
  0 C s       :     2.973980  s :     2.973980
      pz      :     1.147346  p :     3.387981
      px      :     1.086648
      py      :     1.153987
      dz2     :     0.013132  d :     0.062805
      dxz     :     0.010672
      dyz     :     0.012353
      dx2y2   :     0.008394
      dxy     :     0.018254

  1 C s       :     2.935355  s :     2.935355
      pz      :     1.107325  p :     3.270062
      px      :     1.065394
      py      :     1.097342
      dz2     :     0.017884  d :     0.079831
      dxz     :     0.013318
      dyz     :     0.014353
      dx2y2   :     0.012432
      dxy     :     0.021844

  2 C s       :     2.927053  s :     2.927053
      pz      :     1.097567  p :     3.228082
      px      :     1.019120
      py      :     1.111396
      dz2     :     0.015902  d :     0.073082
      dxz     :     0.013708
      dyz     :     0.012761
      dx2y2   :     0.013405
      dxy     :     0.017306

  3 C s       :     2.737321  s :     2.737321
      pz      :     0.820941  p :     2.627811
      px      :     0.937815
      py      :     0.869055
      dz2     :     0.039949  d :     0.271887
      dxz     :     0.051461
      dyz     :     0.045517
      dx2y2   :     0.056775
      dxy     :     0.078186

  4 O s       :     3.545642  s :     3.545642
      pz      :     1.489124  p :     4.730944
      px      :     1.741922
      py      :     1.499897
      dz2     :     0.034052  d :     0.215189
      dxz     :     0.037116
      dyz     :     0.059860
      dx2y2   :     0.038819
      dxy     :     0.045342

  5 O s       :     3.461187  s :     3.461187
      pz      :     1.675698  p :     4.658102
      px      :     1.352585
      py      :     1.629819
      dz2     :     0.079471  d :     0.480713
      dxz     :     0.105248
      dyz     :     0.044549
      dx2y2   :     0.124112
      dxy     :     0.127334

  6 C s       :     2.869342  s :     2.869342
      pz      :     1.045523  p :     2.974897
      px      :     0.839207
      py      :     1.090167
      dz2     :     0.029387  d :     0.119378
      dxz     :     0.026698
      dyz     :     0.008267
      dx2y2   :     0.032553
      dxy     :     0.022472

  7 C s       :     2.971594  s :     2.971594
      pz      :     1.133374  p :     3.358292
      px      :     1.099836
      py      :     1.125082
      dz2     :     0.016905  d :     0.060016
      dxz     :     0.010801
      dyz     :     0.007240
      dx2y2   :     0.015813
      dxy     :     0.009257

  8 H s       :     0.799607  s :     0.799607
      pz      :     0.014835  p :     0.043956
      px      :     0.012546
      py      :     0.016576

  9 H s       :     0.801304  s :     0.801304
      pz      :     0.024245  p :     0.043830
      px      :     0.008148
      py      :     0.011437

 10 H s       :     0.801305  s :     0.801305
      pz      :     0.008318  p :     0.043823
      px      :     0.014374
      py      :     0.021131

 11 H s       :     0.795080  s :     0.795080
      pz      :     0.024416  p :     0.043530
      px      :     0.008203
      py      :     0.010911

 12 H s       :     0.794762  s :     0.794762
      pz      :     0.008113  p :     0.043620
      px      :     0.014006
      py      :     0.021501

 13 H s       :     0.770138  s :     0.770138
      pz      :     0.024984  p :     0.044518
      px      :     0.007831
      py      :     0.011702

 14 H s       :     0.773615  s :     0.773615
      pz      :     0.007760  p :     0.043911
      px      :     0.013475
      py      :     0.022675

 15 H s       :     0.775412  s :     0.775412
      pz      :     0.026481  p :     0.041093
      px      :     0.005377
      py      :     0.009234

 16 H s       :     0.771200  s :     0.771200
      pz      :     0.007268  p :     0.041988
      px      :     0.006560
      py      :     0.028160

 17 H s       :     0.787358  s :     0.787358
      pz      :     0.011132  p :     0.044405
      px      :     0.025008
      py      :     0.008265

 18 H s       :     0.793776  s :     0.793776
      pz      :     0.026617  p :     0.043816
      px      :     0.007724
      py      :     0.009475

 19 H s       :     0.793576  s :     0.793576
      pz      :     0.008021  p :     0.043832
      px      :     0.009395
      py      :     0.026416


---------------------------------
LOEWDIN BOND ORDERS (THRESH 0.050000)
---------------------------------
B(  0-C ,  1-C ) :   1.1430 B(  0-C ,  2-C ) :   0.0740 B(  0-C ,  8-H ) :   0.9265 
B(  0-C ,  9-H ) :   0.9282 B(  0-C , 10-H ) :   0.9281 B(  1-C ,  2-C ) :   1.0673 
B(  1-C ,  3-C ) :   0.0851 B(  1-C , 11-H ) :   0.8907 B(  1-C , 12-H ) :   0.8905 
B(  2-C ,  3-C ) :   0.9328 B(  2-C ,  4-O ) :   0.1831 B(  2-C ,  5-O ) :   0.1833 
B(  2-C , 13-H ) :   0.8618 B(  2-C , 14-H ) :   0.8678 B(  3-C ,  4-O ) :   2.1354 
B(  3-C ,  5-O ) :   1.4696 B(  3-C ,  6-C ) :   0.0892 B(  4-O ,  5-O ) :   0.4572 
B(  4-O ,  6-C ) :   0.0715 B(  5-O ,  6-C ) :   1.2893 B(  5-O ,  7-C ) :   0.1701 
B(  5-O , 15-H ) :   0.0943 B(  5-O , 16-H ) :   0.0925 B(  6-C ,  7-C ) :   1.0911 
B(  6-C , 15-H ) :   0.8257 B(  6-C , 16-H ) :   0.8179 B(  7-C , 17-H ) :   0.9155 
B(  7-C , 18-H ) :   0.9219 B(  7-C , 19-H ) :   0.9205 

------------------------------------------
LOEWDIN REDUCED ORBITAL POPULATIONS PER MO
-------------------------------------------
THRESHOLD FOR PRINTING IS 0.1%%
                      0         1         2         3         4         5   
                 -19.00234 -18.94272 -10.16124 -10.08382 -10.03485 -10.03046
                   2.00000   2.00000   2.00000   2.00000   2.00000   2.00000
                  --------  --------  --------  --------  --------  --------
 1 C  s               0.0       0.0       0.0       0.0       0.0      99.7
 2 C  s               0.0       0.0       0.0       0.0      99.6       0.0
 3 C  s               0.0       0.0      98.9       0.0       0.0       0.0
 4 O  s               0.0      99.9       0.0       0.0       0.0       0.0
 4 O  py              0.0       0.0       0.1       0.0       0.0       0.0
 4 O  dyz             0.0       0.0       0.2       0.0       0.0       0.0
 5 O  s              99.9       0.0       0.0       0.0       0.0       0.0
 5 O  dxz             0.0       0.0       0.0       0.1       0.0       0.0
 5 O  dx2y2           0.0       0.0       0.0       0.1       0.0       0.0
 5 O  dxy             0.0       0.0       0.2       0.0       0.0       0.0
 6 C  s               0.0       0.0       0.0      99.4       0.0       0.0

                      6         7         8         9        10        11   
                 -10.01881 -10.01200  -1.07920  -0.98761  -0.77037  -0.73511
                   2.00000   2.00000   2.00000   2.00000   2.00000   2.00000
                  --------  --------  --------  --------  --------  --------
 0 C  s               0.0      99.7       0.0       0.0       7.0       6.6
 0 C  pz              0.0       0.0       0.0       0.0       0.2       0.1
 0 C  px              0.0       0.0       0.0       0.0       1.8       0.8
 0 C  py              0.0       0.0       0.0       0.0       0.2       0.1
 1 C  s               0.0       0.0       0.1       0.0      17.7       8.5
 1 C  pz              0.0       0.0       0.0       0.0       1.1       0.2
 1 C  px              0.0       0.1       0.2       0.0       0.1       0.5
 1 C  py              0.0       0.0       0.1       0.0       0.6       0.0
 2 C  s               0.0       0.0       1.0       0.2      20.1       1.7
 2 C  pz              0.0       0.0       0.3       0.2       0.8       0.2
 2 C  px              0.0       0.0       1.7       0.1       0.1       1.7
 2 C  py              0.0       0.0       0.0       0.2       0.9       0.4
 3 C  s               0.0       0.0      16.9       3.2       3.3       0.9
 3 C  pz              0.0       0.0       0.2       7.0       2.2       0.4
 3 C  px              0.0       0.0       4.5       1.1       5.2       0.9
 3 C  py              0.0       0.0       0.2      15.5       2.3       1.1
 3 C  dz2             0.0       0.0       0.1       0.1       0.0       0.0
 3 C  dxz             0.0       0.0       0.0       0.2       0.0       0.0
 3 C  dyz             0.0       0.0       0.6       0.7       0.0       0.0
 3 C  dx2y2           0.0       0.0       0.0       0.4       0.1       0.0
 3 C  dxy             0.0       0.0       0.3       0.5       0.0       0.1
 4 O  s               0.0       0.0      14.1      41.2       1.4       0.2
 4 O  pz              0.0       0.0       1.2       1.3       0.2       0.0
 4 O  px              0.0       0.0       0.0       0.2       0.2       0.0
 4 O  py              0.0       0.0       2.0       1.7       0.2       0.1
 4 O  dxz             0.0       0.0       0.0       0.1       0.1       0.0
 4 O  dyz             0.0       0.0       1.0       0.1       0.2       0.1
 4 O  dx2y2           0.0       0.0       0.3       0.0       0.0       0.1
 4 O  dxy             0.0       0.0       0.1       0.2       0.2       0.0
 5 O  s               0.0       0.0      39.7      18.3       0.0       0.8
 5 O  pz              0.0       0.0       0.8       0.1       0.2       0.2
 5 O  px              0.0       0.0       0.2       0.5       6.6       9.6
 5 O  py              0.0       0.0       1.9       0.4       0.2       0.8
 5 O  dz2             0.0       0.0       0.2       0.0       0.0       0.2
 5 O  dxz             0.0       0.0       0.0       0.3       0.1       0.4
 5 O  dyz             0.0       0.0       0.3       0.4       0.0       0.0
 5 O  dx2y2           0.0       0.0       0.0       0.4       0.0       1.1
 5 O  dxy             0.0       0.0       0.4       0.3       0.2       0.0
 6 C  s               0.0       0.0       4.1       1.9       5.1      16.7
 6 C  pz              0.0       0.0       0.6       0.5       0.2       0.4
 6 C  px              0.0       0.0       4.7       1.3       0.1       1.9
 6 C  py              0.0       0.0       0.0       0.2       0.2       0.9
 6 C  dxz             0.0       0.0       0.1       0.1       0.0       0.0
 6 C  dx2y2           0.0       0.0       0.2       0.1       0.0       0.0
 7 C  s              99.7       0.0       0.3       0.2       2.9      18.4
 7 C  pz              0.0       0.0       0.1       0.0       0.1       0.5
 7 C  px              0.0       0.0       0.4       0.3       0.4       0.8
 7 C  py              0.0       0.0       0.1       0.1       0.2       0.6
 8 H  s               0.0       0.0       0.0       0.0       0.9       1.0
 9 H  s               0.0       0.0       0.0       0.0       0.9       1.0
10 H  s               0.0       0.0       0.0       0.0       0.9       1.0
11 H  s               0.0       0.0       0.0       0.0       2.3       1.3
11 H  pz              0.0       0.0       0.0       0.0       0.2       0.1
12 H  s               0.0       0.0       0.0       0.0       2.3       1.2
12 H  py              0.0       0.0       0.0       0.0       0.2       0.1
13 H  s               0.0       0.0       0.1       0.0       2.9       0.2
13 H  pz              0.0       0.0       0.0       0.0       0.2       0.0
14 H  s               0.0       0.0       0.1       0.0       2.6       0.3
14 H  py              0.0       0.0       0.0       0.0       0.2       0.0
15 H  s               0.0       0.0       0.2       0.1       0.7       2.7
15 H  pz              0.0       0.0       0.0       0.0       0.1       0.2
16 H  s               0.0       0.0       0.3       0.1       0.7       2.6
16 H  py              0.0       0.0       0.0       0.0       0.1       0.2
17 H  s               0.0       0.0       0.0       0.0       0.4       2.9
17 H  px              0.0       0.0       0.0       0.0       0.0       0.2
18 H  s               0.0       0.0       0.0       0.0       0.4       2.8
18 H  pz              0.0       0.0       0.0       0.0       0.0       0.2
19 H  s               0.0       0.0       0.0       0.0       0.4       2.9
19 H  py              0.0       0.0       0.0       0.0       0.0       0.2

                     12        13        14        15        16        17   
                  -0.67408  -0.60737  -0.55990  -0.53300  -0.47035  -0.45968
                   2.00000   2.00000   2.00000   2.00000   2.00000   2.00000
                  --------  --------  --------  --------  --------  --------
 0 C  s              20.1       5.3       8.4       0.0       0.3       0.0
 0 C  pz              0.1       0.0       2.3       0.2       0.5       1.0
 0 C  px              0.1       0.9       5.7       0.1       1.8       0.0
 0 C  py              0.0       0.2       0.1       0.1       0.3       0.1
 1 C  s               2.8       1.1      14.4       0.6       0.1       0.3
 1 C  pz              0.0       0.0       4.7       0.9       4.2       2.0
 1 C  px              7.1       2.0       2.5       0.1       0.0       0.9
 1 C  py              2.5       1.0       0.4       0.5       0.0       0.2
 1 C  dxz             0.1       0.0       0.0       0.0       0.0       0.0
 2 C  s              10.9       3.4       3.1       1.4       1.2       0.1
 2 C  pz              0.1       0.0       4.0       1.0      10.4       0.6
 2 C  px              2.2       1.4       1.0       1.0       4.3       0.1
 2 C  py              0.9       0.0       4.5       0.5       2.3       3.5
 2 C  dxz             0.0       0.0       0.1       0.0       0.2       0.0
 2 C  dyz             0.0       0.0       0.1       0.0       0.0       0.0
 3 C  s               2.6       1.6       0.7       2.6       2.6       1.0
 3 C  pz              1.9       0.4       1.6       0.2       1.9       2.1
 3 C  px              5.0       1.6       1.5       1.7      10.4       0.1
 3 C  py              0.4       1.2       0.4       1.5       0.7       6.3
 3 C  dx2y2           0.1       0.0       0.0       0.0       0.0       0.1
 4 O  s               0.8       0.1       0.4       2.3       4.4       5.5
 4 O  pz              0.3       0.1       0.6       0.6       2.1      14.3
 4 O  px              0.4       0.1       0.2       0.9       9.2       0.1
 4 O  py              0.2       0.2       0.0       2.9       8.0       3.3
 4 O  dz2             0.0       0.0       0.0       0.0       0.0       0.2
 4 O  dxz             0.2       0.0       0.1       0.1       0.4       0.0
 4 O  dyz             0.2       0.1       0.1       0.2       0.1       0.3
 4 O  dx2y2           0.0       0.2       0.0       0.1       0.1       0.1
 4 O  dxy             0.2       0.0       0.0       0.1       0.6       0.0
 5 O  s               1.0       0.0       0.5       5.6       0.1       0.2
 5 O  pz              0.2       0.8       0.0       4.0       2.0       3.7
 5 O  px              1.3      15.9       0.3       8.5       0.6       6.1
 5 O  py              0.0       1.2       0.3       9.7       7.4      11.1
 5 O  dz2             0.4       0.0       0.0       0.0       0.0       0.4
 5 O  dxz             0.0       0.7       0.5       0.4       0.1       0.3
 5 O  dx2y2           0.9       0.1       0.2       0.1       0.3       0.2
 5 O  dxy             0.4       0.6       0.0       0.2       0.9       0.0
 6 C  s               0.6       4.8       2.0       6.4       0.1       0.1
 6 C  pz              0.1       1.0       0.6       9.5       0.5      11.0
 6 C  px              2.7       4.7       0.0       4.6       0.7       0.2
 6 C  py              0.3       1.2       0.6       5.7       6.4       6.2
 6 C  dxz             0.1       0.2       0.0       0.2       0.0       0.0
 6 C  dx2y2           0.0       0.0       0.0       0.2       0.0       0.0
 6 C  dxy             0.0       0.1       0.0       0.0       0.0       0.0
 7 C  s               7.6      16.1       1.2       0.6       0.1       0.0
 7 C  pz              0.0       0.7       0.4       2.7       0.5       3.5
 7 C  px              0.0       2.2       0.3       0.2       1.0       0.0
 7 C  py              0.0       0.9       0.5       1.9       0.7       1.6
 8 H  s               4.3       1.8       3.2       0.0       1.0       0.0
 8 H  pz              0.1       0.1       0.1       0.0       0.0       0.0
 8 H  py              0.2       0.1       0.1       0.0       0.0       0.0
 9 H  s               3.9       1.5       4.0       0.1       0.0       0.4
 9 H  pz              0.3       0.1       0.2       0.0       0.0       0.0
10 H  s               3.9       1.5       4.1       0.1       0.2       0.0
10 H  px              0.1       0.0       0.1       0.0       0.0       0.0
10 H  py              0.2       0.1       0.2       0.0       0.0       0.0
11 H  s               0.5       0.3       6.6       0.4       0.7       1.3
11 H  pz              0.0       0.0       0.4       0.0       0.0       0.1
11 H  py              0.0       0.0       0.1       0.0       0.0       0.0
12 H  s               0.5       0.2       6.9       0.5       0.0       0.0
12 H  px              0.0       0.0       0.1       0.0       0.0       0.0
12 H  py              0.0       0.0       0.4       0.0       0.0       0.0
13 H  s               2.3       0.6       1.8       0.8       5.5       1.1
13 H  pz              0.2       0.0       0.1       0.0       0.2       0.1
14 H  s               2.2       1.3       2.3       1.5       0.5       0.4
14 H  py              0.1       0.1       0.1       0.1       0.1       0.0
15 H  s               0.1       1.7       1.0       6.3       0.7       5.3
15 H  pz              0.0       0.1       0.1       0.3       0.1       0.2
15 H  py              0.0       0.0       0.0       0.1       0.0       0.0
16 H  s               0.1       1.4       1.1       7.3       2.1       1.4
16 H  py              0.0       0.1       0.1       0.4       0.1       0.1
17 H  s               1.8       5.5       0.4       0.0       0.3       0.1
17 H  px              0.1       0.3       0.0       0.0       0.0       0.0
18 H  s               1.5       4.8       0.6       0.8       0.4       1.4
18 H  pz              0.1       0.3       0.0       0.0       0.0       0.1
19 H  s               1.5       4.6       0.6       1.0       0.2       0.4
19 H  py              0.1       0.3       0.0       0.1       0.0       0.0

                     18        19        20        21        22        23   
                  -0.44625  -0.42553  -0.40239  -0.38097  -0.36530  -0.36038
                   2.00000   2.00000   2.00000   2.00000   2.00000   2.00000
                  --------  --------  --------  --------  --------  --------
 0 C  pz              0.5       3.5       5.3       6.8       0.2      16.1
 0 C  px              0.1       2.8       0.9       2.9       2.1       0.7
 0 C  py              3.1       7.8       0.2      12.5       3.9       0.3
 0 C  dyz             0.0       0.0       0.0       0.1       0.0       0.1
 1 C  s               0.0       0.0       0.3       0.3       0.0       0.1
 1 C  pz              1.6       6.6       1.8       4.8       0.2       0.6
 1 C  px              0.6       4.3       3.2       0.5       0.1       2.5
 1 C  py              5.1      14.6       2.1       2.6       1.2       0.2
 2 C  s               0.7       0.0       0.1       0.8       0.0       0.1
 2 C  pz              0.2       3.5       5.4       0.8       0.0      12.6
 2 C  px             12.1       1.9       0.0       1.4       1.7       0.0
 2 C  py              0.3       7.0       2.9       2.7       3.9       1.0
 2 C  dz2             0.0       0.0       0.0       0.0       0.0       0.1
 3 C  s               0.3       0.4       0.0       0.2       0.1       0.1
 3 C  pz              6.2       0.9       7.0       0.4       0.3       3.8
 3 C  px              4.8       0.1       1.8       0.4       0.2       0.7
 3 C  py              0.1       1.8       5.0       1.1       0.4       1.2
 3 C  dz2             0.0       0.0       0.0       0.0       0.0       0.2
 3 C  dxz             0.0       0.1       0.0       0.2       0.0       0.0
 3 C  dyz             0.1       0.0       0.0       0.1       0.0       0.1
 3 C  dx2y2           0.1       0.0       0.0       0.3       0.0       0.2
 3 C  dxy             0.0       0.1       0.0       0.0       0.2       0.0
 4 O  s               3.0       2.4       0.1       0.5       0.1       0.4
 4 O  pz              0.6       5.0       9.6       4.5       0.2       0.4
 4 O  px              1.3       0.0       0.8       0.4       2.2       0.0
 4 O  py             11.5       6.8       2.4       1.3       0.1      11.0
 4 O  dz2             0.2       0.0       0.6       0.1       0.0       0.0
 4 O  dyz             0.1       0.1       0.0       0.0       0.0       0.1
 4 O  dx2y2           0.1       0.1       0.0       0.0       0.0       0.1
 4 O  dxy             0.2       0.0       0.1       0.0       0.0       0.0
 5 O  s               0.7       0.4       0.0       0.7       2.1       0.1
 5 O  pz             17.4       0.4       1.5       9.5       0.0       0.0
 5 O  px              0.3       2.0       0.0       1.6       0.1       1.2
 5 O  py              1.8       0.0       0.4       1.7       2.4       5.6
 5 O  dz2             0.5       0.0       0.0       0.1       0.2       0.0
 5 O  dxz             0.1       0.0       1.2       0.0       0.0       0.1
 5 O  dyz             0.2       0.0       0.2       0.0       0.0       0.1
 5 O  dx2y2           0.6       0.0       0.6       0.0       0.3       0.1
 5 O  dxy             0.0       0.1       0.8       0.1       0.3       0.0
 6 C  s               0.7       0.0       0.0       0.1       0.2       0.0
 6 C  pz              1.9       0.3       4.4       0.5       0.2       1.0
 6 C  px              3.7       0.8       0.0       6.4       0.6       2.6
 6 C  py              0.7       0.3       6.2       2.8       0.2       1.0
 6 C  dx2y2           0.1       0.0       0.0       0.0       0.2       0.0
 7 C  s               0.5       0.0       0.0       0.1       0.0       0.0
 7 C  pz              0.2       0.2       7.5       6.9       5.9       0.0
 7 C  px              1.5       0.4       0.4       2.2      27.8       0.5
 7 C  py              4.2       0.3       7.3       1.8       6.3       9.6
 7 C  dxz             0.0       0.0       0.0       0.0       0.2       0.0
 7 C  dx2y2           0.0       0.0       0.0       0.0       0.3       0.0
 8 H  s               1.0       0.0       0.3       9.7       0.1       2.7
 8 H  py              0.0       0.0       0.0       0.1       0.0       0.1
 9 H  s               0.0       3.0       1.5       0.4       0.7       7.5
 9 H  pz              0.0       0.1       0.0       0.0       0.0       0.1
 9 H  py              0.0       0.0       0.0       0.1       0.0       0.1
10 H  s               0.3       3.1       0.7       1.7       2.7       0.1
10 H  pz              0.0       0.0       0.0       0.0       0.0       0.1
10 H  px              0.0       0.0       0.0       0.1       0.0       0.0
11 H  s               0.0       5.4       0.7       0.3       0.2       0.2
11 H  pz              0.0       0.2       0.0       0.0       0.0       0.0
12 H  s               2.0       5.2       0.3       0.9       0.2       0.2
13 H  s               0.0       3.0       0.7       0.5       0.7       7.8
13 H  pz              0.0       0.1       0.0       0.0       0.0       0.1
14 H  s               3.2       2.8       1.0       1.1       2.8       0.0
14 H  pz              0.0       0.0       0.0       0.0       0.0       0.1
14 H  py              0.2       0.1       0.0       0.0       0.0       0.0
15 H  s               0.1       0.1       3.0       0.0       0.1       0.2
15 H  pz              0.0       0.0       0.1       0.0       0.0       0.0
16 H  s               1.6       0.3       2.3       0.2       0.0       0.1
17 H  s               0.6       0.2       0.0       0.1      18.2       0.1
17 H  px              0.0       0.0       0.0       0.0       0.3       0.0
18 H  s               0.1       0.0       4.4       2.6       1.1       0.4
18 H  pz              0.0       0.0       0.1       0.0       0.0       0.0
18 H  px              0.0       0.0       0.0       0.0       0.2       0.0
19 H  s               1.7       0.1       3.0       0.5       6.9       3.9
19 H  py              0.0       0.0       0.1       0.0       0.2       0.0

                     24        25        26        27        28        29   
                  -0.34840  -0.33622  -0.32140  -0.31295  -0.30480  -0.30043
                   2.00000   2.00000   2.00000   2.00000   2.00000   2.00000
                  --------  --------  --------  --------  --------  --------
 0 C  s               0.0       0.1       0.4       0.2       0.0       0.0
 0 C  pz              0.2       0.0       6.8       2.6       8.4       2.2
 0 C  px              9.7       4.3      10.3       3.0       1.4       2.9
 0 C  py              7.5       6.7       0.2       0.7       5.1       8.1
 0 C  dz2             0.1       0.0       0.0       0.0       0.1       0.3
 0 C  dxz             0.0       0.1       0.0       0.0       0.1       0.0
 0 C  dyz             0.0       0.0       0.0       0.0       0.1       0.2
 0 C  dxy             0.1       0.0       0.1       0.0       0.3       0.3
 1 C  s               0.0       0.1       0.2       0.2       0.3       0.0
 1 C  pz              0.4       0.6       6.0       3.6      11.5       3.7
 1 C  px              3.0       4.2      10.9       2.5       1.7       4.5
 1 C  py              0.7       1.1       0.1       0.1       6.0      15.0
 1 C  dz2             0.0       0.0       0.0       0.1       0.1       0.5
 1 C  dxz             0.1       0.1       0.0       0.0       0.1       0.0
 1 C  dyz             0.0       0.0       0.0       0.0       0.2       0.2
 1 C  dx2y2           0.0       0.1       0.1       0.1       0.0       0.0
 1 C  dxy             0.0       0.0       0.1       0.1       0.3       0.3
 2 C  s               0.0       0.4       0.1       0.2       0.7       0.0
 2 C  pz              0.3       0.4       0.1       0.9      10.4       0.5
 2 C  px              5.1       1.6       0.7       2.1       3.9       1.5
 2 C  py             11.1       0.0       0.3       0.3       6.0       4.4
 2 C  dz2             0.2       0.0       0.0       0.0       0.0       0.2
 2 C  dyz             0.0       0.0       0.0       0.0       0.1       0.1
 2 C  dx2y2           0.0       0.0       0.1       0.1       0.0       0.1
 2 C  dxy             0.1       0.1       0.1       0.1       0.1       0.1
 3 C  s               0.0       0.1       0.1       0.6       0.1       0.0
 3 C  pz              0.3       1.4       0.5       1.5       0.1       0.1
 3 C  px              0.5       1.0       2.7       0.2       0.3       0.0
 3 C  py              0.6       0.8       0.5       1.6       0.5       0.0
 3 C  dz2             0.0       0.1       0.2       0.1       0.3       0.0
 3 C  dyz             0.0       0.0       0.0       0.2       0.0       0.0
 3 C  dx2y2           0.0       0.2       0.0       0.3       0.1       0.0
 3 C  dxy             0.3       0.0       0.0       0.0       0.2       0.1
 4 O  s               0.0       0.0       0.0       0.4       0.0       0.0
 4 O  pz              1.0       4.5       5.5       0.5       7.9       0.1
 4 O  px              0.1       1.2       6.0       0.0       2.4       0.0
 4 O  py              0.1       2.7       2.2       5.4       1.6       0.2
 4 O  dxz             0.0       0.1       0.0       0.0       0.0       0.0
 4 O  dyz             0.0       0.0       0.0       0.2       0.0       0.0
 4 O  dx2y2           0.0       0.0       0.0       0.3       0.0       0.0
 5 O  s               0.0       0.1       0.1       2.1       0.2       0.0
 5 O  pz              0.0       0.8       1.6      13.5       0.9       0.7
 5 O  px              5.4       0.4       0.2       2.1       0.3       0.6
 5 O  py              0.3       4.7       0.1      10.5       1.2       0.4
 5 O  dz2             0.0       0.3       0.0       0.3       0.0       0.1
 5 O  dxz             0.3       0.4       0.0       0.0       0.0       0.2
 5 O  dyz             0.0       0.0       0.1       0.3       0.0       0.0
 5 O  dx2y2           0.0       0.0       0.0       0.9       0.1       0.0
 5 O  dxy             0.1       0.0       0.2       0.9       0.0       0.2
 6 C  s               0.1       0.1       0.0       0.6       0.0       0.0
 6 C  pz              0.1       8.7       0.1       3.9       1.1       0.5
 6 C  px              2.8       2.1       0.2       0.4       0.0       0.4
 6 C  py              0.8       0.4       7.5       8.5       0.0       0.5
 6 C  dz2             0.0       0.2       0.1       0.0       0.0       0.1
 6 C  dxz             0.2       0.0       0.1       0.0       0.0       0.0
 6 C  dx2y2           0.1       0.0       0.1       0.4       0.0       0.0
 6 C  dxy             0.0       0.2       0.0       0.3       0.0       0.0
 7 C  s               0.0       0.2       0.1       0.5       0.0       0.0
 7 C  pz              2.6      20.2       0.7       1.8       0.6       0.3
 7 C  px             12.3       2.4       0.3       0.5       0.1       0.3
 7 C  py              1.2       0.9      10.4       7.0       0.0       0.2
 7 C  dz2             0.1       0.3       0.2       0.0       0.0       0.0
 7 C  dxz             0.1       0.0       0.0       0.0       0.0       0.0
 7 C  dx2y2           0.1       0.0       0.1       0.1       0.0       0.0
 8 H  s               0.0       3.6       0.0       0.0       9.8       0.0
 9 H  s               1.7       0.4       2.4       1.3       2.6       6.2
 9 H  px              0.1       0.0       0.1       0.0       0.0       0.0
 9 H  py              0.0       0.0       0.0       0.0       0.1       0.0
10 H  s               7.9       0.5       1.4       0.1       1.6       8.0
10 H  py              0.1       0.0       0.1       0.0       0.0       0.0
11 H  s               0.2       0.2       2.2       1.7       4.0      10.3
11 H  pz              0.0       0.0       0.0       0.0       0.0       0.2
11 H  px              0.0       0.1       0.1       0.0       0.0       0.0
11 H  py              0.0       0.0       0.0       0.0       0.2       0.0
[...]
 2 C  dx2y2           4.4       0.0       0.1       0.0       0.0       0.0
 2 C  dxy             5.1       0.1       0.2       0.1       0.0       0.0
 3 C  s               1.8       0.2       2.9       5.2       0.0       0.1
 3 C  pz              0.2       0.3       0.4       3.0       0.0       0.0
 3 C  px              0.2       0.6       3.9       0.2       0.0       0.0
 3 C  py              0.7       0.9       3.0       4.6       0.0       0.0
 3 C  dz2             0.1       0.3       1.5       0.1       0.0       0.0
 3 C  dxz             4.6       0.4       2.1       0.2       0.0       0.0
 3 C  dyz             0.2       0.0       0.5       4.6       0.0       0.0
 3 C  dx2y2           6.8       0.0       0.0       1.6       0.0       0.0
 3 C  dxy             2.3       1.6       8.1       0.2       0.0       0.0
 4 O  s               0.4       1.2       0.7      18.8       0.0       0.0
 4 O  pz              0.1       0.3       0.1       8.4       0.0       0.0
 4 O  px              3.6       0.1       0.2       0.7       0.0       0.0
 4 O  py              1.3       0.6       0.2      12.6       0.0       0.0
 4 O  dz2             1.3       0.0       0.0       0.3       0.0       0.0
 4 O  dxz             4.8       0.0       0.9       0.9       0.0       0.0
 4 O  dyz             0.4       1.4       0.1      22.6       0.0       0.0
 4 O  dx2y2           0.9       1.0       0.4       7.9       0.0       0.0
 4 O  dxy             8.8       0.0       0.4       1.3       0.0       0.0
 5 O  s               3.8      26.7       5.0       1.5       0.0       0.0
 5 O  pz              1.2       4.3       0.1       0.1       0.0       0.0
 5 O  px              0.2       6.9      26.1       0.6       0.0       0.0
 5 O  py              3.4       2.3       6.4       0.1       0.0       0.0
 5 O  dz2             0.1       4.9       2.2       0.3       0.0       0.0
 5 O  dxz             0.0       4.5       6.9       0.7       0.0       0.0
 5 O  dyz             3.2       1.4       1.2       0.1       0.0       0.0
 5 O  dx2y2           2.6      12.4       0.7       1.2       0.0       0.0
 5 O  dxy             0.1       1.4      18.0       0.0       0.0       0.0
 6 C  s               0.3       1.3       0.7       0.2       6.1      13.1
 6 C  pz              0.1       1.7       0.4       0.1       0.0       0.0
 6 C  px              0.0       5.9       2.0       0.3       0.0       0.0
 6 C  py              0.0       0.1       0.1       0.0       0.0       0.0
 6 C  dz2             0.0       1.4       0.1       0.0       0.0       0.0
 6 C  dxz             0.1       4.1       1.1       0.3       0.0       0.0
 6 C  dyz             0.3       0.4       0.0       0.0       0.0       0.0
 6 C  dx2y2           0.0       6.5       1.9       0.3       0.0       0.0
 6 C  dxy             0.3       0.2       0.0       0.1       0.0       0.0
 7 C  s               0.0       0.0       0.0       0.0      10.3      62.9
 7 C  dz2             0.3       0.1       0.0       0.0       0.0       0.0
 7 C  dxz             0.0       0.2       0.0       0.0       0.0       0.0
 7 C  dx2y2           0.0       0.3       0.0       0.0       0.0       0.0
 8 H  pz              0.1       0.0       0.0       0.0       0.0       0.0
 8 H  py              0.2       0.0       0.0       0.0       0.0       0.0
 9 H  pz              0.2       0.0       0.0       0.0       0.0       0.0
 9 H  px              0.1       0.0       0.0       0.0       0.0       0.0
10 H  py              0.4       0.0       0.0       0.0       0.0       0.0
11 H  s               0.7       0.0       0.0       0.0       0.0       0.0
11 H  pz              1.4       0.0       0.0       0.0       0.0       0.0
11 H  py              0.3       0.0       0.0       0.0       0.0       0.0
12 H  s               0.2       0.0       0.0       0.0       0.0       0.0
12 H  py              0.9       0.0       0.0       0.0       0.0       0.0
14 H  s               3.6       0.0       0.0       0.0       0.0       0.0
14 H  pz              0.1       0.0       0.0       0.0       0.0       0.0
14 H  px              1.7       0.0       0.0       0.0       0.0       0.0
14 H  py              6.1       0.0       0.0       0.0       0.0       0.0
15 H  s               0.0       0.6       0.0       0.0       0.0       0.0
15 H  pz              0.0       0.8       0.0       0.0       0.0       0.0
15 H  px              0.0       0.4       0.1       0.0       0.0       0.0
15 H  py              0.0       0.1       0.0       0.0       0.0       0.0
16 H  s               0.0       0.3       0.1       0.0       0.0       0.0
16 H  pz              0.0       0.1       0.1       0.0       0.0       0.0
16 H  px              0.3       0.1       0.0       0.0       0.0       0.0
16 H  py              0.0       0.7       0.2       0.0       0.0       0.0
17 H  px              0.0       0.2       0.0       0.0       0.0       0.0

                    216       217       218       219       220       221   
                  21.97590  21.99854  22.07446  22.27590  43.66983  43.75698
                   0.00000   0.00000   0.00000   0.00000   0.00000   0.00000
                  --------  --------  --------  --------  --------  --------
 0 C  s              24.8       9.1       4.0       0.0       0.0       0.0
 1 C  s              70.3       0.1       1.5       1.9       0.0       0.0
 2 C  s               0.9      20.8      57.5       1.5       0.0       0.0
 3 C  s               1.9       2.8       0.2      94.0       0.0       0.0
 4 O  s               0.0       0.0       0.0       0.2      94.5       5.4
 5 O  s               0.0       0.0       0.1       0.1       5.4      94.5
 6 C  s               1.7      41.4      36.1       1.2       0.0       0.0
 7 C  s               0.2      25.6       0.2       0.5       0.0       0.0



                      *****************************
                      * MAYER POPULATION ANALYSIS *
                      *****************************

  NA   - Mulliken gross atomic population
  ZA   - Total nuclear charge
  QA   - Mulliken gross atomic charge
  VA   - Mayer's total valence
  BVA  - Mayer's bonded valence
  FA   - Mayer's free valence

  ATOM       NA         ZA         QA         VA         BVA        FA
  0 C      6.5173     6.0000    -0.5173     3.7967     3.7967     0.0000
  1 C      6.2190     6.0000    -0.2190     3.6566     3.6566     0.0000
  2 C      6.3681     6.0000    -0.3681     3.8334     3.8334     0.0000
  3 C      5.5458     6.0000     0.4542     3.7056     3.7056    -0.0000
  4 O      8.5139     8.0000    -0.5139     1.8771     1.8771     0.0000
  5 O      8.1868     8.0000    -0.1868     1.9425     1.9425     0.0000
  6 C      6.1515     6.0000    -0.1515     3.6316     3.6316    -0.0000
  7 C      6.4900     6.0000    -0.4900     3.8448     3.8448    -0.0000
  8 H      0.8375     1.0000     0.1625     0.9573     0.9573     0.0000
  9 H      0.8410     1.0000     0.1590     0.9597     0.9597    -0.0000
 10 H      0.8409     1.0000     0.1591     0.9595     0.9595     0.0000
 11 H      0.8423     1.0000     0.1577     0.9579     0.9579    -0.0000
 12 H      0.8426     1.0000     0.1574     0.9584     0.9584    -0.0000
 13 H      0.8231     1.0000     0.1769     0.9563     0.9563     0.0000
 14 H      0.8234     1.0000     0.1766     0.9554     0.9554     0.0000
 15 H      0.8278     1.0000     0.1722     0.9438     0.9438     0.0000
 16 H      0.8282     1.0000     0.1718     0.9486     0.9486    -0.0000
 17 H      0.8312     1.0000     0.1688     0.9583     0.9583    -0.0000
 18 H      0.8341     1.0000     0.1659     0.9569     0.9569    -0.0000
 19 H      0.8355     1.0000     0.1645     0.9567     0.9567     0.0000

  Mayer bond orders larger than 0.100000
B(  0-C ,  1-C ) :   0.8883 B(  0-C ,  8-H ) :   0.9687 B(  0-C ,  9-H ) :   0.9820 
B(  0-C , 10-H ) :   0.9812 B(  1-C ,  2-C ) :   0.9175 B(  1-C , 11-H ) :   0.9582 
B(  1-C , 12-H ) :   0.9597 B(  2-C ,  3-C ) :   0.9559 B(  2-C , 13-H ) :   0.9707 
B(  2-C , 14-H ) :   0.9752 B(  3-C ,  4-O ) :   1.7548 B(  3-C ,  5-O ) :   1.0813 
B(  5-O ,  6-C ) :   0.7882 B(  6-C ,  7-C ) :   0.9441 B(  6-C , 15-H ) :   0.9377 
B(  6-C , 16-H ) :   0.9543 B(  7-C , 17-H ) :   0.9616 B(  7-C , 18-H ) :   0.9728 
B(  7-C , 19-H ) :   0.9668 

-------
TIMINGS
-------

Total SCF time: 0 days 0 hours 0 min 33 sec 

Total time                  ....      33.393 sec
Sum of individual times     ....      32.884 sec  ( 98.5%)

SCF preparation             ....       0.416 sec  (  1.2%)
Fock matrix formation       ....      31.290 sec  ( 93.7%)
  Startup                   ....       0.074 sec  (  0.2% of F)
  Split-RI-J                ....       5.328 sec  ( 17.0% of F)
  XC integration            ....      19.445 sec  ( 62.1% of F)
    XC Preparation          ....       0.000 sec  (  0.0% of XC)
    Basis function eval.    ....       3.577 sec  ( 18.4% of XC)
    Density eval.           ....       5.859 sec  ( 30.1% of XC)
    XC-Functional eval.     ....       2.576 sec  ( 13.2% of XC)
    XC-Potential eval.      ....       6.327 sec  ( 32.5% of XC)
  CPCM terms                ....       5.820 sec  ( 18.6% of F)
Diagonalization             ....       0.000 sec  (  0.0%)
Density matrix formation    ....       0.294 sec  (  0.9%)
Total Energy calculation    ....       0.056 sec  (  0.2%)
Population analysis         ....       0.154 sec  (  0.5%)
Orbital Transformation      ....       0.076 sec  (  0.2%)
Orbital Orthonormalization  ....       0.000 sec  (  0.0%)
DIIS solution               ....       0.542 sec  (  1.6%)
  MO trafo                  ....       0.000 sec  (  0.0 % of DIIS)
  Orb grad                  ....       0.000 sec  (  0.0 % of DIIS)
  Energy W gradient         ....       0.000 sec  (  0.0 % of DIIS)
  DIIS error                ....       0.029 sec  (  5.4 % of DIIS)
  DIIS work                 ....       0.444 sec  ( 81.9 % of DIIS)
  Form Q                    ....       0.000 sec  (  0.0 % of DIIS)
  Form QpQm                 ....       0.000 sec  (  0.0 % of DIIS)
  Exp/Cayley                ....       0.000 sec  (  0.0 % of DIIS)
  Orb update                ....       0.000 sec  (  0.0 % of DIIS)
  Wake-sleep                ....       0.027 sec  (  5.1 % of DIIS)
SOSCF solution              ....       0.057 sec  (  0.2%)
  MO trafo                  ....       0.044 sec  ( 76.2 % of SOSCF)
  Orb grad                  ....       0.001 sec  (  1.2 % of SOSCF)
  Rot update                ....       0.000 sec  (  0.1 % of SOSCF)
  Step                      ....       0.013 sec  ( 22.3 % of SOSCF)
Finished LeanSCF after  33.5 sec

Maximum memory used throughout the entire LEANSCF-calculation: 30.2 MB


-------------------------------------------------------------------------------
                          DFT DISPERSION CORRECTION                            
                                                                               
                                DFTD4 V3.4.0                                   
-------------------------------------------------------------------------------
The R2SCAN3C composite method is recognized
Using three-body term ABC
Active option DFTDOPT                   ...         5   

-------------------------   ----------------
Dispersion correction           -0.004855944
-------------------------   ----------------

------------------   -----------------
gCP correction             0.011586836
------------------   -----------------

-------------------------   --------------------
FINAL SINGLE POINT ENERGY      -386.241154347352
-------------------------   --------------------


------------------------------------------------------------------------------
                              ORCA PROPERTY CALCULATIONS
------------------------------------------------------------------------------

GBWName                                 ... sp_solv.gbw
Number of atoms                         ...     20
Number of basis functions               ...    222
Max core memory                         ...   1024 MB

Electric properties:
Dipole moment                           ... YES
Quadrupole moment                       ...  NO
Static polarizability (Dipole/Dipole)   ...  NO
Static polarizability (Dipole/Quad.)    ...  NO
Static polarizability (Quad./Quad.)     ...  NO
Static polarizability (Velocity)        ...  NO

Atomic electric properties:
Dipole moment                           ...  NO
Quadrupole moment                       ...  NO
Static polarizability                   ...  NO

Choice of electric origin               ... Center of mass
Position of electric origin             ...    -0.000012    -0.000020     0.000007

General magnetic properties:
Magnetizability                         ...  NO

EPR properties:
g-Tensor (aka g-matrix)                 ...  NO
Zero-Field splitting spin-orbit         ...  NO
Zero-field splitting spin-spin          ...  NO
Hyperfine couplings                     ...  NO (   0 nuclei)
Quadrupole couplings                    ...  NO (   0 nuclei)
Contact density                         ...  NO (   0 nuclei)

NMR properties:
Chemical shifts                         ...  NO (   0 nuclei)
Spin-rotation constants                 ...  NO (   0 nuclei)
Spin-spin couplings                     ...  NO (   0 nuclei,    0 pairs)

Choice of magnetic origin               ... GIAO
Position of magnetic origin             ...     0.000000     0.000000     0.000000

Properties with geometric perturbations:
SCF Hessian                             ...  NO
IR spectrum                             ...  NO
VCD spectrum                            ...  NO
X-ray spectroscopy properties:
SCF XES/XAS/RIXS spectra                ...  NO


-------------
DIPOLE MOMENT
-------------

Method             : SCF
Type of density    : Electron Density
Multiplicity       :   1
Irrep              :   0
Energy             :  -386.2478852396141633 Eh
Relativity type    : 
Basis              : AO
                                X                 Y                 Z
Electronic contribution:      2.804552619       4.778193874      -1.350461931
Nuclear contribution   :     -2.592513153      -5.849173311       1.937461408
                        -----------------------------------------
Total Dipole Moment    :      0.212039466      -1.070979437       0.586999477
                        -----------------------------------------
Magnitude (a.u.)       :      1.239566890
Magnitude (Debye)      :      3.150728642



--------------------
Rotational spectrum 
--------------------
 
Rotational constants in cm-1:             0.136945             0.031178             0.027214 
Rotational constants in MHz :          4105.499020           934.689726           815.840989 

Dipole components along the rotational axes: 
x,y,z [a.u.] :     0.143446    -1.223292     0.139663 
x,y,z [Debye]:     0.364610    -3.109361     0.354995 

 

Dipole moment calculation done in   0.0 sec 

Maximum memory used throughout the entire PROP-calculation: 13.5 MB

--------------------------------
SUGGESTED CITATIONS FOR THIS RUN
--------------------------------

Below you find a list of papers that are relevant to this ORCA run
We neither can nor want to force you to cite these papers, but we appreciate if you do
You receive ORCA, which is the product of decades of hard work by many enthusiastic individuals, for free
The only thing we kindly ask in return is that you cite our papers,
We deeply appreciate it, if you show your appreciation for ORCA by not just citing the generic ORCA reference.

Please note that relegating all ORCA citations to the supporting information does *not* help us.
SI sections are not indexed - citations you put there will not count into any citation statistics
But we need these citations in order to attract the funding resources that allow us to do what we are doing

Therefore, if you are a happy ORCA user, please consider citing a few of the papers listed below in the main body of your paper

In addition to the list printed below, the program has created the file sp_solv.bibtex that contains the list in bibtex format
You can import this file easily into all common literature databanks and citation aid programs


List of essential papers. We consider these as the minimum necessary citations

  1. Neese,F.
     Software update: the ORCA program system, version 5.0
     WIRES Comput. Molec. Sci., 2022 12(1)e1606
     doi.org/10.1002/wcms.1606
  2. Grimme,S.; Hansen,A.; Ehlert,S.; Mewes,J.
     r2SCAN-3c: A 'Swiss army knife' composite electronic-structure method
     J. Chem. Phys., 2021 154 064103
     doi.org/10.1063/5.0040021

List of papers to cite with high priority. The work reported in these papers was absolutely
necessary for this run to complete.
Our perspective: the developers of density functionals and basis sets usually get cited in chemistry papers
Good! But without the algorithms to do something with them, the functionals or basis sets would not do anything.
Hence, in our opinion, the algorithm design and method developments papers are equally worthy of getting cited

  1. Neese,F.
     An improvement of the resolution of the identity approximation for the formation of the Coulomb matrix
     J. Comp. Chem., 2003 24(14)1740-1747
     doi.org/10.1002/jcc.10318
  2. Garcia-Rates,M.; Neese,F.
     Effect of the Solute Cavity on the Solvation Energy and its Derivatives within the Framework of the Gaussian Charge Scheme
     J. Comput. Chem., 2020 41 922-939
     doi.org/10.1002/jcc.26139
  3. Neese,F.
     The SHARK Integral Generation and Digestion System
     J. Comp. Chem., 2022  1-16
     doi.org/10.1002/jcc.26942
  4. Lehtola,S.; Steigemann,C.; Oliveira,M.; Marques,M.
     Recent developments in Libxc - A comprehensive library of functionals for density functional theory
     Software X, 2018 7 
     doi.org/10.1016/j.softx.2017.11.002
  5. Caldeweyher,E.; Bannwarth,C.; Grimme,S.
     Extension of the D3 dispersion coefficient model
     J. Chem. Phys., 2017 147 034112-XXXX
     doi.org/10.1063/1.4993215
  6. Caldeweyher,E.; Ehlert,S.; Hansen,A.; Neugebauer,H.; Spicher,S.; Bannwarth,C.; Grimme,S.
     A generally applicable atomic-charge dependent London dispersion correction
     J. Chem. Phys., 2019 150 154122-XXXX
     doi.org/10.1063/1.5090222
  7. Caldeweyher,E.; Mewes,J.; Ehlert,S.; Grimme,S.
     Extension and evaluation of the D4 London-dispersion model for periodic systems
     Phys. Chem. Chem. Phys., 2020 22(16)8499-8512
     doi.org/10.1039/D0CP00502A

List of suggested additional citations. These are papers that are important in the 'surrounding' of 
of this run, or papers that preceded the highly important papers. If you like your results we are grateful for a citation.

  1. Neese,F.
     The ORCA program system
     WIRES Comput. Molec. Sci., 2012 2(1)73-78
     doi.org/10.1002/wcms.81
  2. Neese,F.
     Software update: the ORCA program system, version 4.0
     WIRES Comput. Molec. Sci., 2018 8(1)1-6
     doi.org/10.1002/wcms.1327
  3. Neese,F.; Wennmohs,F.; Becker,U.; Riplinger,C.
     The ORCA quantum chemistry program package
     J. Chem. Phys., 2020 152 Art. No. L224108
     doi.org/10.1063/5.0004608

List of optional additional citations

  1. Neese,F.
     Approximate second-order SCF convergence for spin unrestricted wavefunctions
     Chem. Phys. Lett., 2000 325(1-3)93-98
     doi.org/10.1016/s0009-2614(00)00662-x

Timings for individual modules:

Sum of individual times          ...       35.400 sec (=   0.590 min)
Startup calculation              ...        1.349 sec (=   0.022 min)   3.8 %
SCF iterations                   ...       33.909 sec (=   0.565 min)  95.8 %
Property calculations            ...        0.143 sec (=   0.002 min)   0.4 %
                             ****ORCA TERMINATED NORMALLY****
TOTAL RUN TIME: 0 days 0 hours 0 minutes 36 seconds 280 msec
