      -----------------------------------------------------------      
     |                   =====================                   |     
     |                           x T B                           |     
     |                   =====================                   |     
     |                         S. Grimme                         |     
     |          Mulliken Center for Theoretical Chemistry        |     
     |                    University of Bonn                     |     
      -----------------------------------------------------------      

   * xtb version 6.7.1 (edcfbbe) compiled by 'albert@albert-system' on 2024-07-22

   xtb is free software: you can redistribute it and/or modify it under
   the terms of the GNU Lesser General Public License as published by
   the Free Software Foundation, either version 3 of the License, or
   (at your option) any later version.
   
   xtb is distributed in the hope that it will be useful,
   but WITHOUT ANY WARRANTY; without even the implied warranty of
   MERCHANTABILITY or FITNESS FOR A PARTICULAR PURPOSE.  See the
   GNU Lesser General Public License for more details.
   
   Cite this work as:
   * C. Bannwarth, E. Caldeweyher, S. Ehlert, A. Hansen, P. Pracht,
     J. Seibert, S. Spicher, S. Grimme, WIREs Comput. Mol. Sci., 2020, 11,
     e01493. DOI: 10.1002/wcms.1493
   
   for GFN2-xTB:
   * C. Bannwarth, S. Ehlert and S. Grimme., J. Chem. Theory Comput., 2019,
     15, 1652-1671. DOI: 10.1021/acs.jctc.8b01176
   for GFN1-xTB:
   * S. Grimme, C. Bannwarth, P. Shushkov, J. Chem. Theory Comput., 2017,
     13, 1989-2009. DOI: 10.1021/acs.jctc.7b00118
   for GFN0-xTB:
   * P. Pracht, E. Caldeweyher, S. Ehlert, S. Grimme, ChemRxiv, 2019, preprint.
     DOI: 10.26434/chemrxiv.8326202.v1
   for GFN-FF:
   * S. Spicher and S. Grimme, Angew. Chem. Int. Ed., 2020, 59, 15665-15673.
     DOI: 10.1002/anie.202004239
   
   for ALPB and GBSA implicit solvation:
   * S. Ehlert, M. Stahn, S. Spicher, S. Grimme, J. Chem. Theory Comput.,
     2021, 17, 4250-4261. DOI: 10.1021/acs.jctc.1c00471
   
   for ddCOSMO and CPCM-X implicit solvation:
   * M. Stahn, S. Ehlert, S. Grimme, J. Phys. Chem. A,
     2023, XX, XXXX-XXXX. DOI: 10.1021/acs.jpca.3c04382
   
   for DFT-D4:
   * E. Caldeweyher, C. Bannwarth and S. Grimme, J. Chem. Phys., 2017,
     147, 034112. DOI: 10.1063/1.4993215
   * E. Caldeweyher, S. Ehlert, A. Hansen, H. Neugebauer, S. Spicher,
     C. Bannwarth and S. Grimme, J. Chem. Phys., 2019, 150, 154122.
     DOI: 10.1063/1.5090222
   * E. Caldeweyher, J.-M. Mewes, S. Ehlert and S. Grimme, Phys. Chem. Chem. Phys.
     2020, 22, 8499-8512. DOI: 10.1039/D0CP00502A
   
   for sTDA-xTB:
   * S. Grimme and C. Bannwarth, J. Chem. Phys., 2016, 145, 054103.
     DOI: 10.1063/1.4959605
   
   in the mass-spec context:
   * V. Asgeirsson, C. Bauer and S. Grimme, Chem. Sci., 2017, 8, 4879.
     DOI: 10.1039/c7sc00601b
   * J. Koopman and S. Grimme, ACS Omega 2019, 4, 12, 15120-15133.
     DOI: 10.1021/acsomega.9b02011
   
   for metadynamics refer to:
   * S. Grimme, J. Chem. Theory Comput., 2019, 155, 2847-2862
     DOI: 10.1021/acs.jctc.9b00143
   
   for SPH calculations refer to:
   * S. Spicher and S. Grimme, J. Chem. Theory Comput., 2021, 17, 1701-1714
     DOI: 10.1021/acs.jctc.0c01306
   
   for ONIOM refer to:
   * C. Plett, A. Katbashev, S. Ehlert, S. Grimme, M. Bursch,
     Phys. Chem. Chem. Phys., 2023, 25, 17860-17868. DOI: 10.1039/D3CP02178E
   
   for DIPRO refer to:
   * J. Kohn, N. Gildemeister, S. Grimme, D. Fazzi, A. Hansen,
     J. Chem. Phys., 2023, just accepted.
   
   for PTB refer to:
   * S. Grimme, M. Mueller, A. Hansen, J. Chem. Phys., 2023, 158, 124111.
     DOI: 10.1063/5.0137838
   
   with help from (in alphabetical order)
   P. Atkinson, C. Bannwarth, F. Bohle, G. Brandenburg, E. Caldeweyher
   M. Checinski, S. Dohm, S. Ehlert, S. Ehrlich, I. Gerasimov, C. Hölzer
   A. Katbashev, J. Kohn, J. Koopman, C. Lavigne, S. Lehtola, F. März, M. Müller,
   F. Musil, H. Neugebauer, J. Pisarek, C. Plett, P. Pracht, F. Pultar,
   J. Seibert, P. Shushkov, S. Spicher, M. Stahn, M. Steiner, T. Strunk,
   J. Stückrath, T. Rose, and J. Unsleber
   
 * started run on 2025/04/11 at 15:54:53.354     
   ID    Z sym.   atoms
    1    6 C      1, 2, 4-13, 15, 16
    2    1 H      3, 19-31
    3    8 O      14, 17, 18

           -------------------------------------------------
          |                Calculation Setup                |
           -------------------------------------------------

          program call               : /srv/scratch/z5358697/.xtb/bin/xtb gas.coord --gfn2 --sp --chrg 0 --norestart --parallel 1
          hostname                   : k061
          coordinate file            : gas.coord
          omp threads                :                     1


           -------------------------------------------------
          |                 G F N 2 - x T B                 |
           -------------------------------------------------

        Reference                      10.1021/acs.jctc.8b01176
      * Hamiltonian:
        H0-scaling (s, p, d)           1.850000    2.230000    2.230000
        zeta-weighting                 0.500000
      * Dispersion:
        s8                             2.700000
        a1                             0.520000
        a2                             5.000000
        s9                             5.000000
      * Repulsion:
        kExp                           1.500000    1.000000
        rExp                           1.000000
      * Coulomb:
        alpha                          2.000000
        third order                    shell-resolved
        anisotropic                    true
        a3                             3.000000
        a5                             4.000000
        cn-shift                       1.200000
        cn-exp                         4.000000
        max-rad                        5.000000


          ...................................................
          :                      SETUP                      :
          :.................................................:
          :  # basis functions                  82          :
          :  # atomic orbitals                  82          :
          :  # shells                           48          :
          :  # electrons                        88          :
          :  max. iterations                   250          :
          :  Hamiltonian                  GFN2-xTB          :
          :  restarted?                      false          :
          :  GBSA solvation                  false          :
          :  PC potential                    false          :
          :  electronic temp.          300.0000000     K    :
          :  accuracy                    1.0000000          :
          :  -> integral cutoff          0.2500000E+02      :
          :  -> integral neglect         0.1000000E-07      :
          :  -> SCF convergence          0.1000000E-05 Eh   :
          :  -> wf. convergence          0.1000000E-03 e    :
          :  Broyden damping             0.4000000          :
          :  net charge                          0          :
          :  unpaired electrons                  0          :
          ...................................................

 iter      E             dE          RMSdq      gap      omega  full diag
   1    -49.9750032 -0.499750E+02  0.451E+00    3.04       0.0  T
   2    -50.0372337 -0.622305E-01  0.256E+00    3.07       1.0  T
   3    -50.0335534  0.368031E-02  0.121E+00    3.05       1.0  T
   4    -50.0446548 -0.111014E-01  0.291E-01    3.07       1.0  T
   5    -50.0462234 -0.156860E-02  0.104E-01    3.09       1.0  T
   6    -50.0463902 -0.166828E-03  0.501E-02    3.08       1.0  T
   7    -50.0464020 -0.117973E-04  0.237E-02    3.08       1.0  T
   8    -50.0464110 -0.900353E-05  0.821E-03    3.08       2.2  T
   9    -50.0464117 -0.645258E-06  0.297E-03    3.08       6.0  T
  10    -50.0464118 -0.697220E-07  0.156E-03    3.08      11.5  T
  11    -50.0464118 -0.242611E-07  0.608E-04    3.08      29.5  T
  12    -50.0464118 -0.159637E-08  0.247E-04    3.08      72.6  T

   *** convergence criteria satisfied after 12 iterations ***

         #    Occupation            Energy/Eh            Energy/eV
      -------------------------------------------------------------
         1        2.0000           -0.7465951             -20.3159
       ...           ...                  ...                  ...
        38        2.0000           -0.4351891             -11.8421
        39        2.0000           -0.4282420             -11.6531
        40        2.0000           -0.4208596             -11.4522
        41        2.0000           -0.4151443             -11.2967
        42        2.0000           -0.4082491             -11.1090
        43        2.0000           -0.3897687             -10.6061
        44        2.0000           -0.3702402             -10.0747 (HOMO)
        45                         -0.2569363              -6.9916 (LUMO)
        46                         -0.2365383              -6.4365
        47                         -0.2194707              -5.9721
        48                         -0.1873730              -5.0987
        49                         -0.1419837              -3.8636
       ...                                ...                  ...
        82                          0.7036291              19.1467
      -------------------------------------------------------------
                  HL-Gap            0.1133039 Eh            3.0832 eV
             Fermi-level           -0.3135883 Eh           -8.5332 eV

 SCC (total)                   0 d,  0 h,  0 min,  0.043 sec
 SCC setup                      ...        0 min,  0.000 sec (  0.921%)
 Dispersion                     ...        0 min,  0.000 sec (  1.016%)
 classical contributions        ...        0 min,  0.000 sec (  0.177%)
 integral evaluation            ...        0 min,  0.008 sec ( 17.855%)
 iterations                     ...        0 min,  0.019 sec ( 44.969%)
 molecular gradient             ...        0 min,  0.015 sec ( 34.478%)
 printout                       ...        0 min,  0.000 sec (  0.536%)

         :::::::::::::::::::::::::::::::::::::::::::::::::::::
         ::                     SUMMARY                     ::
         :::::::::::::::::::::::::::::::::::::::::::::::::::::
         :: total energy             -49.333335437824 Eh    ::
         :: gradient norm              0.030550524385 Eh/a0 ::
         :: HOMO-LUMO gap              3.083157208799 eV    ::
         ::.................................................::
         :: SCC energy               -50.046351531663 Eh    ::
         :: -> isotropic ES            0.065129133736 Eh    ::
         :: -> anisotropic ES          0.004241599917 Eh    ::
         :: -> anisotropic XC          0.014701083784 Eh    ::
         :: -> dispersion             -0.030709886607 Eh    ::
         :: repulsion energy           0.713016093839 Eh    ::
         :: add. restraining           0.000000000000 Eh    ::
         :: total charge              -0.000000000000 e     ::
         :::::::::::::::::::::::::::::::::::::::::::::::::::::

           -------------------------------------------------
          |                Property Printout                |
           -------------------------------------------------

    * Orbital Energies and Occupations

         #    Occupation            Energy/Eh            Energy/eV
      -------------------------------------------------------------
         1        2.0000           -0.7465951             -20.3159
       ...           ...                  ...                  ...
        32        2.0000           -0.4698023             -12.7840
        33        2.0000           -0.4673343             -12.7168
        34        2.0000           -0.4628932             -12.5960
        35        2.0000           -0.4599454             -12.5158
        36        2.0000           -0.4496668             -12.2361
        37        2.0000           -0.4427100             -12.0468
        38        2.0000           -0.4351891             -11.8421
        39        2.0000           -0.4282420             -11.6531
        40        2.0000           -0.4208596             -11.4522
        41        2.0000           -0.4151443             -11.2967
        42        2.0000           -0.4082491             -11.1090
        43        2.0000           -0.3897687             -10.6061
        44        2.0000           -0.3702402             -10.0747 (HOMO)
        45                         -0.2569363              -6.9916 (LUMO)
        46                         -0.2365383              -6.4365
        47                         -0.2194707              -5.9721
        48                         -0.1873730              -5.0987
        49                         -0.1419837              -3.8636
        50                         -0.0553448              -1.5060
        51                          0.0249484               0.6789
        52                          0.0397403               1.0814
        53                          0.0842347               2.2921
        54                          0.1043420               2.8393
        55                          0.1146098               3.1187
       ...                                ...                  ...
        82                          0.7036291              19.1467
      -------------------------------------------------------------
                  HL-Gap            0.1133039 Eh            3.0832 eV
             Fermi-level           -0.3135883 Eh           -8.5332 eV

     #   Z          covCN         q      C6AA      α(0)
     1   6 C        3.756    -0.104    22.535     6.769
     2   6 C        3.858    -0.042    21.287     6.562
     3   1 H        0.924     0.058     2.225     2.333
     4   6 C        2.978     0.010    27.794     8.648
     5   6 C        2.919    -0.037    28.931     8.820
     6   6 C        2.918    -0.039    28.959     8.825
     7   6 C        2.987     0.010    27.776     8.645
     8   6 C        2.916    -0.078    29.954     8.975
     9   6 C        2.861     0.143    24.884     8.177
    10   6 C        2.916    -0.050    29.236     8.867
    11   6 C        2.917    -0.035    28.865     8.810
    12   6 C        2.986     0.006    27.891     8.663
    13   6 C        2.923    -0.042    29.041     8.837
    14   8 O        1.705    -0.272    18.514     5.809
    15   6 C        3.642     0.036    20.317     6.480
    16   6 C        2.701     0.363    20.845     7.473
    17   8 O        0.856    -0.420    22.090     6.301
    18   8 O        1.659    -0.372    20.308     6.084
    19   1 H        0.925     0.046     2.375     2.410
    20   1 H        0.925     0.044     2.397     2.421
    21   1 H        0.925     0.061     2.189     2.313
    22   1 H        0.926     0.033     2.549     2.497
    23   1 H        0.926     0.032     2.554     2.499
    24   1 H        0.926     0.034     2.532     2.488
    25   1 H        0.926     0.050     2.321     2.382
    26   1 H        0.926     0.043     2.413     2.429
    27   1 H        0.926     0.048     2.346     2.395
    28   1 H        0.924     0.042     2.424     2.435
    29   1 H        0.925     0.063     2.166     2.301
    30   1 H        0.924     0.042     2.423     2.434
    31   1 H        0.803     0.329     0.640     1.257

 Mol. C6AA /au·bohr⁶  :      11185.806164
 Mol. C8AA /au·bohr⁸  :     267687.503941
 Mol. α(0) /au        :        165.339055


Wiberg/Mayer (AO) data.
largest (>0.10) Wiberg bond orders for each atom

 ---------------------------------------------------------------------------
     #   Z sym  total        # sym  WBO       # sym  WBO       # sym  WBO
 ---------------------------------------------------------------------------
     1   6 C    3.990 --     2 C    0.993    19 H    0.986    20 H    0.986
                            21 H    0.983
     2   6 C    3.992 --     1 C    0.993     4 C    0.966     3 H    0.961
                            16 C    0.954
     3   1 H    0.996 --     2 C    0.961
     4   6 C    3.978 --    13 C    1.512     5 C    1.304     2 C    0.966
     5   6 C    3.991 --     6 C    1.552     4 C    1.304    22 H    0.968
     6   6 C    3.991 --     5 C    1.552     7 C    1.282    23 H    0.968
                            13 C    0.114
     7   6 C    3.989 --     6 C    1.282     8 C    1.279    12 C    1.250
     8   6 C    3.984 --     9 C    1.478     7 C    1.279    24 H    0.964
                            11 C    0.105
     9   6 C    3.932 --     8 C    1.478    10 C    1.244    14 O    1.062
    10   6 C    3.989 --    11 C    1.589     9 C    1.244    25 H    0.968
    11   6 C    3.990 --    10 C    1.589    12 C    1.260    26 H    0.967
                             8 C    0.105
    12   6 C    3.991 --    13 C    1.295    11 C    1.260     7 C    1.250
    13   6 C    3.990 --     4 C    1.512    12 C    1.295    27 H    0.964
                             6 C    0.114
    14   8 O    2.222 --     9 C    1.062    15 C    0.983
    15   6 C    3.947 --    14 O    0.983    29 H    0.980    28 H    0.977
                            30 H    0.977
    16   6 C    3.907 --    17 O    1.749    18 O    1.145     2 C    0.954
    17   8 O    2.023 --    16 C    1.749    18 O    0.171
    18   8 O    2.209 --    16 C    1.145    31 H    0.863    17 O    0.171
    19   1 H    0.997 --     1 C    0.986
    20   1 H    0.997 --     1 C    0.986
    21   1 H    0.996 --     1 C    0.983
    22   1 H    0.998 --     5 C    0.968
    23   1 H    0.998 --     6 C    0.968
    24   1 H    0.998 --     8 C    0.964
    25   1 H    0.997 --    10 C    0.968
    26   1 H    0.997 --    11 C    0.967
    27   1 H    0.997 --    13 C    0.964
    28   1 H    0.998 --    15 C    0.977
    29   1 H    0.996 --    15 C    0.980
    30   1 H    0.998 --    15 C    0.977
    31   1 H    0.891 --    18 O    0.863
 ---------------------------------------------------------------------------

Topologies differ in total number of bonds
Writing topology from bond orders to xtbtopo.mol

molecular dipole:
                 x           y           z       tot (Debye)
 q only:        0.389      -0.904       0.282
   full:        0.337      -1.040       0.497       3.051
molecular quadrupole (traceless):
                xx          xy          yy          xz          yz          zz
 q only:        3.090       0.366      -4.572      -1.103       1.241       1.482
  q+dip:        5.674      -0.497      -2.887      -2.403       0.771      -2.787
   full:        4.623      -1.057      -5.107      -2.344       2.254       0.484


           -------------------------------------------------
          | TOTAL ENERGY              -49.333335437824 Eh   |
          | GRADIENT NORM               0.030550524385 Eh/α |
          | HOMO-LUMO GAP               3.083157208799 eV   |
           -------------------------------------------------

------------------------------------------------------------------------
 * finished run on 2025/04/11 at 15:54:53.443     
------------------------------------------------------------------------
 total:
 * wall-time:     0 d,  0 h,  0 min,  0.088 sec
 *  cpu-time:     0 d,  0 h,  0 min,  0.058 sec
 * ratio c/w:     0.667 speedup
 SCF:
 * wall-time:     0 d,  0 h,  0 min,  0.043 sec
 *  cpu-time:     0 d,  0 h,  0 min,  0.043 sec
 * ratio c/w:     0.994 speedup

