      -----------------------------------------------------------      
     |                   =====================                   |     
     |                           x T B                           |     
     |                   =====================                   |     
     |                         S. Grimme                         |     
     |          Mulliken Center for Theoretical Chemistry        |     
     |                    University of Bonn                     |     
      -----------------------------------------------------------      

   * xtb version 6.7.1 (edcfbbe) compiled by 'albert@albert-system' on 2024-07-22

   xtb is free software: you can redistribute it and/or modify it under
   the terms of the GNU Lesser General Public License as published by
   the Free Software Foundation, either version 3 of the License, or
   (at your option) any later version.
   
   xtb is distributed in the hope that it will be useful,
   but WITHOUT ANY WARRANTY; without even the implied warranty of
   MERCHANTABILITY or FITNESS FOR A PARTICULAR PURPOSE.  See the
   GNU Lesser General Public License for more details.
   
   Cite this work as:
   * C. Bannwarth, E. Caldeweyher, S. Ehlert, A. Hansen, P. Pracht,
     J. Seibert, S. Spicher, S. Grimme, WIREs Comput. Mol. Sci., 2020, 11,
     e01493. DOI: 10.1002/wcms.1493
   
   for GFN2-xTB:
   * C. Bannwarth, S. Ehlert and S. Grimme., J. Chem. Theory Comput., 2019,
     15, 1652-1671. DOI: 10.1021/acs.jctc.8b01176
   for GFN1-xTB:
   * S. Grimme, C. Bannwarth, P. Shushkov, J. Chem. Theory Comput., 2017,
     13, 1989-2009. DOI: 10.1021/acs.jctc.7b00118
   for GFN0-xTB:
   * P. Pracht, E. Caldeweyher, S. Ehlert, S. Grimme, ChemRxiv, 2019, preprint.
     DOI: 10.26434/chemrxiv.8326202.v1
   for GFN-FF:
   * S. Spicher and S. Grimme, Angew. Chem. Int. Ed., 2020, 59, 15665-15673.
     DOI: 10.1002/anie.202004239
   
   for ALPB and GBSA implicit solvation:
   * S. Ehlert, M. Stahn, S. Spicher, S. Grimme, J. Chem. Theory Comput.,
     2021, 17, 4250-4261. DOI: 10.1021/acs.jctc.1c00471
   
   for ddCOSMO and CPCM-X implicit solvation:
   * M. Stahn, S. Ehlert, S. Grimme, J. Phys. Chem. A,
     2023, XX, XXXX-XXXX. DOI: 10.1021/acs.jpca.3c04382
   
   for DFT-D4:
   * E. Caldeweyher, C. Bannwarth and S. Grimme, J. Chem. Phys., 2017,
     147, 034112. DOI: 10.1063/1.4993215
   * E. Caldeweyher, S. Ehlert, A. Hansen, H. Neugebauer, S. Spicher,
     C. Bannwarth and S. Grimme, J. Chem. Phys., 2019, 150, 154122.
     DOI: 10.1063/1.5090222
   * E. Caldeweyher, J.-M. Mewes, S. Ehlert and S. Grimme, Phys. Chem. Chem. Phys.
     2020, 22, 8499-8512. DOI: 10.1039/D0CP00502A
   
   for sTDA-xTB:
   * S. Grimme and C. Bannwarth, J. Chem. Phys., 2016, 145, 054103.
     DOI: 10.1063/1.4959605
   
   in the mass-spec context:
   * V. Asgeirsson, C. Bauer and S. Grimme, Chem. Sci., 2017, 8, 4879.
     DOI: 10.1039/c7sc00601b
   * J. Koopman and S. Grimme, ACS Omega 2019, 4, 12, 15120-15133.
     DOI: 10.1021/acsomega.9b02011
   
   for metadynamics refer to:
   * S. Grimme, J. Chem. Theory Comput., 2019, 155, 2847-2862
     DOI: 10.1021/acs.jctc.9b00143
   
   for SPH calculations refer to:
   * S. Spicher and S. Grimme, J. Chem. Theory Comput., 2021, 17, 1701-1714
     DOI: 10.1021/acs.jctc.0c01306
   
   for ONIOM refer to:
   * C. Plett, A. Katbashev, S. Ehlert, S. Grimme, M. Bursch,
     Phys. Chem. Chem. Phys., 2023, 25, 17860-17868. DOI: 10.1039/D3CP02178E
   
   for DIPRO refer to:
   * J. Kohn, N. Gildemeister, S. Grimme, D. Fazzi, A. Hansen,
     J. Chem. Phys., 2023, just accepted.
   
   for PTB refer to:
   * S. Grimme, M. Mueller, A. Hansen, J. Chem. Phys., 2023, 158, 124111.
     DOI: 10.1063/5.0137838
   
   with help from (in alphabetical order)
   P. Atkinson, C. Bannwarth, F. Bohle, G. Brandenburg, E. Caldeweyher
   M. Checinski, S. Dohm, S. Ehlert, S. Ehrlich, I. Gerasimov, C. Hölzer
   A. Katbashev, J. Kohn, J. Koopman, C. Lavigne, S. Lehtola, F. März, M. Müller,
   F. Musil, H. Neugebauer, J. Pisarek, C. Plett, P. Pracht, F. Pultar,
   J. Seibert, P. Shushkov, S. Spicher, M. Stahn, M. Steiner, T. Strunk,
   J. Stückrath, T. Rose, and J. Unsleber
   
 * started run on 2025/04/11 at 15:53:53.489     
   ID    Z sym.   atoms
    1    6 C      1-4, 7, 8
    2    8 O      5, 6
    3    1 H      9-20

           -------------------------------------------------
          |                Calculation Setup                |
           -------------------------------------------------

          program call               : /srv/scratch/z5358697/.xtb/bin/xtb gas.coord --gfn2 --sp --chrg 0 --norestart --parallel 1
          hostname                   : k061
          coordinate file            : gas.coord
          omp threads                :                     1


           -------------------------------------------------
          |                 G F N 2 - x T B                 |
           -------------------------------------------------

        Reference                      10.1021/acs.jctc.8b01176
      * Hamiltonian:
        H0-scaling (s, p, d)           1.850000    2.230000    2.230000
        zeta-weighting                 0.500000
      * Dispersion:
        s8                             2.700000
        a1                             0.520000
        a2                             5.000000
        s9                             5.000000
      * Repulsion:
        kExp                           1.500000    1.000000
        rExp                           1.000000
      * Coulomb:
        alpha                          2.000000
        third order                    shell-resolved
        anisotropic                    true
        a3                             3.000000
        a5                             4.000000
        cn-shift                       1.200000
        cn-exp                         4.000000
        max-rad                        5.000000


          ...................................................
          :                      SETUP                      :
          :.................................................:
          :  # basis functions                  44          :
          :  # atomic orbitals                  44          :
          :  # shells                           28          :
          :  # electrons                        48          :
          :  max. iterations                   250          :
          :  Hamiltonian                  GFN2-xTB          :
          :  restarted?                      false          :
          :  GBSA solvation                  false          :
          :  PC potential                    false          :
          :  electronic temp.          300.0000000     K    :
          :  accuracy                    1.0000000          :
          :  -> integral cutoff          0.2500000E+02      :
          :  -> integral neglect         0.1000000E-07      :
          :  -> SCF convergence          0.1000000E-05 Eh   :
          :  -> wf. convergence          0.1000000E-03 e    :
          :  Broyden damping             0.4000000          :
          :  net charge                          0          :
          :  unpaired electrons                  0          :
          ...................................................

 iter      E             dE          RMSdq      gap      omega  full diag
   1    -27.3569523 -0.273570E+02  0.394E+00    5.99       0.0  T
   2    -27.4268555 -0.699032E-01  0.205E+00    4.75       1.0  T
   3    -27.4300227 -0.316718E-02  0.115E+00    5.24       1.0  T
   4    -27.4323788 -0.235617E-02  0.171E-01    4.95       1.0  T
   5    -27.4326456 -0.266707E-03  0.739E-02    5.02       1.0  T
   6    -27.4326510 -0.541064E-05  0.244E-02    5.01       1.0  T
   7    -27.4326524 -0.139204E-05  0.739E-03    5.01       3.0  T
   8    -27.4326525 -0.124433E-06  0.184E-03    5.01      12.1  T
   9    -27.4326525 -0.731594E-08  0.910E-04    5.01      24.6  T
  10    -27.4326525 -0.245394E-08  0.228E-04    5.01      98.1  T

   *** convergence criteria satisfied after 10 iterations ***

         #    Occupation            Energy/Eh            Energy/eV
      -------------------------------------------------------------
         1        2.0000           -0.7406380             -20.1538
       ...           ...                  ...                  ...
        18        2.0000           -0.4729529             -12.8697
        19        2.0000           -0.4512234             -12.2784
        20        2.0000           -0.4488574             -12.2140
        21        2.0000           -0.4460814             -12.1385
        22        2.0000           -0.4436619             -12.0727
        23        2.0000           -0.4367028             -11.8833
        24        2.0000           -0.4089215             -11.1273 (HOMO)
        25                         -0.2247171              -6.1149 (LUMO)
        26                         -0.0031340              -0.0853
        27                          0.0959413               2.6107
        28                          0.1078592               2.9350
        29                          0.1191101               3.2412
       ...                                ...                  ...
        44                          0.6327266              17.2174
      -------------------------------------------------------------
                  HL-Gap            0.1842043 Eh            5.0125 eV
             Fermi-level           -0.3168193 Eh           -8.6211 eV

 SCC (total)                   0 d,  0 h,  0 min,  0.041 sec
 SCC setup                      ...        0 min,  0.000 sec (  1.094%)
 Dispersion                     ...        0 min,  0.000 sec (  0.619%)
 classical contributions        ...        0 min,  0.000 sec (  0.143%)
 integral evaluation            ...        0 min,  0.005 sec ( 11.302%)
 iterations                     ...        0 min,  0.030 sec ( 74.323%)
 molecular gradient             ...        0 min,  0.005 sec ( 12.117%)
 printout                       ...        0 min,  0.000 sec (  0.345%)

         :::::::::::::::::::::::::::::::::::::::::::::::::::::
         ::                     SUMMARY                     ::
         :::::::::::::::::::::::::::::::::::::::::::::::::::::
         :: total energy             -27.116268064588 Eh    ::
         :: gradient norm              0.025820012488 Eh/a0 ::
         :: HOMO-LUMO gap              5.012455057628 eV    ::
         ::.................................................::
         :: SCC energy               -27.432588738647 Eh    ::
         :: -> isotropic ES            0.048084369920 Eh    ::
         :: -> anisotropic ES          0.002673572115 Eh    ::
         :: -> anisotropic XC          0.007722213909 Eh    ::
         :: -> dispersion             -0.011980918950 Eh    ::
         :: repulsion energy           0.316320674059 Eh    ::
         :: add. restraining           0.000000000000 Eh    ::
         :: total charge               0.000000000000 e     ::
         :::::::::::::::::::::::::::::::::::::::::::::::::::::

           -------------------------------------------------
          |                Property Printout                |
           -------------------------------------------------

    * Orbital Energies and Occupations

         #    Occupation            Energy/Eh            Energy/eV
      -------------------------------------------------------------
         1        2.0000           -0.7406380             -20.1538
       ...           ...                  ...                  ...
        12        2.0000           -0.5180989             -14.0982
        13        2.0000           -0.5151836             -14.0189
        14        2.0000           -0.4999602             -13.6046
        15        2.0000           -0.4967983             -13.5186
        16        2.0000           -0.4882636             -13.2863
        17        2.0000           -0.4787564             -13.0276
        18        2.0000           -0.4729529             -12.8697
        19        2.0000           -0.4512234             -12.2784
        20        2.0000           -0.4488574             -12.2140
        21        2.0000           -0.4460814             -12.1385
        22        2.0000           -0.4436619             -12.0727
        23        2.0000           -0.4367028             -11.8833
        24        2.0000           -0.4089215             -11.1273 (HOMO)
        25                         -0.2247171              -6.1149 (LUMO)
        26                         -0.0031340              -0.0853
        27                          0.0959413               2.6107
        28                          0.1078592               2.9350
        29                          0.1191101               3.2412
        30                          0.1262610               3.4357
        31                          0.1466252               3.9899
        32                          0.1511008               4.1117
        33                          0.1575962               4.2884
        34                          0.1613502               4.3906
        35                          0.1750836               4.7643
       ...                                ...                  ...
        44                          0.6327266              17.2174
      -------------------------------------------------------------
                  HL-Gap            0.1842043 Eh            5.0125 eV
             Fermi-level           -0.3168193 Eh           -8.6211 eV

     #   Z          covCN         q      C6AA      α(0)
     1   6 C        3.752    -0.103    22.534     6.769
     2   6 C        3.802    -0.051    21.485     6.599
     3   6 C        3.804    -0.090    22.217     6.710
     4   6 C        2.711     0.360    20.889     7.481
     5   8 O        0.856    -0.423    22.149     6.310
     6   8 O        1.703    -0.268    18.448     5.799
     7   6 C        3.693     0.077    19.466     6.313
     8   6 C        3.750    -0.113    22.718     6.797
     9   1 H        0.925     0.037     2.482     2.464
    10   1 H        0.925     0.039     2.455     2.450
    11   1 H        0.925     0.037     2.492     2.469
    12   1 H        0.924     0.054     2.267     2.354
    13   1 H        0.925     0.039     2.460     2.453
    14   1 H        0.924     0.066     2.133     2.284
    15   1 H        0.925     0.060     2.199     2.319
    16   1 H        0.924     0.055     2.253     2.347
    17   1 H        0.924     0.060     2.195     2.317
    18   1 H        0.925     0.051     2.313     2.378
    19   1 H        0.925     0.058     2.220     2.330
    20   1 H        0.925     0.054     2.275     2.359

 Mol. C6AA /au·bohr⁶  :       3019.157956
 Mol. C8AA /au·bohr⁸  :      64019.390374
 Mol. α(0) /au        :         81.303471


Wiberg/Mayer (AO) data.
largest (>0.10) Wiberg bond orders for each atom

 ---------------------------------------------------------------------------
     #   Z sym  total        # sym  WBO       # sym  WBO       # sym  WBO
 ---------------------------------------------------------------------------
     1   6 C    3.997 --     2 C    1.021    11 H    0.987     9 H    0.987
                            10 H    0.987
     2   6 C    3.994 --     1 C    1.021     3 C    0.995    13 H    0.978
                            12 H    0.976
     3   6 C    3.994 --     2 C    0.995    15 H    0.973     4 C    0.972
                            14 H    0.951
     4   6 C    3.914 --     5 O    1.738     6 O    1.146     3 C    0.972
     5   8 O    2.022 --     4 C    1.738     6 O    0.174
     6   8 O    2.312 --     4 C    1.146     7 C    0.932     5 O    0.174
     7   6 C    3.926 --     8 C    1.014    16 H    0.973    17 H    0.969
                             6 O    0.932
     8   6 C    3.992 --     7 C    1.014    20 H    0.986    19 H    0.985
                            18 H    0.983
     9   1 H    0.999 --     1 C    0.987
    10   1 H    0.998 --     1 C    0.987
    11   1 H    0.999 --     1 C    0.987
    12   1 H    0.997 --     2 C    0.976
    13   1 H    0.998 --     2 C    0.978
    14   1 H    0.996 --     3 C    0.951
    15   1 H    0.996 --     3 C    0.973
    16   1 H    0.997 --     7 C    0.973
    17   1 H    0.996 --     7 C    0.969
    18   1 H    0.997 --     8 C    0.983
    19   1 H    0.997 --     8 C    0.985
    20   1 H    0.997 --     8 C    0.986
 ---------------------------------------------------------------------------

Topologies differ in total number of bonds
Writing topology from bond orders to xtbtopo.mol

molecular dipole:
                 x           y           z       tot (Debye)
 q only:        0.151      -0.318      -0.687
   full:        0.179      -0.252      -0.804       2.190
molecular quadrupole (traceless):
                xx          xy          yy          xz          yz          zz
 q only:        7.137      -1.360      -1.141       0.564      -2.201      -5.996
  q+dip:        6.403      -0.991      -0.771       0.629      -2.127      -5.632
   full:        6.578      -0.933       0.046       0.658      -2.509      -6.625


           -------------------------------------------------
          | TOTAL ENERGY              -27.116268064588 Eh   |
          | GRADIENT NORM               0.025820012488 Eh/α |
          | HOMO-LUMO GAP               5.012455057628 eV   |
           -------------------------------------------------

------------------------------------------------------------------------
 * finished run on 2025/04/11 at 15:53:53.602     
------------------------------------------------------------------------
 total:
 * wall-time:     0 d,  0 h,  0 min,  0.112 sec
 *  cpu-time:     0 d,  0 h,  0 min,  0.028 sec
 * ratio c/w:     0.253 speedup
 SCF:
 * wall-time:     0 d,  0 h,  0 min,  0.041 sec
 *  cpu-time:     0 d,  0 h,  0 min,  0.017 sec
 * ratio c/w:     0.429 speedup

