      -----------------------------------------------------------      
     |                   =====================                   |     
     |                           x T B                           |     
     |                   =====================                   |     
     |                         S. Grimme                         |     
     |          Mulliken Center for Theoretical Chemistry        |     
     |                    University of Bonn                     |     
      -----------------------------------------------------------      

   * xtb version 6.7.1 (edcfbbe) compiled by 'albert@albert-system' on 2024-07-22

   xtb is free software: you can redistribute it and/or modify it under
   the terms of the GNU Lesser General Public License as published by
   the Free Software Foundation, either version 3 of the License, or
   (at your option) any later version.
   
   xtb is distributed in the hope that it will be useful,
   but WITHOUT ANY WARRANTY; without even the implied warranty of
   MERCHANTABILITY or FITNESS FOR A PARTICULAR PURPOSE.  See the
   GNU Lesser General Public License for more details.
   
   Cite this work as:
   * C. Bannwarth, E. Caldeweyher, S. Ehlert, A. Hansen, P. Pracht,
     J. Seibert, S. Spicher, S. Grimme, WIREs Comput. Mol. Sci., 2020, 11,
     e01493. DOI: 10.1002/wcms.1493
   
   for GFN2-xTB:
   * C. Bannwarth, S. Ehlert and S. Grimme., J. Chem. Theory Comput., 2019,
     15, 1652-1671. DOI: 10.1021/acs.jctc.8b01176
   for GFN1-xTB:
   * S. Grimme, C. Bannwarth, P. Shushkov, J. Chem. Theory Comput., 2017,
     13, 1989-2009. DOI: 10.1021/acs.jctc.7b00118
   for GFN0-xTB:
   * P. Pracht, E. Caldeweyher, S. Ehlert, S. Grimme, ChemRxiv, 2019, preprint.
     DOI: 10.26434/chemrxiv.8326202.v1
   for GFN-FF:
   * S. Spicher and S. Grimme, Angew. Chem. Int. Ed., 2020, 59, 15665-15673.
     DOI: 10.1002/anie.202004239
   
   for ALPB and GBSA implicit solvation:
   * S. Ehlert, M. Stahn, S. Spicher, S. Grimme, J. Chem. Theory Comput.,
     2021, 17, 4250-4261. DOI: 10.1021/acs.jctc.1c00471
   
   for ddCOSMO and CPCM-X implicit solvation:
   * M. Stahn, S. Ehlert, S. Grimme, J. Phys. Chem. A,
     2023, XX, XXXX-XXXX. DOI: 10.1021/acs.jpca.3c04382
   
   for DFT-D4:
   * E. Caldeweyher, C. Bannwarth and S. Grimme, J. Chem. Phys., 2017,
     147, 034112. DOI: 10.1063/1.4993215
   * E. Caldeweyher, S. Ehlert, A. Hansen, H. Neugebauer, S. Spicher,
     C. Bannwarth and S. Grimme, J. Chem. Phys., 2019, 150, 154122.
     DOI: 10.1063/1.5090222
   * E. Caldeweyher, J.-M. Mewes, S. Ehlert and S. Grimme, Phys. Chem. Chem. Phys.
     2020, 22, 8499-8512. DOI: 10.1039/D0CP00502A
   
   for sTDA-xTB:
   * S. Grimme and C. Bannwarth, J. Chem. Phys., 2016, 145, 054103.
     DOI: 10.1063/1.4959605
   
   in the mass-spec context:
   * V. Asgeirsson, C. Bauer and S. Grimme, Chem. Sci., 2017, 8, 4879.
     DOI: 10.1039/c7sc00601b
   * J. Koopman and S. Grimme, ACS Omega 2019, 4, 12, 15120-15133.
     DOI: 10.1021/acsomega.9b02011
   
   for metadynamics refer to:
   * S. Grimme, J. Chem. Theory Comput., 2019, 155, 2847-2862
     DOI: 10.1021/acs.jctc.9b00143
   
   for SPH calculations refer to:
   * S. Spicher and S. Grimme, J. Chem. Theory Comput., 2021, 17, 1701-1714
     DOI: 10.1021/acs.jctc.0c01306
   
   for ONIOM refer to:
   * C. Plett, A. Katbashev, S. Ehlert, S. Grimme, M. Bursch,
     Phys. Chem. Chem. Phys., 2023, 25, 17860-17868. DOI: 10.1039/D3CP02178E
   
   for DIPRO refer to:
   * J. Kohn, N. Gildemeister, S. Grimme, D. Fazzi, A. Hansen,
     J. Chem. Phys., 2023, just accepted.
   
   for PTB refer to:
   * S. Grimme, M. Mueller, A. Hansen, J. Chem. Phys., 2023, 158, 124111.
     DOI: 10.1063/5.0137838
   
   with help from (in alphabetical order)
   P. Atkinson, C. Bannwarth, F. Bohle, G. Brandenburg, E. Caldeweyher
   M. Checinski, S. Dohm, S. Ehlert, S. Ehrlich, I. Gerasimov, C. Hölzer
   A. Katbashev, J. Kohn, J. Koopman, C. Lavigne, S. Lehtola, F. März, M. Müller,
   F. Musil, H. Neugebauer, J. Pisarek, C. Plett, P. Pracht, F. Pultar,
   J. Seibert, P. Shushkov, S. Spicher, M. Stahn, M. Steiner, T. Strunk,
   J. Stückrath, T. Rose, and J. Unsleber
   
 * started run on 2025/04/11 at 15:59:02.557     
   ID    Z sym.   atoms
    1    6 C      1-5, 8
    2    8 O      6, 7
    3    1 H      9-20

           -------------------------------------------------
          |                Calculation Setup                |
           -------------------------------------------------

          program call               : /srv/scratch/z5358697/.xtb/bin/xtb solv.coord --gfn2 --sp --chrg 0 --norestart --parallel 1 --alpb water reference -I xtb_sp-xcontrol-inp
          hostname                   : k068
          coordinate file            : solv.coord
          omp threads                :                     1


           -------------------------------------------------
          |                 G F N 2 - x T B                 |
           -------------------------------------------------

        Reference                      10.1021/acs.jctc.8b01176
      * Hamiltonian:
        H0-scaling (s, p, d)           1.850000    2.230000    2.230000
        zeta-weighting                 0.500000
      * Dispersion:
        s8                             2.700000
        a1                             0.520000
        a2                             5.000000
        s9                             5.000000
      * Repulsion:
        kExp                           1.500000    1.000000
        rExp                           1.000000
      * Coulomb:
        alpha                          2.000000
        third order                    shell-resolved
        anisotropic                    true
        a3                             3.000000
        a5                             4.000000
        cn-shift                       1.200000
        cn-exp                         4.000000
        max-rad                        5.000000

      * Solvation model:               ALPB
        Solvent                        water
        Parameter file                 internal GFN2-xTB/ALPB
        Dielectric constant                8.0200E+01
        Reference state                gsolv=reference [X=1]
        Free energy shift                  2.8945E-03 Eh       1.8164E+00 kcal/mol
        Temperature                        2.9815E+02 K
        Density                            1.0000E+00 kg/L
        Solvent mass                       1.8000E+01 g/mol
        Interaction kernel             P16
        Born radius scaling (c1)           1.4744E+00
        Born radii integrator          GBOBC
        Born offset                        0.0000E+00 a0       0.0000E+00 AA
        H-bond correction              true
        Ion screening                  false
        Surface tension                    1.0000E-05 Eh       1.5569E+01 dyn/cm
        Grid points                               974 per atom

          ...................................................
          :                      SETUP                      :
          :.................................................:
          :  # basis functions                  44          :
          :  # atomic orbitals                  44          :
          :  # shells                           28          :
          :  # electrons                        48          :
          :  max. iterations                   250          :
          :  Hamiltonian                  GFN2-xTB          :
          :  restarted?                      false          :
          :  GBSA solvation                   true          :
          :  PC potential                    false          :
          :  electronic temp.          300.0000000     K    :
          :  accuracy                    1.0000000          :
          :  -> integral cutoff          0.2500000E+02      :
          :  -> integral neglect         0.1000000E-07      :
          :  -> SCF convergence          0.1000000E-05 Eh   :
          :  -> wf. convergence          0.1000000E-03 e    :
          :  Broyden damping             0.4000000          :
          :  net charge                          0          :
          :  unpaired electrons                  0          :
          ...................................................

 iter      E             dE          RMSdq      gap      omega  full diag
   1    -27.3687197 -0.273687E+02  0.407E+00    5.70       0.0  T
   2    -27.4283888 -0.596691E-01  0.206E+00    4.88       1.0  T
   3    -27.4299469 -0.155807E-02  0.101E+00    5.19       1.0  T
   4    -27.4313798 -0.143287E-02  0.162E-01    4.94       1.0  T
   5    -27.4315889 -0.209106E-03  0.688E-02    5.00       1.0  T
   6    -27.4315906 -0.174268E-05  0.186E-02    4.99       1.2  T
   7    -27.4315913 -0.702224E-06  0.374E-03    4.99       6.0  T
   8    -27.4315913 -0.197110E-07  0.203E-03    4.99      11.0  T
   9    -27.4315913 -0.479535E-08  0.297E-04    4.99      75.3  T
  10    -27.4315913 -0.257380E-09  0.144E-04    4.99     154.9  T

   *** convergence criteria satisfied after 10 iterations ***

         #    Occupation            Energy/Eh            Energy/eV
      -------------------------------------------------------------
         1        2.0000           -0.7514755             -20.4487
       ...           ...                  ...                  ...
        18        2.0000           -0.4736419             -12.8885
        19        2.0000           -0.4564847             -12.4216
        20        2.0000           -0.4515370             -12.2869
        21        2.0000           -0.4409446             -11.9987
        22        2.0000           -0.4301453             -11.7048
        23        2.0000           -0.4271794             -11.6241
        24        2.0000           -0.4213879             -11.4665 (HOMO)
        25                         -0.2379312              -6.4744 (LUMO)
        26                         -0.0002264              -0.0062
        27                          0.0946515               2.5756
        28                          0.1044595               2.8425
        29                          0.1203743               3.2756
       ...                                ...                  ...
        44                          0.6167057              16.7814
      -------------------------------------------------------------
                  HL-Gap            0.1834567 Eh            4.9921 eV
             Fermi-level           -0.3296595 Eh           -8.9705 eV

 SCC (total)                   0 d,  0 h,  0 min,  0.020 sec
 SCC setup                      ...        0 min,  0.001 sec (  6.370%)
 Dispersion                     ...        0 min,  0.000 sec (  0.634%)
 classical contributions        ...        0 min,  0.000 sec (  0.119%)
 integral evaluation            ...        0 min,  0.002 sec (  7.783%)
 iterations                     ...        0 min,  0.012 sec ( 60.106%)
 molecular gradient             ...        0 min,  0.005 sec ( 24.153%)
 printout                       ...        0 min,  0.000 sec (  0.758%)

         :::::::::::::::::::::::::::::::::::::::::::::::::::::
         ::                     SUMMARY                     ::
         :::::::::::::::::::::::::::::::::::::::::::::::::::::
         :: total energy             -27.116362342605 Eh    ::
         :: total w/o Gsasa/hb       -27.118451150240 Eh    ::
         :: gradient norm              0.000141807021 Eh/a0 ::
         :: HOMO-LUMO gap              4.992110242522 eV    ::
         ::.................................................::
         :: SCC energy               -27.431619040327 Eh    ::
         :: -> isotropic ES            0.057807144918 Eh    ::
         :: -> anisotropic ES          0.001657104045 Eh    ::
         :: -> anisotropic XC          0.008266671298 Eh    ::
         :: -> dispersion             -0.011425217479 Eh    ::
         :: -> Gsolv                  -0.006805822291 Eh    ::
         ::    -> Gelec               -0.008894629926 Eh    ::
         ::    -> Gsasa                0.001506200642 Eh    ::
         ::    -> Ghb                 -0.002311942168 Eh    ::
         ::    -> Gshift               0.002894549160 Eh    ::
         :: repulsion energy           0.315256697722 Eh    ::
         :: add. restraining           0.000000000000 Eh    ::
         :: total charge              -0.000000000000 e     ::
         :::::::::::::::::::::::::::::::::::::::::::::::::::::

           -------------------------------------------------
          |                Property Printout                |
           -------------------------------------------------

    * Orbital Energies and Occupations

         #    Occupation            Energy/Eh            Energy/eV
      -------------------------------------------------------------
         1        2.0000           -0.7514755             -20.4487
       ...           ...                  ...                  ...
        12        2.0000           -0.5237212             -14.2512
        13        2.0000           -0.5130953             -13.9620
        14        2.0000           -0.5075751             -13.8118
        15        2.0000           -0.4968705             -13.5205
        16        2.0000           -0.4805678             -13.0769
        17        2.0000           -0.4743140             -12.9067
        18        2.0000           -0.4736419             -12.8885
        19        2.0000           -0.4564847             -12.4216
        20        2.0000           -0.4515370             -12.2869
        21        2.0000           -0.4409446             -11.9987
        22        2.0000           -0.4301453             -11.7048
        23        2.0000           -0.4271794             -11.6241
        24        2.0000           -0.4213879             -11.4665 (HOMO)
        25                         -0.2379312              -6.4744 (LUMO)
        26                         -0.0002264              -0.0062
        27                          0.0946515               2.5756
        28                          0.1044595               2.8425
        29                          0.1203743               3.2756
        30                          0.1397542               3.8029
        31                          0.1399465               3.8081
        32                          0.1447198               3.9380
        33                          0.1457764               3.9668
        34                          0.1748076               4.7568
        35                          0.1867238               5.0810
       ...                                ...                  ...
        44                          0.6167057              16.7814
      -------------------------------------------------------------
                  HL-Gap            0.1834567 Eh            4.9921 eV
             Fermi-level           -0.3296595 Eh           -8.9705 eV

     #   Z          covCN         q      C6AA      α(0)
     1   6 C        3.751    -0.115    22.759     6.803
     2   6 C        3.800    -0.062    21.683     6.630
     3   6 C        3.803    -0.057    21.591     6.615
     4   6 C        3.804    -0.100    22.396     6.737
     5   6 C        2.715     0.363    20.841     7.473
     6   8 O        0.856    -0.485    23.459     6.494
     7   8 O        1.704    -0.270    18.479     5.804
     8   6 C        3.647     0.008    20.778     6.550
     9   1 H        0.925     0.039     2.458     2.452
    10   1 H        0.925     0.043     2.413     2.429
    11   1 H        0.925     0.040     2.448     2.447
    12   1 H        0.924     0.043     2.414     2.430
    13   1 H        0.924     0.042     2.423     2.434
    14   1 H        0.924     0.049     2.338     2.391
    15   1 H        0.924     0.037     2.483     2.464
    16   1 H        0.925     0.078     1.997     2.210
    17   1 H        0.924     0.091     1.869     2.138
    18   1 H        0.924     0.079     1.993     2.208
    19   1 H        0.924     0.075     2.032     2.229
    20   1 H        0.925     0.101     1.773     2.083

 Mol. C6AA /au·bohr⁶  :       3001.215498
 Mol. C8AA /au·bohr⁸  :      63886.370412
 Mol. α(0) /au        :         81.020555


Wiberg/Mayer (AO) data.
largest (>0.10) Wiberg bond orders for each atom

 ---------------------------------------------------------------------------
     #   Z sym  total        # sym  WBO       # sym  WBO       # sym  WBO
 ---------------------------------------------------------------------------
     1   6 C    3.996 --     2 C    1.021     9 H    0.987    10 H    0.986
                            11 H    0.985
     2   6 C    3.996 --     1 C    1.021     3 C    1.007    12 H    0.977
                            13 H    0.977
     3   6 C    3.992 --     2 C    1.007     4 C    0.993    15 H    0.978
                            14 H    0.975
     4   6 C    3.989 --     3 C    0.993     5 C    0.982    16 H    0.969
                            17 H    0.938
     5   6 C    3.904 --     6 O    1.696     7 O    1.160     4 C    0.982
     6   8 O    1.976 --     5 C    1.696     7 O    0.170
     7   8 O    2.313 --     5 C    1.160     8 C    0.938     6 O    0.170
     8   6 C    3.903 --    19 H    0.977    20 H    0.976    18 H    0.975
                             7 O    0.938
     9   1 H    0.998 --     1 C    0.987
    10   1 H    0.998 --     1 C    0.986
    11   1 H    0.998 --     1 C    0.985
    12   1 H    0.998 --     2 C    0.977
    13   1 H    0.998 --     2 C    0.977
    14   1 H    0.998 --     3 C    0.975
    15   1 H    0.999 --     3 C    0.978
    16   1 H    0.994 --     4 C    0.969
    17   1 H    0.992 --     4 C    0.938
    18   1 H    0.994 --     8 C    0.975
    19   1 H    0.994 --     8 C    0.977
    20   1 H    0.989 --     8 C    0.976
 ---------------------------------------------------------------------------

Topologies differ in total number of bonds
Writing topology from bond orders to xtbtopo.mol

molecular dipole:
                 x           y           z       tot (Debye)
 q only:       -0.009      -0.510       0.916
   full:        0.037      -0.495       0.941       2.704
molecular quadrupole (traceless):
                xx          xy          yy          xz          yz          zz
 q only:       10.093      -2.004      -3.866       2.667       2.575      -6.227
  q+dip:        7.670      -2.000      -2.020       3.060       3.143      -5.650
   full:        8.362      -1.938      -2.165       2.898       3.711      -6.197


           -------------------------------------------------
          | TOTAL ENERGY              -27.116362342605 Eh   |
          | GRADIENT NORM               0.000141807021 Eh/α |
          | HOMO-LUMO GAP               4.992110242522 eV   |
           -------------------------------------------------

------------------------------------------------------------------------
 * finished run on 2025/04/11 at 15:59:02.610     
------------------------------------------------------------------------
 total:
 * wall-time:     0 d,  0 h,  0 min,  0.052 sec
 *  cpu-time:     0 d,  0 h,  0 min,  0.023 sec
 * ratio c/w:     0.434 speedup
 SCF:
 * wall-time:     0 d,  0 h,  0 min,  0.020 sec
 *  cpu-time:     0 d,  0 h,  0 min,  0.015 sec
 * ratio c/w:     0.735 speedup

