16
 energy: -17.084598276356 gnorm: 0.022142071359 xtb: 6.7.1 (edcfbbe)
C            2.54783062558672       -0.35310980402694       -0.00518537034727
C            1.28367122339377        0.50156512057673       -0.01666949534639
C            0.00808664547517       -0.33896620111916       -0.01992535581260
C           -1.25267357079345        0.51173150096278       -0.02721864247790
N           -2.46385413151137       -0.33301976907608       -0.00511896447778
H            2.58318803845588       -0.98820978255128        0.88726716483059
H            2.58610127908303       -1.00933618837398       -0.88203368174354
H            3.45072265986031        0.26626986102521       -0.01099630842696
H            1.27935783575806        1.16342769798172        0.85916802450609
H            1.28774633821372        1.15474528659529       -0.89929763623544
H            0.00583545938644       -1.00133287805114       -0.89610144678680
H           -0.00084742340451       -0.98905360255600        0.86711054565428
H           -1.27475125011769        1.11986765567899       -0.93983480655791
H           -1.21083208870529        1.21587140399384        0.82048984908128
H           -3.27718491176256        0.27422328037961        0.03565176302952
H           -2.47077952215337       -0.84055950997117        0.87613889763038
16
 energy: -17.085315605935 gnorm: 0.008999714023 xtb: 6.7.1 (edcfbbe)
C            2.53870759415570       -0.35551735366601       -0.00620128173564
C            1.28249171615804        0.50374736793558       -0.01759577083483
C            0.01320902023775       -0.34397896821018       -0.01439600839799
C           -1.24368463084374        0.51772658149585       -0.02188596701686
N           -2.44491100408524       -0.32307901562759       -0.00208487930087
H            2.56835001749920       -0.98328271880570        0.88428057689753
H            2.56873684657786       -1.00456513136357       -0.88098808282036
H            3.43071710674355        0.26929935338404       -0.01318136208151
H            1.28267195234637        1.15876704757438        0.85943227671140
H            1.28699000759025        1.14565718460187       -0.90388295502158
H            0.00137976476550       -0.99924931099693       -0.88949065028562
H            0.00521521938605       -0.98548854239122        0.87333207185123
H           -1.27642763629368        1.11440375059393       -0.93955645281793
H           -1.20876516805143        1.21798757102039        0.82974340466367
H           -3.26667251056337        0.27422913967594        0.01944041904788
H           -2.45639108885794       -0.85254288375237        0.86647919766106
16
 energy: -17.085447907772 gnorm: 0.003174036264 xtb: 6.7.1 (edcfbbe)
C            2.53976944870594       -0.35749174445662       -0.00784935011953
C            1.28443735941282        0.50438854536072       -0.01864861830831
C            0.01405615770273       -0.34125715347641       -0.00891549952473
C           -1.24491817444465        0.52087535308158       -0.01618997609841
N           -2.43950507751181       -0.31863818850753       -0.00095772270105
H            2.56491708666682       -0.98181389835894        0.88160038913290
H            2.56318434980556       -1.00441140704721       -0.88070891765107
H            3.42952971569862        0.26614458290705       -0.01618398579759
H            1.28619732068055        1.15886642070120        0.85618281696937
H            1.28611573303560        1.13933802403064       -0.90696597603359
H           -0.00472809928029       -0.99439830175336       -0.88179926316116
H            0.00695194285951       -0.97584186148525        0.88038405538647
H           -1.27661990352845        1.11361985102654       -0.93469450200633
H           -1.20615571554395        1.22122662092531        0.83581344335987
H           -3.26742328972834        0.26898435023576        0.00645683267156
H           -2.45419164776580       -0.86547712171507        0.85592081040117
16
 energy: -17.085470574188 gnorm: 0.001586664617 xtb: 6.7.1 (edcfbbe)
C            2.53949905807783       -0.35883446273091       -0.00907361525266
C            1.28466543265428        0.50588216376485       -0.01960956385805
C            0.01397569031578       -0.33990492185872       -0.00511378275402
C           -1.24610447391820        0.52256073444462       -0.01292840623592
N           -2.43758919297290       -0.31802969538660       -0.00246707832703
H            2.56418117767478       -0.98229387587572        0.88110890080130
H            2.56070539598827       -1.00644298131500       -0.88158920936748
H            3.43018173386683        0.26352961296970       -0.01885213734216
H            1.28887154507709        1.16271745160857        0.85328007738392
H            1.28535406579979        1.13804854813588       -0.90970129260978
H           -0.00701445639402       -0.99495988073852       -0.87635679761382
H            0.00785964673418       -0.97146871776819        0.88618753015818
H           -1.27468833103283        1.11771279431372       -0.92989640362420
H           -1.20668512905020        1.22265258464658        0.84008419010229
H           -3.26779129312123        0.26467537744239       -0.00041325563602
H           -2.45380366293461       -0.87173066018426        0.84878538069503
16
 energy: -17.085484111197 gnorm: 0.001413809886 xtb: 6.7.1 (edcfbbe)
C            2.53954235428154       -0.36017441898322       -0.01150563583930
C            1.28543304666263        0.50721263455564       -0.02149400990843
C            0.01375159422202       -0.33706657680547        0.00166276369382
C           -1.24806237648047        0.52437742747936       -0.00767646941459
N           -2.43649080634053       -0.31783965933688       -0.00754800910290
H            2.56442421956415       -0.98270123820953        0.88012864881555
H            2.55782889067100       -1.00985981180710       -0.88338930159888
H            3.43265198902655        0.25977704626721       -0.02395502135767
H            1.29441649038259        1.16907718408329        0.84792102411820
H            1.28437795929949        1.13524560221103       -0.91488524661264
H           -0.00973989998005       -0.99752868956078       -0.86605304260079
H            0.00999059114456       -0.96397438708236        0.89677963266105
H           -1.27076961041983        1.12605935639470       -0.92110741262682
H           -1.21132530292992        1.22184754391110        0.84881330663290
H           -3.26922280335807        0.25912739915867       -0.01112794899979
H           -2.45518912898079       -0.87946534080725        0.83688125865982
16
 energy: -17.085491005551 gnorm: 0.000955099834 xtb: 6.7.1 (edcfbbe)
C            2.53896097062034       -0.36033052041147       -0.01278018948392
C            1.28560652349553        0.50735685675089       -0.02244773921232
C            0.01397273358706       -0.33635098193244        0.00493519249831
C           -1.24751393942597        0.52479315822375       -0.00535130572883
N           -2.43598323714389       -0.31799212855387       -0.01161334899407
H            2.56498207686001       -0.98207067344782        0.87942970638064
H            2.55668216022857       -1.01114238630181       -0.88389808838293
H            3.43237223791434        0.25917710693616       -0.02676621763816
H            1.29643780861763        1.17147950288040        0.84536074708528
H            1.28316405637212        1.13353280544800       -0.91732177342749
H           -0.01067160231572       -0.99954951139424       -0.86089172894271
H            0.01142367645680       -0.96109281052819        0.90175954034788
H           -1.26790418617174        1.12952643824390       -0.91700844296188
H           -1.21439036555976        1.21932670227924        0.85368251272191
H           -3.26885850866181        0.25896865022452       -0.01533899135776
H           -2.45666319810867       -0.88151813694862        0.83169466361559
16
 energy: -17.085499244768 gnorm: 0.000461563608 xtb: 6.7.1 (edcfbbe)
C            2.53909066275475       -0.36005224806707       -0.01508334104375
C            1.28599927383944        0.50696166145547       -0.02395708462111
C            0.01426045639258       -0.33600974682257        0.01073760513974
C           -1.24649563435920        0.52507461809126       -0.00145620320727
N           -2.43572613000301       -0.31785744213133       -0.01905041934294
H            2.56662480030753       -0.98028906630517        0.87794930353568
H            2.55509933943996       -1.01221888423180       -0.88503707441014
H            3.43239513866106        0.25935825227299       -0.03170775802110
H            1.29950833125726        1.17442197499997        0.84120298672272
H            1.28050833596850        1.12969984303105       -0.92115119776716
H           -0.01296483376767       -1.00345192603016       -0.85169551817397
H            0.01401989620135       -0.95630298558437        0.91058822400523
H           -1.26259467931971        1.13445622196454       -0.91001986297692
H           -1.21942082792193        1.21417332210043        0.86168687776344
H           -3.26792939588683        0.26072954080372       -0.02206852959465
H           -2.46075752679924       -0.88457906407853        0.82250652851176
16
 energy: -17.085502756345 gnorm: 0.000409910608 xtb: 6.7.1 (edcfbbe)
C            2.53896893633815       -0.36022185805605       -0.01704901349472
C            1.28606435428020        0.50724177650637       -0.02509258136464
C            0.01460144148931       -0.33601320559876        0.01571390652464
C           -1.24585606536297        0.52546298174481        0.00205656236560
N           -2.43536001272233       -0.31733597533698       -0.02483514882687
H            2.56853654075910       -0.97880681762478        0.87700365865894
H            2.55367547158115       -1.01386809588858       -0.88585187904507
H            3.43196078430350        0.25938412680747       -0.03647144748164
H            1.30172470123699        1.17748808661262        0.83787223142304
H            1.27799876645708        1.12689425073504       -0.92438901451537
H           -0.01443323527789       -1.00670881200910       -0.84408368973748
H            0.01606402952612       -0.95258525722022        0.91806210461649
H           -1.25789847967566        1.13859727378027       -0.90401996610160
H           -1.22289272585294        1.21055683213927        0.86831836001373
H           -3.26723641463461        0.26199563355968       -0.02791408446447
H           -2.46430088568035       -0.88796686868264        0.81412453794896
16
 energy: -17.085504254888 gnorm: 0.000242699302 xtb: 6.7.1 (edcfbbe)
C            2.53947078691382       -0.36008258261320       -0.01801011668879
C            1.28620784925655        0.50696446104206       -0.02557598139564
C            0.01456803613241       -0.33591758420166        0.01839242220972
C           -1.24598313287614        0.52565189846156        0.00400359746694
N           -2.43548381100915       -0.31675196564907       -0.02790987397110
H            2.57029890066206       -0.97712917431913        0.87705973404337
H            2.55245967271108       -1.01516184468270       -0.88577052735970
H            3.43246573481601        0.25953267939892       -0.04001849838086
H            1.30334861688304        1.17871167756722        0.83611256519326
H            1.27686133205826        1.12490472354442       -0.92595763006812
H           -0.01536120224567       -1.00812937206564       -0.84012356193786
H            0.01697274615039       -0.95066295245760        0.92190600486049
H           -1.25575423465825        1.14098353397417       -0.90057059901242
H           -1.22481971616327        1.20860826839527        0.87193566188183
H           -3.26722605271545        0.26273397667461       -0.03101067159734
H           -2.46640831915084       -0.89014167160082        0.80898201127576
16
 energy: -17.085505096917 gnorm: 0.000093917240 xtb: 6.7.1 (edcfbbe)
C            2.53947905094221       -0.36017712729150       -0.01834469075089
C            1.28618177397088        0.50706336255722       -0.02579359137795
C            0.01460751997164       -0.33588782227015        0.01951585349294
C           -1.24597319522611        0.52582914840808        0.00508508805010
N           -2.43536207884036       -0.31633935615483       -0.02946244999208
H            2.57168833981970       -0.97548331011670        0.87789747082749
H            2.55124633522873       -1.01692892255743       -0.88488409630354
H            3.43238635436313        0.25947136912224       -0.04287137278426
H            1.30385477710904        1.17956152922838        0.83526801196755
H            1.27622949435825        1.12416318968576       -0.92672736746701
H           -0.01583840682013       -1.00857072236780       -0.83860465518385
H            0.01734905175839       -0.94998504276059        0.92343861026083
H           -1.25454979820742        1.14246622324277       -0.89857550506853
H           -1.22541600385641        1.20764824773726        0.87393519866391
H           -3.26709549851288        0.26307549732376       -0.03229286312852
H           -2.46717050929383       -0.89179219231806        0.80586089531336
16
 energy: -17.085505760369 gnorm: 0.000112772018 xtb: 6.7.1 (edcfbbe)
C            2.53949810595990       -0.36021073922478       -0.01827304397330
C            1.28618265422532        0.50707943926628       -0.02600310058917
C            0.01457159691037       -0.33581755751774        0.01977723520628
C           -1.24600251818200        0.52602769675548        0.00576198121702
N           -2.43534875877805       -0.31599376253923       -0.03042848247675
H            2.57301044385022       -0.97335429940574        0.87941855898572
H            2.54992075436720       -1.01906457008412       -0.88324902248700
H            3.43241224838088        0.25932595015717       -0.04564064381079
H            1.30399461544643        1.17999103012889        0.83473317106070
H            1.27617863471979        1.12373793280703       -0.92725055419566
H           -0.01614425554273       -1.00839138791301       -0.83842661730873
H            0.01754655869512       -0.95001720453805        0.92363757583275
H           -1.25402805890414        1.14373801504701       -0.89718655352706
H           -1.22571945884327        1.20691020390891        0.87540731544422
H           -3.26711186677802        0.26334150093313       -0.03245971259667
H           -2.46734348876217       -0.89318817631283        0.80362642973798
16
 energy: -17.085506378997 gnorm: 0.000110129238 xtb: 6.7.1 (edcfbbe)
C            2.53943453606021       -0.36029406354327       -0.01787234694870
C            1.28622940644280        0.50713911021216       -0.02630868187204
C            0.01454662120982       -0.33564181115586        0.01945750691962
C           -1.24600406752936        0.52621294648073        0.00633697461738
N           -2.43536120819216       -0.31569604377810       -0.03125930481350
H            2.57434718377102       -0.97065619344668        0.88166246096653
H            2.54837847061656       -1.02182971577308       -0.88082201845035
H            3.43236862099422        0.25904720974218       -0.04861379088229
H            1.30391339531898        1.18048484890530        0.83410043842221
H            1.27644997084041        1.12336958389293       -0.92785565540407
H           -0.01655993365790       -1.00772924198196       -0.83913254899728
H            0.01779209546597       -0.95035169644377        0.92298058048452
H           -1.25383553989216        1.14516144012875       -0.89577027074122
H           -1.22585573398629        1.20595163397319        0.87689227706257
H           -3.26713896248340        0.26360539035452       -0.03189857657774
H           -2.46708764821386       -0.89465932609862        0.80154749273390
16
 energy: -17.085506798538 gnorm: 0.000068645009 xtb: 6.7.1 (edcfbbe)
C            2.53933381552975       -0.36035878948805       -0.01735990282968
C            1.28624711661103        0.50718571424505       -0.02686225415503
C            0.01448337686648       -0.33546689380402        0.01899506394402
C           -1.24596815696393        0.52650489837429        0.00694154336570
N           -2.43528708408685       -0.31546270948848       -0.03196849350251
H            2.57524569784293       -0.96809796168636        0.88389502072561
H            2.54710474965519       -1.02441980608345       -0.87836196636424
H            3.43234512322085        0.25870037594746       -0.05099789732299
H            1.30366807446406        1.18102008354516        0.83317287611027
H            1.27690084092603        1.12291078664219       -0.92877292756437
H           -0.01698283470771       -1.00697306325543       -0.84004185464517
H            0.01806499678523       -0.95082526622393        0.92209754706302
H           -1.25375056449874        1.14671178649691       -0.89432563681005
H           -1.22599775948177        1.20501355576238        0.87847025946420
H           -3.26713319045947        0.26376775846554       -0.03115447043421
H           -2.46665699493822       -0.89609639798084        0.79971762947498
16
 energy: -17.085507028242 gnorm: 0.000046841938 xtb: 6.7.1 (edcfbbe)
C            2.53926377488421       -0.36045075626433       -0.01692871647785
C            1.28633205753496        0.50726924385208       -0.02737217824031
C            0.01450046462825       -0.33525805125990        0.01856927520604
C           -1.24596145402911        0.52664088860944        0.00746278748360
N           -2.43529818350967       -0.31531486314051       -0.03248803891987
H            2.57558856654395       -0.96645380081899        0.88546653811939
H            2.54647245157468       -1.02616040563284       -0.87665405974291
H            3.43233203406502        0.25840580864621       -0.05224191349996
H            1.30357244347094        1.18172849627000        0.83219863412735
H            1.27727044904958        1.12235016533645       -0.92972710212950
H           -0.01744099642476       -1.00639596825008       -0.84075497612443
H            0.01845291347883       -0.95101475470598        0.92140319483304
H           -1.25376997170527        1.14790325835502       -0.89307829927446
H           -1.22611266591792        1.20410705106221        0.87979102989282
H           -3.26718220664836        0.26387094737881       -0.03060267377982
H           -2.46640247023048       -0.89711318796919        0.79840103504641
16
 energy: -17.085507192280 gnorm: 0.000038896092 xtb: 6.7.1 (edcfbbe)
C            2.53920009325108       -0.36049968113140       -0.01656860576302
C            1.28635044064330        0.50730460331116       -0.02802386424564
C            0.01447551465801       -0.33512797371579        0.01832538476433
C           -1.24594088349299        0.52681999931484        0.00798119979064
N           -2.43521997580028       -0.31521431481251       -0.03288210388709
H            2.57549236843246       -0.96544961355825        0.88652498919655
H            2.54629076242297       -1.02721649548706       -0.87549811369817
H            3.43234401949847        0.25819318651231       -0.05263988423172
H            1.30343927328853        1.18237609519751        0.83105875499747
H            1.27755550453333        1.12174708873550       -0.93081483909139
H           -0.01785215639552       -1.00600955647536       -0.84117955808051
H            0.01880020014059       -0.95115260933307        0.92098500561882
H           -1.25374306664071        1.14898805550606       -0.89193958541300
H           -1.22620703034556        1.20338412850411        0.88100134099860
H           -3.26714897957051        0.26391024423843       -0.03026478221611
H           -2.46621887785833       -0.89793908533806        0.79737919777979
16
 energy: -17.085507348084 gnorm: 0.000041323057 xtb: 6.7.1 (edcfbbe)
C            2.53916244654715       -0.36055169705503       -0.01621456011583
C            1.28639424321671        0.50735064187563       -0.02878319152459
C            0.01448072065388       -0.33498446807344        0.01807807308589
C           -1.24593431833912        0.52697074352902        0.00863253308064
N           -2.43517976676411       -0.31507935674015       -0.03329252555930
H            2.57509693981142       -0.96463850433707        0.88747030175510
H            2.54644719820449       -1.02809584584881       -0.87450439807741
H            3.43238728089090        0.25800841800050       -0.05258145216956
H            1.30334210488613        1.18329589063863        0.82962443270118
H            1.27783984042122        1.12086032706236       -0.93220762879718
H           -0.01836687121881       -1.00571527466913       -0.84152879807462
H            0.01928315442964       -0.95116617091485        0.92062411218441
H           -1.25370125222614        1.15015838930672       -0.89057967579463
H           -1.22631787350162        1.20252964774379        0.88242882110812
H           -3.26715347441543        0.26398482997164       -0.02999422942910
H           -2.46616316583145       -0.89881349902140        0.79627272214640
16
 energy: -17.085507463264 gnorm: 0.000032102937 xtb: 6.7.1 (edcfbbe)
C            2.53913381389177       -0.36060153884125       -0.01578626013737
C            1.28642991068897        0.50738659477275       -0.02976121558058
C            0.01448322693068       -0.33485462883585        0.01789708624827
C           -1.24593308165849        0.52711133012001        0.00939289313907
N           -2.43515933136432       -0.31489581767404       -0.03378300403162
H            2.57461719091230       -0.96389800623417        0.88845727050349
H            2.54677050252578       -1.02890518589945       -0.87348312364491
H            3.43242405971040        0.25786395148185       -0.05229385235978
H            1.30324732721012        1.18435426800444        0.82783162738501
H            1.27807531050813        1.11981485280397       -0.93391583486555
H           -0.01900852297782       -1.00542919166465       -0.84180043474558
H            0.01986413112400       -0.95116810213888        0.92035490591644
H           -1.25360917309884        1.15150777802133       -0.88897945187160
H           -1.22639518511920        1.20149304833224        0.88409230039284
H           -3.26714449099654        0.26413708962810       -0.02972169631834
H           -2.46617848152209       -0.89980237040798        0.79494332648974
16
 energy: -17.085507497137 gnorm: 0.000024815703 xtb: 6.7.1 (edcfbbe)
C            2.53912602517708       -0.36060449060881       -0.01558606983747
C            1.28642011067327        0.50737391894530       -0.03031699956034
C            0.01446072014242       -0.33481576398572        0.01780034456279
C           -1.24591796998640        0.52723523315197        0.00991491940670
N           -2.43512429074496       -0.31474162751700       -0.03412536017122
H            2.57430410627970       -0.96335229558761        0.88903235385693
H            2.54700347845340       -1.02943939459367       -0.87287817856025
H            3.43245149776041        0.25781559259659       -0.05217027828473
H            1.30314537887397        1.18503825977484        0.82673148187900
H            1.27820558210580        1.11905687159151       -0.93496636630952
H           -0.01939320729507       -1.00536082202313       -0.84190876302991
H            0.02020078446353       -0.95115151072230        0.92023429920595
H           -1.25347081785597        1.15237214820393       -0.88793826551485
H           -1.22647195855367        1.20089877999929        0.88517448970616
H           -3.26711512580246        0.26428056997155       -0.02955816926980
H           -2.46620710692620       -0.90049139772831        0.79400509844009
