
                                 *****************
                                 * O   R   C   A *
                                 *****************

                                            #,                                       
                                            ###                                      
                                            ####                                     
                                            #####                                    
                                            ######                                   
                                           ########,                                 
                                     ,,################,,,,,                         
                               ,,#################################,,                 
                          ,,##########################################,,             
                       ,#########################################, ''#####,          
                    ,#############################################,,   '####,        
                  ,##################################################,,,,####,       
                ,###########''''           ''''###############################       
              ,#####''   ,,,,##########,,,,          '''####'''          '####       
            ,##' ,,,,###########################,,,                        '##       
           ' ,,###''''                  '''############,,,                           
         ,,##''                                '''############,,,,        ,,,,,,###''
      ,#''                                            '''#######################'''  
     '                                                          ''''####''''         
             ,#######,   #######,   ,#######,      ##                                
            ,#'     '#,  ##    ##  ,#'     '#,    #''#        ,####,   ,####,        
            ##       ##  ##   ,#'  ##            #'  '#       #'       #'  '#        
            ##       ##  #######   ##           ,######,      #####,   #    #        
            '#,     ,#'  ##    ##  '#,     ,#' ,#      #,     #,   #   #,  ,#        
             '#######'   ##     ##  '#######'  #'      '#     '####' # '####'        



                #########################################################
                #                        -***-                          #
                #          Department of theory and spectroscopy        #
                #                                                       #
                #                      Frank Neese                      #
                #                                                       #
                #     Directorship, Architecture, Infrastructure        #
                #                    SHARK, DRIVERS                     #
                #        Core code/Algorithms in most modules           #
                #                                                       #
                #        Max Planck Institute fuer Kohlenforschung      #
                #                Kaiser Wilhelm Platz 1                 #
                #                 D-45470 Muelheim/Ruhr                 #
                #                      Germany                          #
                #                                                       #
                #                  All rights reserved                  #
                #                        -***-                          #
                #########################################################


                         Program Version 6.0.0  -   RELEASE  -


 With contributions from (in alphabetic order):
   Daniel Aravena         : Magnetic Suceptibility
   Michael Atanasov       : Ab Initio Ligand Field Theory (pilot matlab implementation)
   Alexander A. Auer      : GIAO ZORA, VPT2 properties, NMR spectrum
   Ute Becker             : All parallelization in ORCA, NUMFREQ, NUMCALC
   Giovanni Bistoni       : ED, misc. LED, open-shell LED, HFLD
   Martin Brehm           : Molecular dynamics
   Dmytro Bykov           : pre 5.0 version of the SCF Hessian
   Marcos Casanova-Páez   : Triplet and SCS-CIS(D). UHF-(DLPNO)-IP/EA/STEOM-CCSD. UHF-CVS-IP/STEOM-CCSD
   Vijay G. Chilkuri      : MRCI spin determinant printing, contributions to CSF-ICE
   Pauline Colinet        : FMM embedding
   Dipayan Datta          : RHF DLPNO-CCSD density
   Achintya Kumar Dutta   : EOM-CC, STEOM-CC
   Nicolas Foglia         : Exact transition moments, OPA infrastructure, MCD improvements
   Dmitry Ganyushin       : Spin-Orbit,Spin-Spin,Magnetic field MRCI
   Miquel Garcia          : C-PCM and meta-GGA Hessian, CCSD/C-PCM, Gaussian charge scheme
   Tiago L. C. Gouveia    : GS-ROHF, GS-ROCIS
   Yang Guo               : DLPNO-NEVPT2, F12-NEVPT2, CIM, IAO-localization
   Andreas Hansen         : Spin unrestricted coupled pair/coupled cluster methods
   Ingolf Harden          : AUTO-CI MPn and infrastructure 
   Benjamin Helmich-Paris : MC-RPA, TRAH-(SCF,CASSCF), AVAS, COSX integrals, SCF dyn. polar.
   Lee Huntington         : MR-EOM, pCC
   Robert Izsak           : Overlap fitted RIJCOSX, COSX-SCS-MP3, EOM
   Riya Kayal             : Wick's Theorem for AUTO-CI, AUTO-CI UHF-CCSDT
   Emily Kempfer          : AUTO-CI, RHF CISDT and CCSDT
   Christian Kollmar      : KDIIS, OOCD, Brueckner-CCSD(T), CCSD density, CASPT2, CASPT2-K, improved NEVPT2
   Axel Koslowski         : Symmetry handling
   Simone Kossmann        : Meta GGA functionals, TD-DFT gradient, OOMP2, (MP2 Hessian; deprecated post 5.0)
   Lucas Lang             : DCDCAS
   Marvin Lechner         : AUTO-CI (C++ implementation), FIC-MRCC
   Spencer Leger          : CASSCF response
   Dagmar Lenk            : GEPOL surface, SMD, ORCA-2-JSON
   Dimitrios Liakos       : Extrapolation schemes; Compound Job, initial MDCI parallelization
   Dimitrios Manganas     : Further ROCIS development; embedding schemes. LFT, Crystal Embedding
   Dimitrios Pantazis     : SARC Basis sets
   Anastasios Papadopoulos: AUTO-CI, single reference methods and gradients
   Taras Petrenko         : pre 6.0 DFT Hessian and TD-DFT gradient, (ASA, deprecated), ECA, 1-Electron XAS/XES, NRVS
   Peter Pinski           : DLPNO-MP2, DLPNO-MP2 Gradient
   Christoph Reimann      : Effective Core Potentials
   Marius Retegan         : Local ZFS, SOC
   Christoph Riplinger    : Optimizer, TS searches, QM/MM, DLPNO-CCSD(T), (RO)-DLPNO pert. Triples
   Michael Roemelt        : Original ROCIS implementation
   Masaaki Saitow         : Open-shell DLPNO-CCSD energy and density
   Barbara Sandhoefer     : DKH picture change effects
   Kantharuban Sivalingam : CASSCF convergence/infrastructure, NEVPT2 and variants, FIC-MRCI
   Bernardo de Souza      : ESD, SOC TD-DFT
   Georgi Stoychev        : AutoAux, RI-MP2 NMR, DLPNO-MP2 response, X2C
   Van Anh Tran           : RI-MP2 g-tensors
   Willem Van den Heuvel  : Paramagnetic NMR
   Zikuan Wang            : NOTCH, Electric field optimization 
   Frank Wennmohs         : Technical directorship and infrastructure
   Hang Xu                : AUTO-CI-Response properties 


 We gratefully acknowledge several colleagues who have allowed us to
 interface, adapt or use parts of their codes:
   Stefan Grimme, W. Hujo, H. Kruse, P. Pracht,  : VdW corrections, initial TS optimization,
                  C. Bannwarth, S. Ehlert,         DFT functionals, gCP, sTDA/sTD-DF
                  L. Wittmann, M. Mueller
   Ed Valeev, F. Pavosevic, A. Kumar             : LibInt (2-el integral package), F12 methods
   Garnet Chan, S. Sharma, J. Yang, R. Olivares  : DMRG
   Ulf Ekstrom                                   : XCFun DFT Library
   Mihaly Kallay                                 : mrcc  (arbitrary order and MRCC methods)
   Frank Weinhold                                : gennbo (NPA and NBO analysis)
   Simon Mueller                                 : openCOSMO-RS
   Christopher J. Cramer and Donald G. Truhlar   : smd solvation model
   Lars Goerigk                                  : TD-DFT with DH, B97 family of functionals
   V. Asgeirsson, H. Jonsson                     : NEB implementation
   FAccTs GmbH                                   : IRC, NEB, NEB-TS, DLPNO-Multilevel, CI-OPT
                                                   MM, QMMM, 2- and 3-layer-ONIOM, Crystal-QMMM,
                                                   LR-CPCM, SF, NACMEs, symmetry and pop. for TD-DFT,
                                                   nearIR, NL-DFT gradient (VV10), updates on ESD,
                                                   ML-optimized integration grids, MBIS, APM,
                                                   GOAT, DOCKER, SOLVATOR, interface openCOSMO-RS
   S Lehtola, MJT Oliveira, MAL Marques          : LibXC Library
   Liviu Ungur et al                             : ANISO software


 Your calculation uses the libint2 library for the computation of 2-el integrals
 For citations please refer to: http://libint.valeyev.net

 Your ORCA version has been built with support for libXC version: 6.2.2
 For citations please refer to: https://libxc.gitlab.io

 This ORCA versions uses:
   CBLAS   interface :  Fast vector & matrix operations
   LAPACKE interface :  Fast linear algebra routines
   SCALAPACK package :  Parallel linear algebra routines
   Shared memory     :  Shared parallel matrices
   BLAS/LAPACK       :  OpenBLAS 0.3.27  USE64BITINT DYNAMIC_ARCH NO_AFFINITY SkylakeX SINGLE_THREADED
        Core in use  :  SkylakeX
   Copyright (c) 2011-2014, The OpenBLAS Project


Your calculation utilizes the geometrical counterpoise correction gCP
Please cite in your paper:
H.Kruse, S. Grimme J.Chem.Phys., 136, (2012), 154101 
   

Your calculation utilizes the atom-pairwise dispersion correction
based on EEQ partial charges (D4)


Your calculation utilizes the SMD solvation module
Please cite in your paper:
A.V. Marenich, C.J. Cramer, D.G. Truhlar J. Phys. Chem. B, 113, (2009), 6378 

================================================================================

----- Orbital basis set information -----
Your calculation utilizes the basis: def2-mTZVPP
   Stefan Grimme, Andreas Hansen, Sebastian Ehlert, and Jan-Michael Mewes 
   J. Chem. Phys. 154, 064103 (2021). DOI: 10.1063/5.0040021

----- AuxJ basis set information -----
Your calculation utilizes the auxiliary basis: def2/J
   F. Weigend, Phys. Chem. Chem. Phys. 8, 1057 (2006).

================================================================================
                                        WARNINGS
                       Please study these warnings very carefully!
================================================================================

Using LibXC functional ID 497 : Re-regularized SCAN exchange by Furness et al
[ 1]  J. W. Furness, A. D. Kaplan, J. Ning, J. P. Perdew, and J. Sun.,  J. Phys. Chem. Lett. 11, 8208-8215 (2020)
[ 2]  J. W. Furness, A. D. Kaplan, J. Ning, J. P. Perdew, and J. Sun.,  J. Phys. Chem. Lett. 11, 9248-9248 (2020)
Using LibXC functional ID 498 : Re-regularized SCAN correlation by Furness et al
[ 1]  J. W. Furness, A. D. Kaplan, J. Ning, J. P. Perdew, and J. Sun.,  J. Phys. Chem. Lett. 11, 8208-8215 (2020)
[ 2]  J. W. Furness, A. D. Kaplan, J. Ning, J. P. Perdew, and J. Sun.,  J. Phys. Chem. Lett. 11, 9248-9248 (2020)
Using LibXC functional ID 497 : Re-regularized SCAN exchange by Furness et al
[ 1]  J. W. Furness, A. D. Kaplan, J. Ning, J. P. Perdew, and J. Sun.,  J. Phys. Chem. Lett. 11, 8208-8215 (2020)
[ 2]  J. W. Furness, A. D. Kaplan, J. Ning, J. P. Perdew, and J. Sun.,  J. Phys. Chem. Lett. 11, 9248-9248 (2020)
Using LibXC functional ID 498 : Re-regularized SCAN correlation by Furness et al
[ 1]  J. W. Furness, A. D. Kaplan, J. Ning, J. P. Perdew, and J. Sun.,  J. Phys. Chem. Lett. 11, 8208-8215 (2020)
[ 2]  J. W. Furness, A. D. Kaplan, J. Ning, J. P. Perdew, and J. Sun.,  J. Phys. Chem. Lett. 11, 9248-9248 (2020)

================================================================================
                                       INPUT FILE
================================================================================
NAME = sp_solv.inp
|  1> ! r2scan-3c def2/J RI DEFGRID2 scfconv6 printgap
|  2> %output
|  3>     printlevel normal
|  4> end
|  5> %cpcm
|  6>     smd true
|  7>     smdsolvent "water"
|  8> end
|  9> * xyz 0 1
| 10> C 2.3926805269 -0.3208104577 -0.1772258075
| 11> C 0.9953750159 0.239930304 -0.4110449565
| 12> C 0.0621758536 -0.0524541301 0.7608697061
| 13> C -1.3590143075 0.4450502572 0.5014857168
| 14> N -1.9479332608 -0.2471656304 -0.6378952668
| 15> H 3.039775053 -0.0956394766 -1.0211544987
| 16> H 2.8326640655 0.1117980709 0.7189321543
| 17> H 2.3546698046 -1.400649041 -0.0521186707
| 18> H 1.0552253418 1.3202153391 -0.5580500728
| 19> H 0.5660255781 -0.194403593 -1.3141999216
| 20> H 0.0345020303 -1.1301511962 0.9400914497
| 21> H 0.4432097927 0.4273483244 1.6647825592
| 22> H -1.3323341042 1.5114414808 0.2589579404
| 23> H -1.95109792 0.3256674517 1.426533635
| 24> H -2.8924742625 0.0856302464 -0.7924357033
| 25> H -2.0006382947 -1.2410926311 -0.4395333396
| 26> *
| 27> 
| 28>                          ****END OF INPUT****
================================================================================

                       ****************************
                       * Single Point Calculation *
                       ****************************

---------------------------------
CARTESIAN COORDINATES (ANGSTROEM)
---------------------------------
  C      2.392681   -0.320810   -0.177226
  C      0.995375    0.239930   -0.411045
  C      0.062176   -0.052454    0.760870
  C     -1.359014    0.445050    0.501486
  N     -1.947933   -0.247166   -0.637895
  H      3.039775   -0.095639   -1.021154
  H      2.832664    0.111798    0.718932
  H      2.354670   -1.400649   -0.052119
  H      1.055225    1.320215   -0.558050
  H      0.566026   -0.194404   -1.314200
  H      0.034502   -1.130151    0.940091
  H      0.443210    0.427348    1.664783
  H     -1.332334    1.511441    0.258958
  H     -1.951098    0.325667    1.426534
  H     -2.892474    0.085630   -0.792436
  H     -2.000638   -1.241093   -0.439533

----------------------------
CARTESIAN COORDINATES (A.U.)
----------------------------
  NO LB      ZA    FRAG     MASS         X           Y           Z
   0 C     6.0000    0    12.011    4.521511   -0.606244   -0.334908
   1 C     6.0000    0    12.011    1.880986    0.453403   -0.776762
   2 C     6.0000    0    12.011    0.117495   -0.099124    1.437835
   3 C     6.0000    0    12.011   -2.568165    0.841023    0.947671
   4 N     7.0000    0    14.007   -3.681060   -0.467075   -1.205447
   5 H     1.0000    0     1.008    5.744342   -0.180732   -1.929702
   6 H     1.0000    0     1.008    5.352959    0.211268    1.358585
   7 H     1.0000    0     1.008    4.449681   -2.646843   -0.098490
   8 H     1.0000    0     1.008    1.994087    2.494845   -1.054562
   9 H     1.0000    0     1.008    1.069633   -0.367370   -2.483478
  10 H     1.0000    0     1.008    0.065199   -2.135676    1.776515
  11 H     1.0000    0     1.008    0.837545    0.807571    3.145983
  12 H     1.0000    0     1.008   -2.517747    2.856210    0.489360
  13 H     1.0000    0     1.008   -3.687041    0.615422    2.695758
  14 H     1.0000    0     1.008   -5.465984    0.161818   -1.497486
  15 H     1.0000    0     1.008   -3.780658   -2.345325   -0.830598

--------------------------------
INTERNAL COORDINATES (ANGSTROEM)
--------------------------------
 C      0   0   0     0.000000000000     0.00000000     0.00000000
 C      1   0   0     1.523668037120     0.00000000     0.00000000
 C      2   1   0     1.526346392612   111.86174601     0.00000000
 C      3   2   1     1.527930673589   112.08417246   182.91174995
 N      4   3   2     1.457455795004   110.72674982    62.86605473
 H      1   2   3     1.087036766751   110.52056935   180.32456183
 H      1   2   3     1.088041702213   110.54318568   300.39061378
 H      1   2   3     1.087726057733   110.54573495    60.30387860
 H      2   1   3     1.091882925404   109.54237818   121.03842068
 H      2   1   3     1.090264080307   109.97777711   239.23505433
 H      3   2   1     1.092848223751   109.28690426   303.84258894
 H      3   2   1     1.091996201500   109.75781001    61.91536401
 H      4   3   2     1.093947803757   109.41181147   304.64358608
 H      4   3   2     1.104775501813   108.73318775   187.26263257
 H      5   4   3     1.013308218669   109.87036775   179.43307103
 H      5   4   3     1.014897116698   109.47061882    61.42846265

---------------------------
INTERNAL COORDINATES (A.U.)
---------------------------
 C      0   0   0     0.000000000000     0.00000000     0.00000000
 C      1   0   0     2.879315309167     0.00000000     0.00000000
 C      2   1   0     2.884376667534   111.86174601     0.00000000
 C      3   2   1     2.887370524702   112.08417246   182.91174995
 N      4   3   2     2.754192304854   110.72674982    62.86605473
 H      1   2   3     2.054201786663   110.52056935   180.32456183
 H      1   2   3     2.056100839468   110.54318568   300.39061378
 H      1   2   3     2.055504357845   110.54573495    60.30387860
 H      2   1   3     2.063359699319   109.54237818   121.03842068
 H      2   1   3     2.060300525431   109.97777711   239.23505433
 H      3   2   1     2.065183848832   109.28690426   303.84258894
 H      3   2   1     2.063573760117   109.75781001    61.91536401
 H      4   3   2     2.067261753905   109.41181147   304.64358608
 H      4   3   2     2.087723137892   108.73318775   187.26263257
 H      5   4   3     1.914875022535   109.87036775   179.43307103
 H      5   4   3     1.917877604665   109.47061882    61.42846265

---------------------
BASIS SET INFORMATION
---------------------
There are 3 groups of distinct atoms

 Group   1 Type C   : 11s6p1d contracted to 5s3p1d pattern {62111/411/1}
 Group   2 Type N   : 11s6p2d contracted to 5s3p2d pattern {62111/411/11}
 Group   3 Type H   : 4s1p contracted to 2s1p pattern {31/1}

Atom   0C    basis set group =>   1
Atom   1C    basis set group =>   1
Atom   2C    basis set group =>   1
Atom   3C    basis set group =>   1
Atom   4N    basis set group =>   2
Atom   5H    basis set group =>   3
Atom   6H    basis set group =>   3
Atom   7H    basis set group =>   3
Atom   8H    basis set group =>   3
Atom   9H    basis set group =>   3
Atom  10H    basis set group =>   3
Atom  11H    basis set group =>   3
Atom  12H    basis set group =>   3
Atom  13H    basis set group =>   3
Atom  14H    basis set group =>   3
Atom  15H    basis set group =>   3
---------------------------------
AUXILIARY/J BASIS SET INFORMATION
---------------------------------
There are 3 groups of distinct atoms

 Group   1 Type C   : 12s5p4d2f1g contracted to 6s4p3d1f1g pattern {711111/2111/211/2/1}
 Group   2 Type N   : 12s5p4d2f1g contracted to 6s4p3d1f1g pattern {711111/2111/211/2/1}
 Group   3 Type H   : 5s2p1d contracted to 3s1p1d pattern {311/2/1}

Atom   0C    basis set group =>   1
Atom   1C    basis set group =>   1
Atom   2C    basis set group =>   1
Atom   3C    basis set group =>   1
Atom   4N    basis set group =>   2
Atom   5H    basis set group =>   3
Atom   6H    basis set group =>   3
Atom   7H    basis set group =>   3
Atom   8H    basis set group =>   3
Atom   9H    basis set group =>   3
Atom  10H    basis set group =>   3
Atom  11H    basis set group =>   3
Atom  12H    basis set group =>   3
Atom  13H    basis set group =>   3
Atom  14H    basis set group =>   3
Atom  15H    basis set group =>   3

Checking for AutoStart:
The File: sp_solv.gbw exists
Trying to determine its content:
     ... Fine, the file contains calculation information
     ... Fine, the calculation information was read
     ... Fine, the file contains a basis set
     ... Fine, the basis set was read
     ... Fine, the file contains a geometry
     ... Fine, the geometry was read
     ... Fine, the file contains a set of orbitals
     ... Fine, the orbitals can be read
     => possible old guess file was deleted
     => GBW file was renamed to GES file
     => GES file is set as startup file
     => Guess is set to MORead
     ... now leaving AutoStart

------------------------------------------------------------------------------
                             ORCA STARTUP CALCULATIONS
                           -- RI-GTO INTEGRALS CHOSEN --
------------------------------------------------------------------------------
------------------------------------------------------------------------------
                   ___                                                        
                  /   \      - P O W E R E D   B Y -                         
                 /     \                                                     
                 |  |  |   _    _      __       _____    __    __             
                 |  |  |  | |  | |    /  \     |  _  \  |  |  /  |          
                  \  \/   | |  | |   /    \    | | | |  |  | /  /          
                 / \  \   | |__| |  /  /\  \   | |_| |  |  |/  /          
                |  |  |   |  __  | /  /__\  \  |    /   |      \           
                |  |  |   | |  | | |   __   |  |    \   |  |\   \          
                \     /   | |  | | |  |  |  |  | |\  \  |  | \   \       
                 \___/    |_|  |_| |__|  |__|  |_| \__\ |__|  \__/        
                                                                              
                      - O R C A' S   B I G   F R I E N D -                    
                                      &                                       
                       - I N T E G R A L  F E E D E R -                       
                                                                              
 v1 FN, 2020, v2 2021, v3 2022-2024                                           
------------------------------------------------------------------------------


----------------------
SHARK INTEGRAL PACKAGE
----------------------

Number of atoms                             ...     16
Number of basis functions                   ...    155
Number of shells                            ...     79
Maximum angular momentum                    ...      2
Integral batch strategy                     ... SHARK/LIBINT Hybrid
RI-J (if used) integral strategy            ... SPLIT-RIJ (Revised 2003 algorithm where possible)
Printlevel                                  ...      1
Contraction scheme used                     ... SEGMENTED contraction
Prescreening option                         ... SCHWARTZ
   Thresh                                   ... 1.000e-10
   Tcut                                     ... 1.000e-11
   Tpresel                                  ... 1.000e-11 
Coulomb Range Separation                    ... NOT USED
Exchange Range Separation                   ... NOT USED
Multipole approximations                    ... NOT USED
Finite Nucleus Model                        ... NOT USED
CABS basis                                  ... NOT available
Auxiliary Coulomb fitting basis             ... AVAILABLE
   # of basis functions in Aux-J            ...    366
   # of shells in Aux-J                     ...    130
   Maximum angular momentum in Aux-J        ...      4
Auxiliary J/K fitting basis                 ... NOT available
Auxiliary Correlation fitting basis         ... NOT available
Auxiliary 'external' fitting basis          ... NOT available

Checking pre-screening integrals            ... done (  0.0 sec) Dimension = 79
Check shell pair data                       ... done (  0.0 sec)
Shell pair information
Shell pair cut-off parameter TPreSel        ...   1.0e-11
Total number of shell pairs                 ...      3160
Shell pairs after pre-screening             ...      2958
Total number of primitive shell pairs       ...     10874
Primitive shell pairs kept                  ...      7718
          la=0 lb=0:   1049 shell pairs
          la=1 lb=0:   1143 shell pairs
          la=1 lb=1:    329 shell pairs
          la=2 lb=0:    269 shell pairs
          la=2 lb=1:    147 shell pairs
          la=2 lb=2:     21 shell pairs

Calculating one electron integrals          ... done (  0.0 sec)
Calculating RI/J V-Matrix + Cholesky decomp.... done (  0.1 sec)
Calculating Nuclear repulsion               ... done (  0.0 sec) ENN=    189.463591865978 Eh

Diagonalization of the overlap matrix:
Smallest eigenvalue                        ... 1.958e-04
Time for diagonalization                   ...    0.002 sec
Threshold for overlap eigenvalues          ... 1.000e-07
Number of eigenvalues below threshold      ... 0
Time for construction of square roots      ...    0.018 sec
Total time needed                          ...    0.032 sec

-------------------
DFT GRID GENERATION
-------------------

General Integration Accuracy     IntAcc      ... 4.388
Radial Grid Type                 RadialGrid  ... OptM3 with GC (2021)
Angular Grid (max. ang.)         AngularGrid ... 4 (Lebedev-302)
Angular grid pruning method      GridPruning ... 4 (adaptive)
Weight generation scheme         WeightScheme... mBecke (2022)
Basis function cutoff            BFCut       ... 1.0000e-10
Integration weight cutoff        WCut        ... 1.0000e-14
Partially contracted basis set               ... off
Rotationally invariant grid construction     ... off
Angular grids for H and He will be reduced by one unit

Total number of grid points                  ...    65498
Total number of batches                      ...     1033
Average number of points per batch           ...       63
Average number of grid points per atom       ...     4094
Initializing property integral containers    ... done (  0.0 sec)

SHARK setup successfully completed in   0.9 seconds

Maximum memory used throughout the entire STARTUP-calculation: 27.2 MB
-------------------------------------------------------------------------------
                                 ORCA GUESS
                   Start orbitals & Density for SCF / CASSCF
-------------------------------------------------------------------------------

------------
SCF SETTINGS
------------
Hamiltonian:
 Density Functional     Method          .... DFT(GTOs)
  Functional kind                       .... Exchange
  Functional name                       .... Re-regularized SCAN exchange by Furness et al
  Functional family                     .... MGGA
  Functional refs                              
    [ 0] J. W. Furness, A. D. Kaplan, J. Ning, J. P. Perdew, and J. Sun.,  J. Phys. Chem. Lett. 11, 8208-8215 (2020), doi: 10.1021/acs.jpclett.0c02405
    [ 1] J. W. Furness, A. D. Kaplan, J. Ning, J. P. Perdew, and J. Sun.,  J. Phys. Chem. Lett. 11, 9248-9248 (2020), doi: 10.1021/acs.jpclett.0c03077
  Functional external parameters        .... 6
    Parameter  0 _c1        =  6.670000e-01 : c1 parameter        
    Parameter  1 _c2        =  8.000000e-01 : c2 parameter        
    Parameter  2 _d         =  1.240000e+00 : d parameter         
    Parameter  3 _k1        =  6.500000e-02 : k1 parameter        
    Parameter  4 _eta       =  1.000000e-03 : eta parameter       
    Parameter  5 _dp2       =  3.610000e-01 : dp2 parameter       
  Functional kind                       .... Correlation
  Functional name                       .... Re-regularized SCAN correlation by Furness et al
  Functional family                     .... MGGA
  Functional refs                              
    [ 0] J. W. Furness, A. D. Kaplan, J. Ning, J. P. Perdew, and J. Sun.,  J. Phys. Chem. Lett. 11, 8208-8215 (2020), doi: 10.1021/acs.jpclett.0c02405
    [ 1] J. W. Furness, A. D. Kaplan, J. Ning, J. P. Perdew, and J. Sun.,  J. Phys. Chem. Lett. 11, 9248-9248 (2020), doi: 10.1021/acs.jpclett.0c03077
  Functional external parameters        .... 1
    Parameter  0 _eta       =  1.000000e-03 : Regularization parameter
 Gradients option       PostSCFGGA      .... off
 RI-approximation to the Coulomb term is turned on
   Number of AuxJ basis functions       .... 366


General Settings:
 Integral files         IntName         .... sp_solv
 Hartree-Fock type      HFTyp           .... RHF
 Total Charge           Charge          ....    0
 Multiplicity           Mult            ....    1
 Number of Electrons    NEL             ....   42
 Basis Dimension        Dim             ....  155
 Nuclear Repulsion      ENuc            ....    189.4635918660 Eh

Convergence Acceleration:
 AO-DIIS                CNVDIIS         .... on
   Start iteration      DIISMaxIt       ....    12
   Startup error        DIISStart       ....  0.200000
   # of expansion vecs  DIISMaxEq       ....     5
   Bias factor          DIISBfac        ....   1.050
   Max. coefficient     DIISMaxC        ....  10.000
 MO-DIIS                CNVKDIIS        .... off
 Trust-Rad. Augm. Hess. CNVTRAH         .... auto
   Auto Start mean grad. ratio tolernc. ....  1.125000
   Auto Start start iteration           ....     1
   Auto Start num. interpolation iter.  ....    10
   Max. Number of Micro iterations      ....    24
   Max. Number of Macro iterations      .... Maxiter - #DIIS iter
   Number of Davidson start vectors     ....     2
   Converg. threshold    (grad. norm)   ....   3.330e-04
   Grad. Scal. Fac. for Micro threshold ....   0.100
   Minimum threshold for Micro iter.    ....   1.000e-02
   NR start threshold (gradient norm)   ....   1.000e-04
   Initial trust radius                 ....   0.400
   Minimum AH scaling param. (alpha)    ....   1.000
   Maximum AH scaling param. (alpha)    .... 1000.000
   Quad. conv. algorithm                .... NR
   White noise on init. David. guess    .... on
   Maximum white noise                  ....   0.010
   Pseudo random numbers                .... off
   Inactive MOs                         .... canonical
   Orbital update algorithm             .... Taylor
   Preconditioner                       .... Diag
   Full preconditioner red. dimension   ....   250
   COSX micro iterations for RIJONX calc.... off
 SOSCF                  CNVSOSCF        .... on
   Start iteration      SOSCFMaxIt      ....   150
   Startup grad/error   SOSCFStart      ....  0.003300
   Hessian update       SOSCFHessUp     .... L-BFGS
 Level Shifting         CNVShift        .... on
   Level shift para.    LevelShift      ....    0.2500
   Turn off err/grad.   ShiftErr        ....    0.0010
 Zerner damping         CNVZerner       .... off
 Static damping         CNVDamp         .... on
   Fraction old density DampFac         ....    0.7000
   Max. Damping (<1)    DampMax         ....    0.9800
   Min. Damping (>=0)   DampMin         ....    0.0000
   Turn off err/grad.   DampErr         ....    0.1000

SCF Procedure:
 Maximum # iterations   MaxIter         ....   125
 SCF integral mode      SCFMode         .... Direct
   Integral package                     .... SHARK and LIBINT hybrid scheme
 Reset frequency        DirectResetFreq ....    20
 Integral Threshold     Thresh          ....  1.000e-10 Eh
 Primitive CutOff       TCut            ....  1.000e-11 Eh

Convergence Tolerance:
 Convergence Check Mode ConvCheckMode   .... Total+1el-Energy
 Convergence forced     ConvForced      .... 0
 Energy Change          TolE            ....  1.000e-06 Eh
 1-El. energy change                    ....  1.000e-03 Eh
 Orbital Gradient       TolG            ....  3.330e-04
 Orbital Rotation angle TolX            ....  3.330e-04
 DIIS Error             TolErr          ....  1.000e-06

---------------------
INITIAL GUESS: MOREAD
---------------------
Guess MOs are being read from file: sp_solv.ges
Input Geometry matches current geometry (good)
Atom 0: N(Shells)= 9 and 6 - projection required
Input basis set needs projection
NBasis(read)= 92
NBasis(calc)= 155
Basis set overlap was calculated
Using GuessMode=FMatrix for the initial guess
C*T matrix was formed
Effective Fockian was calculated
Effective Fockian was diagonalized
Initial density was built
                      ------------------
                      INITIAL GUESS DONE (   0.0 sec)
                      ------------------
             **** ENERGY FILE WAS UPDATED (sp_solv.en.tmp) ****
Finished Guess after   0.3 sec
Maximum memory used throughout the entire GUESS-calculation: 10.5 MB

-------------------------------------------------------------------------------------------
                                      ORCA LEAN-SCF
                              memory conserving SCF solver
-------------------------------------------------------------------------------------------

--------------------
CPCM SOLVATION MODEL
--------------------
CPCM parameters:
  Epsilon                                         ...      78.3550
  Refrac                                          ...       1.3328
  Rsolv                                           ...       1.3000
  Surface type                                    ... GAUSSIAN VDW
  Discretization scheme                           ... Constant charge density
    Threshold for H atoms                         ...       5.0000 (charges/Ang^2)
    Threshold for non-H atoms                     ...       5.0000 (charges/Ang^2)
  Epsilon function type                           ...         CPCM
Solvent:                                          ... WATER
SMD-CDS solvent descriptors:
  Soln                                            ...       1.3328
  Soln25                                          ...       1.3323
  Sola                                            ...       0.0000
  Solb                                            ...       0.0000
  Solg                                            ...       0.0000
  Solc                                            ...       0.0000
  Solh                                            ...       0.0000
Radii:
  Scheme                                          ... Element-dependent radii
  Radius for C  used is    3.4960 Bohr (=   1.8500 Ang.)
  Radius for N  used is    3.5716 Bohr (=   1.8900 Ang.)
  Radius for H  used is    2.2677 Bohr (=   1.2000 Ang.)
Calculating surface                               ...        done! (  0.0s)
Cavity surface points                             ...         1184
Cavity Volume                                     ...     670.4326
Cavity Surface-area                               ...     451.1816
Calculating surface distance matrix               ...        done! (  0.0s)
Performing Cholesky decomposition & store         ...        done! (  0.1s)
Overall time for CPCM initialization              ...                 0.1s

----------------------------------------D-I-I-S--------------------------------------------
Iteration    Energy (Eh)           Delta-E    RMSDP     MaxDP     DIISErr   Damp  Time(sec)
-------------------------------------------------------------------------------------------
               ***  Starting incremental Fock matrix formation  ***
    1    -213.6107433184794218     0.00e+00  3.69e-03  8.38e-02  4.43e-01  0.700   2.0
    2    -213.6480809729596899    -3.73e-02  3.08e-03  7.08e-02  3.12e-01  0.700   1.9
    3    -213.6746761853378871    -2.66e-02  2.30e-03  5.23e-02  2.19e-01  0.700   2.0
                               ***Turning on AO-DIIS***
    4    -213.6934030964362137    -1.87e-02  1.72e-03  3.80e-02  1.53e-01  0.700   1.8
    5    -213.7065652599230816    -1.32e-02  1.24e-03  2.70e-02  1.07e-01  0.700   1.8
    6    -213.7158118147880828    -9.25e-03  8.84e-04  1.90e-02  7.47e-02  0.700   1.8
    7    -213.7223015330164344    -6.49e-03  2.09e-03  4.46e-02  5.24e-02  0.000   1.7
                              *** Initializing SOSCF ***
---------------------------------------S-O-S-C-F--------------------------------------
Iteration    Energy (Eh)           Delta-E    RMSDP     MaxDP     MaxGrad    Time(sec)
--------------------------------------------------------------------------------------
    8    -213.7375013194231883    -1.52e-02  4.07e-05  1.10e-03  6.20e-04     1.8
               *** Restarting incremental Fock matrix formation ***
    9    -213.7375016008292619    -2.81e-07  2.78e-05  9.29e-04  1.47e-04     1.9
   10    -213.7375010007664287     6.00e-07  1.74e-05  5.45e-04  1.91e-04     1.6
                 **** Energy Check signals convergence ****

               *****************************************************
               *                     SUCCESS                       *
               *           SCF CONVERGED AFTER  10 CYCLES          *
               *****************************************************


SMD CDS free energy correction energy :                 2.10441     Kcal/mol
Total Energy after SMD CDS correction =              -213.734147411 Eh
             **** ENERGY FILE WAS UPDATED (sp_solv.en.tmp) ****

----------------
TOTAL SCF ENERGY
----------------

Total Energy       :       -213.73414741146951 Eh           -5816.00183 eV

Components:
Nuclear Repulsion  :        189.46359186597761 Eh            5155.56644 eV
Electronic Energy  :       -403.19261694041523 Eh          -10971.42888 eV
One Electron Energy:       -662.30198190988415 Eh          -18022.15316 eV
Two Electron Energy:        259.10936496946891 Eh            7050.72427 eV
CPCM Dielectric    :         -0.00847592632881 Eh              -0.23064 eV
SMD CDS (Gcds)     :          0.00335358929692 Eh               0.09126 eV

Virial components:
Potential Energy   :       -426.46324304151227 Eh          -11604.65481 eV
Kinetic Energy     :        212.72909563004276 Eh            5788.65298 eV
Virial Ratio       :          2.00472456190560

DFT components:
N(Alpha)           :       21.000012019667 electrons
N(Beta)            :       21.000012019667 electrons
N(Total)           :       42.000024039335 electrons
E(X)               :      -31.383058465219 Eh       
E(C)               :       -1.298057912510 Eh       
E(XC)              :      -32.681116377729 Eh       

CPCM Solvation Model Properties:
Surface-charge          :         -0.04029842709937
Corrected charge        :          0.00000000000000
Outlying charge corr.   :          0.00013829713136 Eh               0.00376 eV
Free-energy (cav+disp)  :          0.00335358929692 Eh               0.09126 eV

---------------
SCF CONVERGENCE
---------------

  Last Energy change         ...   -6.0006e-07  Tolerance :   1.0000e-06
  Last MAX-Density change    ...    5.4542e-04  Tolerance :   1.0000e-05
  Last RMS-Density change    ...    1.7401e-05  Tolerance :   1.0000e-06
  Last DIIS Error            ...    6.2006e-04  Tolerance :   1.0000e-06
  Last Orbital Gradient      ...    1.9109e-04  Tolerance :   3.3300e-04
  Last Orbital Rotation      ...    1.1370e-04  Tolerance :   3.3300e-04


----------------
ORBITAL ENERGIES
----------------

  NO   OCC          E(Eh)            E(eV) 
   0   2.0000     -14.126119      -384.3912 
   1   2.0000     -10.040513      -273.2163 
   2   2.0000     -10.012996      -272.4675 
   3   2.0000     -10.011826      -272.4356 
   4   2.0000     -10.006222      -272.2832 
   5   2.0000      -0.839097       -22.8330 
   6   2.0000      -0.742286       -20.1986 
   7   2.0000      -0.665274       -18.1030 
   8   2.0000      -0.577067       -15.7028 
   9   2.0000      -0.532513       -14.4904 
  10   2.0000      -0.452129       -12.3031 
  11   2.0000      -0.420911       -11.4536 
  12   2.0000      -0.405628       -11.0377 
  13   2.0000      -0.380854       -10.3636 
  14   2.0000      -0.369979       -10.0676 
  15   2.0000      -0.334054        -9.0901 
  16   2.0000      -0.318559        -8.6684 
  17   2.0000      -0.291980        -7.9452 
  18   2.0000      -0.288523        -7.8511 
  19   2.0000      -0.285101        -7.7580 
  20   2.0000      -0.201115        -5.4726 
  21   0.0000       0.091571         2.4918 
  22   0.0000       0.114568         3.1175 
  23   0.0000       0.126537         3.4433 
  24   0.0000       0.139286         3.7902 
  25   0.0000       0.143507         3.9050 
  26   0.0000       0.155375         4.2280 
  27   0.0000       0.163631         4.4526 
  28   0.0000       0.176011         4.7895 
  29   0.0000       0.183347         4.9891 
  30   0.0000       0.201426         5.4811 
  31   0.0000       0.210260         5.7215 
*Only the first 10 virtual orbitals were printed.

                    ********************************
                    * MULLIKEN POPULATION ANALYSIS *
                    ********************************

-----------------------
MULLIKEN ATOMIC CHARGES
-----------------------
   0 C :   -0.513181
   1 C :   -0.271557
   2 C :   -0.256325
   3 C :   -0.200765
   4 N :   -0.658582
   5 H :    0.154663
   6 H :    0.150301
   7 H :    0.152873
   8 H :    0.144821
   9 H :    0.158653
  10 H :    0.147459
  11 H :    0.148278
  12 H :    0.151045
  13 H :    0.132790
  14 H :    0.279214
  15 H :    0.280313
Sum of atomic charges:    0.0000000

--------------------------------
MULLIKEN REDUCED ORBITAL CHARGES
--------------------------------
  0 C s       :     3.343091  s :     3.343091
      pz      :     1.097058  p :     3.142888
      px      :     0.977450
      py      :     1.068380
      dz2     :     0.004650  d :     0.027203
      dxz     :     0.008221
      dyz     :     0.002295
      dx2y2   :     0.008011
      dxy     :     0.004025

  1 C s       :     3.229055  s :     3.229055
      pz      :     1.003603  p :     3.005439
      px      :     0.932767
      py      :     1.069069
      dz2     :     0.007751  d :     0.037063
      dxz     :     0.009672
      dyz     :     0.004338
      dx2y2   :     0.009891
      dxy     :     0.005412

  2 C s       :     3.223213  s :     3.223213
      pz      :     1.004280  p :     2.996692
      px      :     0.928227
      py      :     1.064186
      dz2     :     0.007883  d :     0.036420
      dxz     :     0.008636
      dyz     :     0.004946
      dx2y2   :     0.010047
      dxy     :     0.004908

  3 C s       :     3.282056  s :     3.282056
      pz      :     0.938197  p :     2.868793
      px      :     0.941842
      py      :     0.988754
      dz2     :     0.013963  d :     0.049916
      dxz     :     0.012480
      dyz     :     0.006729
      dx2y2   :     0.010646
      dxy     :     0.006099

  4 N s       :     3.567170  s :     3.567170
      pz      :     1.506100  p :     4.053746
      px      :     1.351525
      py      :     1.196121
      dz2     :     0.010482  d :     0.037666
      dxz     :     0.001708
      dyz     :     0.005614
      dx2y2   :     0.017321
      dxy     :     0.002541

  5 H s       :     0.826962  s :     0.826962
      pz      :     0.008025  p :     0.018375
      px      :     0.006336
      py      :     0.004014

  6 H s       :     0.831418  s :     0.831418
      pz      :     0.008665  p :     0.018281
      px      :     0.004833
      py      :     0.004783

  7 H s       :     0.828828  s :     0.828828
      pz      :     0.003834  p :     0.018299
      px      :     0.003573
      py      :     0.010892

  8 H s       :     0.837271  s :     0.837271
      pz      :     0.003684  p :     0.017908
      px      :     0.003438
      py      :     0.010785

  9 H s       :     0.823108  s :     0.823108
      pz      :     0.008573  p :     0.018239
      px      :     0.005032
      py      :     0.004634

 10 H s       :     0.834610  s :     0.834610
      pz      :     0.003715  p :     0.017931
      px      :     0.003378
      py      :     0.010838

 11 H s       :     0.833832  s :     0.833832
      pz      :     0.008687  p :     0.017890
      px      :     0.004301
      py      :     0.004902

 12 H s       :     0.831479  s :     0.831479
      pz      :     0.003269  p :     0.017476
      px      :     0.003385
      py      :     0.010823

 13 H s       :     0.849987  s :     0.849987
      pz      :     0.008674  p :     0.017223
      px      :     0.005324
      py      :     0.003224

 14 H s       :     0.688542  s :     0.688542
      pz      :     0.008653  p :     0.032244
      px      :     0.016762
      py      :     0.006829

 15 H s       :     0.687691  s :     0.687691
      pz      :     0.008174  p :     0.031996
      px      :     0.006493
      py      :     0.017329


------------------------
MULLIKEN OVERLAP CHARGES
------------------------
B(  0-C ,  1-C ) :   0.4208 B(  0-C ,  2-C ) :  -0.1556 B(  0-C ,  5-H ) :   0.8082 
B(  0-C ,  6-H ) :   0.8430 B(  0-C ,  7-H ) :   0.8645 B(  0-C ,  9-H ) :  -0.0673 
B(  1-C ,  2-C ) :   0.2387 B(  1-C ,  3-C ) :  -0.1562 B(  1-C ,  4-N ) :   0.1337 
B(  1-C ,  5-H ) :  -0.0797 B(  1-C ,  6-H ) :  -0.0839 B(  1-C ,  7-H ) :  -0.1046 
B(  1-C ,  8-H ) :   0.8097 B(  1-C ,  9-H ) :   0.8838 B(  1-C , 10-H ) :  -0.1117 
B(  2-C ,  3-C ) :   0.5135 B(  2-C ,  4-N ) :  -0.3246 B(  2-C ,  8-H ) :  -0.0619 
B(  2-C ,  9-H ) :  -0.0976 B(  2-C , 10-H ) :   0.8789 B(  2-C , 11-H ) :   0.8116 
B(  2-C , 13-H ) :  -0.1458 B(  3-C ,  4-N ) :   0.3493 B(  3-C , 10-H ) :  -0.0510 
B(  3-C , 11-H ) :  -0.0813 B(  3-C , 12-H ) :   0.9045 B(  3-C , 13-H ) :   0.8636 
B(  3-C , 15-H ) :  -0.0537 B(  4-N , 12-H ) :  -0.1497 B(  4-N , 13-H ) :  -0.0753 
B(  4-N , 14-H ) :   0.6660 B(  4-N , 15-H ) :   0.6933 B(  6-H ,  7-H ) :  -0.0534 
B( 12-H , 13-H ) :  -0.0655 


                     *******************************
                     * LOEWDIN POPULATION ANALYSIS *
                     *******************************

----------------------
LOEWDIN ATOMIC CHARGES
----------------------
   0 C :   -0.434365
   1 C :   -0.320948
   2 C :   -0.291776
   3 C :   -0.077070
   4 N :   -0.770329
   5 H :    0.151404
   6 H :    0.151363
   7 H :    0.151522
   8 H :    0.153168
   9 H :    0.157521
  10 H :    0.158079
  11 H :    0.159494
  12 H :    0.172084
  13 H :    0.151600
  14 H :    0.244514
  15 H :    0.243738

-------------------------------
LOEWDIN REDUCED ORBITAL CHARGES
-------------------------------
  0 C s       :     2.975027  s :     2.975027
      pz      :     1.156074  p :     3.395836
      px      :     1.091021
      py      :     1.148741
      dz2     :     0.011499  d :     0.063502
      dxz     :     0.018934
      dyz     :     0.005681
      dx2y2   :     0.018728
      dxy     :     0.008659

  1 C s       :     2.937831  s :     2.937831
      pz      :     1.110736  p :     3.302976
      px      :     1.058184
      py      :     1.134056
      dz2     :     0.017122  d :     0.080140
      dxz     :     0.020999
      dyz     :     0.009163
      dx2y2   :     0.021961
      dxy     :     0.010895

  2 C s       :     2.939441  s :     2.939441
      pz      :     1.097801  p :     3.274078
      px      :     1.044582
      py      :     1.131695
      dz2     :     0.016818  d :     0.078257
      dxz     :     0.018565
      dyz     :     0.010705
      dx2y2   :     0.022346
      dxy     :     0.009823

  3 C s       :     2.870802  s :     2.870802
      pz      :     1.016421  p :     3.095127
      px      :     1.025848
      py      :     1.052858
      dz2     :     0.032500  d :     0.111142
      dxz     :     0.027543
      dyz     :     0.014522
      dx2y2   :     0.024769
      dxy     :     0.011808

  4 N s       :     3.243994  s :     3.243994
      pz      :     1.565278  p :     4.209732
      px      :     1.380763
      py      :     1.263691
      dz2     :     0.085047  d :     0.316603
      dxz     :     0.061567
      dyz     :     0.050374
      dx2y2   :     0.090421
      dxy     :     0.029195

  5 H s       :     0.804755  s :     0.804755
      pz      :     0.019710  p :     0.043841
      px      :     0.015116
      py      :     0.009015

  6 H s       :     0.805032  s :     0.805032
      pz      :     0.021263  p :     0.043605
      px      :     0.011193
      py      :     0.011149

  7 H s       :     0.804838  s :     0.804838
      pz      :     0.008444  p :     0.043640
      px      :     0.008066
      py      :     0.027130

  8 H s       :     0.803545  s :     0.803545
      pz      :     0.008649  p :     0.043287
      px      :     0.008028
      py      :     0.026610

  9 H s       :     0.797953  s :     0.797953
      pz      :     0.021356  p :     0.044525
      px      :     0.012002
      py      :     0.011167

 10 H s       :     0.798761  s :     0.798761
      pz      :     0.008578  p :     0.043160
      px      :     0.007830
      py      :     0.026751

 11 H s       :     0.796897  s :     0.796897
      pz      :     0.021364  p :     0.043608
      px      :     0.010515
      py      :     0.011730

 12 H s       :     0.787816  s :     0.787816
      pz      :     0.007848  p :     0.040100
      px      :     0.007733
      py      :     0.024519

 13 H s       :     0.807855  s :     0.807855
      pz      :     0.020079  p :     0.040545
      px      :     0.013016
      py      :     0.007449

 14 H s       :     0.669157  s :     0.669157
      pz      :     0.022996  p :     0.086328
      px      :     0.046426
      py      :     0.016906

 15 H s       :     0.670382  s :     0.670382
      pz      :     0.022056  p :     0.085879
      px      :     0.016851
      py      :     0.046973


---------------------------------
LOEWDIN BOND ORDERS (THRESH 0.050000)
---------------------------------
B(  0-C ,  1-C ) :   1.1457 B(  0-C ,  2-C ) :   0.0753 B(  0-C ,  5-H ) :   0.9302 
B(  0-C ,  6-H ) :   0.9284 B(  0-C ,  7-H ) :   0.9297 B(  1-C ,  2-C ) :   1.0976 
B(  1-C ,  3-C ) :   0.0679 B(  1-C ,  8-H ) :   0.8952 B(  1-C ,  9-H ) :   0.8875 
B(  2-C ,  3-C ) :   1.0477 B(  2-C ,  4-N ) :   0.1615 B(  2-C , 10-H ) :   0.8859 
B(  2-C , 11-H ) :   0.8863 B(  3-C ,  4-N ) :   1.4067 B(  3-C , 12-H ) :   0.8311 
B(  3-C , 13-H ) :   0.8369 B(  4-N , 12-H ) :   0.0982 B(  4-N , 13-H ) :   0.1065 
B(  4-N , 14-H ) :   0.9353 B(  4-N , 15-H ) :   0.9368 

------------------------------------------
LOEWDIN REDUCED ORBITAL POPULATIONS PER MO
-------------------------------------------
THRESHOLD FOR PRINTING IS 0.1%%
                      0         1         2         3         4         5   
                 -14.12612 -10.04051 -10.01300 -10.01183 -10.00622  -0.83910
                   2.00000   2.00000   2.00000   2.00000   2.00000   2.00000
                  --------  --------  --------  --------  --------  --------
 0 C  s               0.0       0.0       0.0       0.0      99.7       0.1
 0 C  px              0.0       0.0       0.0       0.1       0.0       0.1
 1 C  s               0.0       0.0       0.3      99.4       0.0       0.9
 1 C  pz              0.0       0.0       0.1       0.0       0.0       0.2
 1 C  px              0.0       0.0       0.0       0.0       0.1       0.5
 2 C  s               0.0       0.0      99.4       0.3       0.0       3.7
 2 C  pz              0.0       0.0       0.0       0.1       0.0       0.4
 2 C  px              0.0       0.1       0.0       0.0       0.0       1.8
 3 C  s               0.0      99.4       0.0       0.0       0.0      16.0
 3 C  pz              0.0       0.0       0.0       0.0       0.0       3.5
 3 C  px              0.0       0.0       0.1       0.0       0.0       0.6
 3 C  py              0.0       0.0       0.0       0.0       0.0       1.9
 3 C  dxz             0.0       0.0       0.0       0.0       0.0       0.2
 3 C  dyz             0.0       0.0       0.0       0.0       0.0       0.2
 4 N  s              99.8       0.0       0.0       0.0       0.0      44.0
 4 N  pz              0.0       0.1       0.0       0.0       0.0       2.3
 4 N  dxz             0.0       0.1       0.0       0.0       0.0       0.3
 4 N  dyz             0.0       0.1       0.0       0.0       0.0       0.2
 9 H  s               0.0       0.0       0.0       0.0       0.0       0.1
10 H  s               0.0       0.0       0.0       0.0       0.0       0.4
11 H  s               0.0       0.0       0.0       0.0       0.0       0.3
12 H  s               0.0       0.0       0.0       0.0       0.0       1.6
12 H  py              0.0       0.0       0.0       0.0       0.0       0.1
13 H  s               0.0       0.0       0.0       0.0       0.0       1.6
13 H  pz              0.0       0.0       0.0       0.0       0.0       0.1
14 H  s               0.0       0.0       0.0       0.0       0.0       8.0
14 H  px              0.0       0.0       0.0       0.0       0.0       0.9
14 H  py              0.0       0.0       0.0       0.0       0.0       0.1
15 H  s               0.0       0.0       0.0       0.0       0.0       8.0
15 H  py              0.0       0.0       0.0       0.0       0.0       1.1

                      6         7         8         9        10        11   
                  -0.74229  -0.66527  -0.57707  -0.53251  -0.45213  -0.42091
                   2.00000   2.00000   2.00000   2.00000   2.00000   2.00000
                  --------  --------  --------  --------  --------  --------
 0 C  s              14.8      19.2      11.7       1.8       0.0       0.0
 0 C  pz              0.0       0.1       0.0       1.5       1.4       0.1
 0 C  px              2.6       0.1       4.8       2.2       0.0       0.7
 0 C  py              0.3       0.0       0.6       1.3       0.8       8.8
 1 C  s              25.7       2.1       7.7       8.6       0.0       0.1
 1 C  pz              1.2       1.1       0.0       7.1       4.3       0.0
 1 C  px              0.1       8.5       4.4       0.2       0.4       2.6
 1 C  py              0.3       0.2       0.3       2.8       2.4      13.9
 1 C  dxz             0.0       0.1       0.0       0.0       0.0       0.0
 2 C  s              17.0      12.1       1.8       9.3       0.5       0.2
 2 C  pz              1.3       0.6       1.2       7.1       4.0       3.9
 2 C  px              1.5       3.4       5.7       0.3       5.2       0.7
 2 C  py              0.1       0.2       0.3       3.6       4.7       6.9
 3 C  s               1.1       9.0      12.3       3.4       0.2       0.1
 3 C  pz              0.7       2.0       1.2       0.8       0.2      12.1
 3 C  px              4.5       3.4       0.9       1.9       0.6       0.1
 3 C  py              0.0       0.1       1.6       4.1      10.6       0.2
 3 C  dyz             0.0       0.0       0.0       0.0       0.1       0.0
 4 N  s               4.2       4.5       1.8       0.5       0.1       0.1
 4 N  pz              0.1       1.3       2.8       0.7       4.8       0.1
 4 N  px              0.7       2.1       1.3       0.7      19.7       0.2
 4 N  py              0.1       0.9       3.5       5.0      12.2      21.2
 4 N  dz2             0.0       0.2       0.6       0.0       0.1       0.2
 4 N  dxz             0.1       0.5       0.1       0.0       0.0       0.0
 4 N  dyz             0.0       0.3       0.7       0.5       0.1       0.1
 4 N  dx2y2           0.1       0.0       0.1       0.0       0.1       0.4
 4 N  dxy             0.0       0.1       0.1       0.1       0.1       0.0
 5 H  s               2.0       4.2       4.6       0.5       0.2       0.5
 5 H  pz              0.1       0.2       0.2       0.0       0.0       0.0
 5 H  px              0.1       0.1       0.1       0.0       0.0       0.0
 6 H  s               2.1       3.8       4.1       1.5       0.4       0.6
 6 H  pz              0.1       0.2       0.2       0.1       0.0       0.0
 7 H  s               2.1       3.8       4.1       1.6       0.2       3.0
 7 H  py              0.2       0.3       0.3       0.1       0.0       0.1
 8 H  s               3.6       0.4       2.4       5.8       0.4       5.5
 8 H  py              0.3       0.0       0.2       0.4       0.0       0.2
 9 H  s               3.5       0.4       2.6       5.1       2.0       0.8
 9 H  pz              0.2       0.0       0.2       0.2       0.1       0.1
 9 H  py              0.0       0.0       0.0       0.1       0.0       0.0
10 H  s               2.4       2.2       0.6       6.9       0.3       2.2
10 H  py              0.2       0.2       0.0       0.4       0.0       0.1
11 H  s               2.5       2.6       0.4       5.4       4.6       1.6
11 H  pz              0.2       0.2       0.0       0.2       0.2       0.0
11 H  py              0.0       0.0       0.0       0.1       0.0       0.0
12 H  s               0.2       2.0       4.8       3.8       2.1       0.2
12 H  py              0.0       0.2       0.3       0.2       0.1       0.0
13 H  s               0.1       1.9       5.0       0.9       0.0       3.5
13 H  pz              0.0       0.1       0.3       0.1       0.0       0.0
13 H  px              0.0       0.1       0.1       0.0       0.0       0.1
14 H  s               1.2       1.9       0.9       0.2      11.5       0.6
14 H  px              0.1       0.2       0.1       0.0       0.5       0.1
14 H  py              0.0       0.1       0.1       0.1       0.0       0.1
15 H  s               1.0       1.5       1.7       1.9       3.8       7.1
15 H  px              0.0       0.0       0.0       0.0       0.2       0.0
15 H  py              0.2       0.2       0.2       0.1       0.1       0.2

                     12        13        14        15        16        17   
                  -0.40563  -0.38085  -0.36998  -0.33405  -0.31856  -0.29198
                   2.00000   2.00000   2.00000   2.00000   2.00000   2.00000
                  --------  --------  --------  --------  --------  --------
 0 C  s               0.1       0.1       0.0       0.1       0.1       0.3
 0 C  pz              5.2      15.6       7.9      14.8       0.3       9.2
 0 C  px              4.8       7.9       3.9       8.4       0.7       0.8
 0 C  py              1.8       3.2      14.2       0.9      19.0       0.1
 0 C  dxz             0.0       0.1       0.0       0.1       0.0       0.4
 0 C  dx2y2           0.0       0.0       0.1       0.0       0.4       0.1
 1 C  s               0.6       0.6       0.1       0.0       0.0       0.7
 1 C  pz              5.6       7.7       2.1       0.5       0.2      22.3
 1 C  px              1.0       4.3       1.5       8.7       2.9       0.2
 1 C  py              6.4       0.0       3.5       0.6       7.0       0.2
 1 C  dz2             0.0       0.0       0.0       0.0       0.0       0.1
 1 C  dxz             0.0       0.1       0.0       0.0       0.0       0.6
 1 C  dx2y2           0.0       0.0       0.0       0.0       0.2       0.2
 1 C  dxy             0.0       0.0       0.1       0.2       0.0       0.0
 2 C  s               0.1       0.6       0.5       0.0       0.0       1.0
 2 C  pz              2.5       0.1       2.3       9.4       0.7      20.1
 2 C  px              0.2       4.9       1.1       5.3       0.1       0.1
 2 C  py              6.0       3.4       5.4       2.8       7.0       1.4
 2 C  dxz             0.1       0.1       0.1       0.1       0.0       0.3
 2 C  dyz             0.0       0.0       0.0       0.1       0.0       0.1
 2 C  dx2y2           0.0       0.0       0.0       0.0       0.1       0.2
 3 C  s               0.3       0.1       0.2       0.0       0.2       0.2
 3 C  pz             18.5       0.4       1.7       4.5       0.4       0.9
 3 C  px              6.7      12.7       0.3       1.0       0.5       1.0
 3 C  py              0.3       3.4       8.1       0.9      14.0       1.9
 3 C  dz2             0.0       0.1       0.1       0.0       0.1       0.0
 3 C  dxz             0.1       0.0       0.2       0.1       0.0       0.1
 3 C  dx2y2           0.0       0.0       0.1       0.1       0.4       0.2
 4 N  s               0.6       0.2       0.1       0.5       0.1       0.4
 4 N  pz              0.3       9.2       1.2       2.0       3.6       0.6
 4 N  px             11.0       1.4       0.1       6.4       0.1       3.5
 4 N  py              0.2       0.5      12.4       0.0       3.3       0.0
 4 N  dz2             0.5       0.7       0.1       0.0       0.5       0.0
 4 N  dxz             0.1       0.1       0.1       0.2       0.0       0.4
 4 N  dyz             0.0       0.0       0.1       0.0       0.1       0.0
 4 N  dx2y2           0.0       0.1       0.6       1.0       0.7       0.3
 4 N  dxy             0.3       0.1       0.2       0.1       0.1       0.0
 5 H  s               0.0       8.9       7.6       0.8       0.6       3.4
 5 H  pz              0.0       0.1       0.1       0.0       0.0       0.0
 5 H  px              0.0       0.1       0.1       0.2       0.0       0.1
 5 H  py              0.0       0.1       0.0       0.0       0.1       0.0
 6 H  s               4.7       2.6       0.0      11.9       0.7       5.2
 6 H  pz              0.1       0.0       0.0       0.1       0.0       0.0
 6 H  px              0.0       0.2       0.0       0.0       0.0       0.0
 6 H  py              0.0       0.0       0.1       0.1       0.1       0.0
 7 H  s               0.2       0.9       7.4       0.2      10.9       0.1
 7 H  pz              0.0       0.1       0.0       0.1       0.0       0.1
 7 H  py              0.0       0.0       0.2       0.0       0.1       0.0
 8 H  s               0.6       0.0       1.3       0.4       4.3       0.5
 8 H  pz              0.1       0.0       0.0       0.0       0.0       0.2
 9 H  s               3.5       2.3       0.0       1.2       0.0      11.0
 9 H  px              0.1       0.0       0.0       0.0       0.0       0.0
 9 H  py              0.0       0.0       0.0       0.0       0.1       0.1
10 H  s               2.2       0.3       4.1       0.9       3.6       1.4
10 H  pz              0.0       0.0       0.0       0.1       0.0       0.2
10 H  py              0.1       0.0       0.2       0.0       0.0       0.0
11 H  s               0.0       0.3       0.1       9.0       2.0       6.7
11 H  pz              0.0       0.0       0.0       0.1       0.0       0.0
11 H  py              0.0       0.0       0.1       0.0       0.0       0.1
12 H  s               0.3       1.1       4.1       0.7      10.9       1.4
12 H  px              0.1       0.1       0.0       0.0       0.0       0.0
12 H  py              0.0       0.0       0.1       0.0       0.1       0.0
13 H  s              11.3       2.5       0.4       1.5       0.7       0.4
13 H  pz              0.2       0.1       0.0       0.0       0.0       0.0
13 H  px              0.1       0.0       0.0       0.0       0.0       0.0
13 H  py              0.0       0.0       0.1       0.0       0.1       0.0
14 H  s               2.2       1.4       0.3       2.7       0.1       0.7
15 H  s               0.0       0.2       4.7       0.2       1.6       0.0
15 H  pz              0.0       0.1       0.1       0.0       0.1       0.0
15 H  px              0.1       0.0       0.0       0.1       0.0       0.0

                     18        19        20        21        22        23   
                  -0.28852  -0.28510  -0.20111   0.09157   0.11457   0.12654
                   2.00000   2.00000   2.00000   0.00000   0.00000   0.00000
                  --------  --------  --------  --------  --------  --------
 0 C  s               0.6       0.1       0.0       0.5      29.2       0.3
 0 C  pz              1.5       0.1       0.1       0.1       0.1       0.4
 0 C  px             11.2       6.2       0.0       1.7       1.9       0.6
 0 C  py              2.8       3.6       0.0       0.2       0.2       0.7
 0 C  dz2             0.0       0.2       0.0       0.0       0.2       0.0
 0 C  dxz             0.2       0.0       0.1       0.0       0.1       0.0
 0 C  dx2y2           0.0       0.2       0.0       0.0       0.2       0.0
 0 C  dxy             0.0       0.1       0.0       0.0       0.2       0.2
 1 C  s               0.1       0.1       0.0       2.3      12.5       0.4
 1 C  pz              1.3       0.0       1.7       0.5       2.1       3.8
 1 C  px              7.7       9.7       0.2       2.9       4.3       1.9
 1 C  py              6.2      12.6       0.2       0.5       0.3       2.1
 1 C  dz2             0.0       0.5       0.0       0.1       0.1       0.8
 1 C  dxz             0.1       0.0       0.0       0.1       0.0       0.1
 1 C  dyz             0.1       0.2       0.0       0.0       0.0       0.0
 1 C  dx2y2           0.3       0.2       0.0       0.1       0.3       0.1
 1 C  dxy             0.1       0.1       0.0       0.1       0.2       0.0
 2 C  s               0.1       0.1       0.2       2.6       2.9       7.9
 2 C  pz              0.8       0.3       0.1       0.3       1.8       5.5
 2 C  px             12.1       8.2       1.4       1.3       9.0       2.4
 2 C  py              6.8       7.8       0.2       0.9       0.2       2.2
 2 C  dz2             0.0       0.5       0.0       0.1       0.5       0.2
 2 C  dxz             0.0       0.0       0.1       0.2       0.4       0.0
 2 C  dyz             0.1       0.2       0.0       0.0       0.1       0.2
 2 C  dx2y2           0.4       0.1       0.0       0.0       0.0       0.4
 2 C  dxy             0.1       0.0       0.0       0.3       0.2       0.0
 3 C  s               0.4       0.0       0.3      10.9       1.4       8.7
 3 C  pz              0.2       0.3       3.4       4.8       0.1      14.2
 3 C  px             11.8       4.0       1.1      10.3       1.1       2.5
 3 C  py              4.9       0.4       0.1       2.9       0.1       9.6
 3 C  dz2             0.0       0.0       1.0       0.1       0.0       0.2
 3 C  dxz             0.1       0.0       0.4       0.7       0.1       0.0
 3 C  dyz             0.0       0.1       0.0       0.5       0.1       0.6
 3 C  dx2y2           0.2       0.1       0.0       0.0       0.0       0.2
 3 C  dxy             0.0       0.1       0.1       0.1       0.1       0.2
 4 N  s               0.3       0.0       5.2      13.5       0.1       4.5
 4 N  pz              2.5       2.1      44.4       0.9       0.0       2.1
 4 N  px              0.0       0.0      21.5       2.2       0.1       1.2
 4 N  py              1.7       0.0       2.0       0.5       0.3       0.1
 4 N  dz2             0.0       0.1       1.1       1.2       0.1       0.8
 4 N  dxz             0.5       0.5       0.1       0.5       0.1       0.1
 4 N  dyz             0.1       0.0       0.0       2.3       0.1       1.4
 4 N  dx2y2           1.0       0.1       0.0       0.1       0.8       1.9
 4 N  dxy             0.0       0.0       0.1       0.5       0.1       0.8
 5 H  s               3.8       2.8       0.2       0.0       3.9       0.2
 5 H  pz              0.0       0.1       0.0       0.0       1.9       0.0
 5 H  px              0.0       0.0       0.0       0.1       0.2       0.0
 5 H  py              0.1       0.0       0.0       0.0       0.3       0.0
 6 H  s               0.6       1.9       0.2       0.1       3.5       0.1
 6 H  pz              0.0       0.0       0.0       0.0       1.6       0.0
 6 H  px              0.1       0.0       0.0       0.1       0.0       0.0
 6 H  py              0.0       0.0       0.0       0.0       0.6       0.1
 7 H  s               0.9       4.6       0.0       0.0       3.5       0.0
 7 H  px              0.1       0.0       0.0       0.0       0.3       0.1
 7 H  py              0.0       0.0       0.0       0.0       1.8       0.0
 8 H  s               4.1      10.7       0.1       0.2       1.9       1.9
 8 H  px              0.1       0.1       0.0       0.1       0.2       0.1
 8 H  py              0.0       0.1       0.0       0.1       1.2       0.6
 9 H  s               0.7       6.2       0.4       0.6       1.6       0.3
 9 H  pz              0.0       0.2       0.0       0.1       0.9       0.4
 9 H  px              0.1       0.0       0.1       0.2       0.0       0.0
 9 H  py              0.0       0.0       0.0       0.0       0.5       0.1
10 H  s               5.5       6.7       0.0       0.7       1.0       1.0
10 H  pz              0.0       0.0       0.0       0.0       0.2       0.0
10 H  px              0.1       0.1       0.0       0.3       0.3       0.0
10 H  py              0.0       0.0       0.0       0.2       0.4       0.5
11 H  s               0.2       4.1       0.0       1.8       0.8       2.4
11 H  pz              0.0       0.1       0.0       0.2       0.0       1.5
11 H  px              0.2       0.0       0.0       0.1       0.6       0.0
11 H  py              0.0       0.0       0.0       0.1       0.2       0.8
12 H  s               3.4       1.3       1.6       2.3       0.1       1.5
12 H  pz              0.0       0.0       0.0       0.7       0.1       0.1
12 H  px              0.1       0.0       0.0       0.0       0.1       0.2
12 H  py              0.0       0.0       0.0       0.4       0.1       1.3
13 H  s               0.6       1.4       8.5       2.4       0.1       1.7
13 H  pz              0.0       0.0       0.0       0.3       0.0       1.6
13 H  px              0.1       0.0       0.0       0.8       0.0       0.0
13 H  py              0.1       0.0       0.0       0.4       0.0       0.1
14 H  s               0.7       0.2       0.8       8.2       0.2       0.6
14 H  pz              0.0       0.0       0.8       0.1       0.0       0.1
14 H  px              0.1       0.0       0.1       2.4       0.0       0.3
14 H  py              0.0       0.0       0.1       0.6       0.0       0.0
15 H  s               1.0       0.0       0.8       6.8       0.1       1.8
15 H  pz              0.0       0.0       0.6       0.2       0.0       0.1
15 H  px              0.0       0.0       0.3       0.0       0.0       0.1
15 H  py              0.0       0.0       0.0       2.5       0.0       0.9

                     24        25        26        27        28        29   
                   0.13929   0.14351   0.15537   0.16363   0.17601   0.18335
                   0.00000   0.00000   0.00000   0.00000   0.00000   0.00000
                  --------  --------  --------  --------  --------  --------
 0 C  s               1.2       2.9       6.2       0.1       0.3       0.6
 0 C  pz              1.2       0.5       3.4       8.2       6.5       2.7
 0 C  px              5.3       4.1      28.8       2.5       0.9       2.8
 0 C  py              0.3       4.0       3.6       0.4       8.4       7.0
 0 C  dz2             0.4       0.4       0.1       0.2       0.0       0.0
 0 C  dxz             0.6       0.2       0.0       0.1       0.2       0.7
 0 C  dyz             0.0       0.0       0.0       0.3       0.2       0.1
 0 C  dx2y2           0.1       0.0       1.4       0.2       0.0       0.0
 0 C  dxy             0.1       0.2       0.4       0.0       0.3       0.1
 1 C  s               0.1       4.1      11.0       3.1       0.2       1.3
 1 C  pz              1.8       5.6       0.8       9.9      10.4       4.8
 1 C  px              5.2       0.8       0.4       1.2       1.4       0.6
 1 C  py              2.2       8.6       1.9       1.9       2.4       5.9
 1 C  dz2             0.0       0.0       0.0       0.0       1.0       0.0
 1 C  dxz             0.3       0.0       0.0       0.8       0.0       0.7
 1 C  dyz             0.1       0.6       0.1       0.5       0.0       0.3
 1 C  dx2y2           0.2       0.0       0.1       0.8       0.4       0.1
 1 C  dxy             0.7       0.1       0.0       0.0       0.0       0.0
 2 C  s               5.1       3.5       0.3       1.4       3.1       6.4
 2 C  pz             10.5       0.2       8.2       7.5       1.3       1.6
 2 C  px              2.0       2.7       0.1       3.9       1.3       1.4
 2 C  py              4.9       8.5       2.8       0.5       2.2       1.4
 2 C  dz2             0.0       0.0       0.2       0.2       0.3       0.1
 2 C  dxz             0.0       0.2       0.1       1.2       0.1       0.0
 2 C  dyz             0.9       0.0       0.0       0.0       0.4       0.1
 2 C  dx2y2           0.0       0.7       1.2       0.0       0.0       0.1
 2 C  dxy             0.2       0.0       0.0       0.2       0.1       0.0
 3 C  s               0.3       0.3       0.7       0.3       4.9       2.1
 3 C  pz              0.4       5.2       0.3       4.9       3.8       7.6
 3 C  px              9.7       0.0       0.7       7.6       6.4       1.0
 3 C  py              8.1      10.1       2.3       2.6       4.7       4.4
 3 C  dz2             0.4       0.2       0.0       0.0       0.1       0.2
 3 C  dxz             0.1       0.2       0.0       0.8       0.1       0.0
 3 C  dyz             0.2       0.0       0.2       0.2       0.3       0.0
 3 C  dx2y2           0.0       0.3       0.6       0.5       0.0       0.6
 3 C  dxy             0.7       0.0       0.0       0.2       0.1       0.0
 4 N  s               0.1       0.1       0.1       0.0       1.5       0.3
 4 N  pz              0.0       0.3       0.2       0.7       1.9       0.9
 4 N  px              2.5       0.0       0.6       0.8       0.7       0.8
 4 N  py              0.8       4.8       0.8       1.9       0.8       3.1
 4 N  dz2             0.5       1.2       0.0       1.0       0.2       0.2
 4 N  dxz             0.1       0.1       1.0       0.2       1.8       0.8
 4 N  dyz             1.1       0.0       0.3       2.0       0.9       0.5
 4 N  dx2y2           1.0       1.6       0.1       3.0       0.7       4.3
 4 N  dxy            10.2       0.5       0.7       0.1       0.1       3.1
 5 H  s               3.7       0.9       1.5       0.0       1.7       1.5
 5 H  pz              0.2       0.1       0.2       0.0       0.2       0.0
 5 H  px              0.0       0.0       1.1       0.4       0.3       0.0
 5 H  py              0.0       0.0       0.1       0.1       0.0       0.0
 6 H  s               0.1       0.1       1.2       0.0       2.6       2.5
 6 H  pz              0.0       0.0       0.6       0.2       0.4       0.2
 6 H  px              0.4       0.2       0.6       0.0       0.2       0.4
 6 H  py              0.1       0.1       0.1       0.0       0.4       0.1
 7 H  s               0.7       2.4       1.0       0.3       0.5       0.1
 7 H  pz              0.1       0.0       0.0       0.2       0.4       0.2
 7 H  px              0.2       0.0       0.4       0.0       0.1       0.0
 7 H  py              0.2       1.2       0.0       0.0       0.3       0.1
 8 H  s               0.6       1.7       0.1       2.5       3.0       1.7
 8 H  pz              0.1       0.5       0.0       0.7       0.0       0.5
 8 H  px              0.8       0.1       0.0       0.0       0.0       0.1
 8 H  py              0.0       1.3       0.2       1.0       0.7       0.7
 9 H  s               0.1       0.2       1.2       5.3       1.5       2.1
 9 H  pz              0.0       0.2       1.0       0.4       1.2       0.1
 9 H  px              0.1       0.0       0.4       0.2       0.0       0.3
 9 H  py              0.4       0.1       0.2       1.4       0.1       0.0
10 H  s               1.1       5.3       3.3       0.0       0.3       1.1
10 H  pz              0.9       0.0       0.2       0.0       0.2       0.1
10 H  px              0.1       0.2       0.0       0.3       0.0       0.0
10 H  py              0.8       2.4       0.6       0.0       0.0       0.9
11 H  s               1.3       0.0       0.3       1.7       6.1       0.4
11 H  pz              0.1       0.0       0.5       0.4       1.6       0.3
11 H  px              0.1       0.1       0.0       0.2       0.5       0.2
11 H  py              0.2       0.4       0.3       0.0       0.4       0.0
12 H  s               0.0       2.8       2.9       4.7       0.6       0.7
12 H  pz              0.2       0.2       0.3       0.1       0.1       0.1
12 H  px              0.8       0.0       0.0       0.1       0.0       0.0
12 H  py              0.2       0.9       0.4       1.1       0.4       0.2
13 H  s               2.0       0.1       0.1       2.9       2.0       4.8
13 H  pz              0.3       0.1       0.1       0.3       1.0       1.3
13 H  px              0.1       0.0       0.0       0.9       0.2       0.8
13 H  py              0.5       0.0       0.3       0.4       0.1       0.0
14 H  s               2.6       0.1       0.4       0.9       0.0       5.1
14 H  pz              0.0       0.0       0.1       0.0       0.2       0.1
14 H  px              0.6       0.1       0.1       0.3       0.0       1.2
14 H  py              0.1       0.1       0.0       0.0       0.0       0.0
15 H  s               0.2       4.0       0.1       0.5       1.3       2.5
15 H  pz              0.0       0.1       0.0       0.1       0.1       0.0
15 H  px              0.2       0.0       0.0       0.0       0.0       0.2
15 H  py              0.0       1.1       0.0       0.2       0.6       0.6

                     30        31        32        33        34        35   
                   0.20143   0.21026   0.21108   0.22344   0.23585   0.24880
                   0.00000   0.00000   0.00000   0.00000   0.00000   0.00000
                  --------  --------  --------  --------  --------  --------
 0 C  s               0.8       0.4       1.0       1.4       0.9       0.5
 0 C  pz             10.8      10.8       2.0      13.7       2.2      16.2
 0 C  px              1.5       0.1       0.3       8.9       0.7       8.8
 0 C  py             10.3       4.9      14.5       2.4       6.5      14.7
 0 C  dz2             0.5       0.1       1.7       1.2       0.0       0.1
 0 C  dxz             1.4       0.1       0.2       0.2       0.1       0.0
 0 C  dyz             1.5       0.4       0.1       0.2       0.1       0.0
 0 C  dx2y2           0.2       0.5       2.5       0.0       0.0       0.0
 0 C  dxy             0.0       0.1       0.0       0.6       0.6       0.0
 1 C  s               0.0       0.1       0.1       1.9       0.3       1.2
 1 C  pz              0.5       3.5       2.4       0.3       6.4       6.7
 1 C  px              0.1       1.0       1.2       8.2       2.6       2.5
 1 C  py              3.6       3.9       0.3       2.6       1.7       0.6
 1 C  dz2             0.1       0.1       0.0       0.2       0.2       0.0
 1 C  dxz             0.3       0.6       0.6       0.1       0.0       0.0
 1 C  dyz             0.6       0.2       0.1       0.0       0.0       0.2
 1 C  dx2y2           0.4       0.5       0.6       0.0       0.3       0.2
 1 C  dxy             0.2       0.0       0.4       0.3       0.3       0.2
 2 C  s               0.7       1.0       0.5       0.7       0.7       0.7
 2 C  pz              0.4       1.5       2.1       3.4      11.1       2.0
 2 C  px              0.0       0.3       2.0       5.8       2.1       2.7
 2 C  py              3.4       6.8       2.2       2.5       4.7       1.3
 2 C  dz2             0.1       0.1       0.9       0.6       0.1       0.0
 2 C  dxz             0.0       0.0       0.0       0.6       0.2       0.2
 2 C  dyz             0.4       0.1       0.0       0.1       0.6       0.3
 2 C  dx2y2           0.2       0.1       0.2       0.0       0.0       0.4
 2 C  dxy             0.3       0.0       0.2       0.2       0.6       0.1
 3 C  s               1.3       1.5       0.2       0.2       0.0       0.1
 3 C  pz              1.9       8.2       2.6       0.9       1.4       1.1
 3 C  px              0.5       1.7       0.6       5.1       2.2       1.9
 3 C  py              1.5       9.7       1.5       1.2       1.4       1.4
 3 C  dz2             0.2       0.1       0.1       0.2       0.3       0.2
 3 C  dxz             0.2       0.1       0.1       0.6       0.0       0.2
 3 C  dyz             0.3       0.0       0.5       0.0       0.0       0.1
 3 C  dx2y2           0.0       0.1       0.0       0.1       0.0       0.6
 3 C  dxy             0.0       0.0       0.2       0.7       0.7       0.1
 4 N  s               0.5       0.2       0.1       0.4       0.7       0.1
[...]
 1 C  dz2             4.2       3.8       0.8       1.8       0.0       0.0
 1 C  dxz             1.8       5.1       0.3       1.0       0.0       0.0
 1 C  dyz             0.1       5.3       0.4       1.1       0.0       0.0
 1 C  dx2y2           8.1       1.1       4.2       0.4       0.0       0.0
 1 C  dxy             0.0       0.2       1.5       0.5       0.0       0.0
 2 C  s               0.6       0.6       1.6       0.1       0.1       0.0
 2 C  pz              4.5       1.1       1.2       0.8       0.1       0.1
 2 C  px              1.0       0.0       2.7       0.1       0.1       0.0
 2 C  py              0.1       0.1       2.5       3.4       0.0       0.0
 2 C  dz2             0.0       0.0       0.1       4.2       0.1       0.0
 2 C  dxz             5.5       2.3       0.0       0.7       0.0       0.0
 2 C  dyz             2.1       0.8       0.0       2.5       0.1       0.0
 2 C  dx2y2           0.5       0.3       9.0       4.0       0.1       0.0
 2 C  dxy             0.0       0.3       1.2       0.0       0.0       0.0
 3 C  s               0.5       0.2       2.1       0.2       1.4       0.0
 3 C  pz              0.2       2.8       0.7       4.0       4.2       0.0
 3 C  px              0.1       0.1       4.5       0.3       1.1       0.0
 3 C  py              0.5       0.5       1.6       3.0       1.8       0.0
 3 C  dz2             0.0       1.1       0.5       3.8       1.4       0.0
 3 C  dxz             1.4       2.5       3.5       2.6       3.7       0.0
 3 C  dyz             0.7       0.1       0.4       0.4       4.3       0.0
 3 C  dx2y2           0.1       2.8       3.1       5.9       0.0       0.3
 3 C  dxy             0.0       0.0       0.9       0.1       1.3       0.0
 4 N  s               2.8       2.5       3.1       0.2       1.4       0.0
 4 N  pz              0.5       0.4       0.4       0.1       5.3       0.6
 4 N  px              0.1       0.1       0.2       0.0       8.3       4.4
 4 N  py              0.0       0.1       0.1       0.2       5.7      10.7
 4 N  dz2             0.8       0.6       1.2       0.0      18.8       0.0
 4 N  dxz             1.9       1.9       2.1       0.2       1.5       0.8
 4 N  dyz             0.0       0.0       0.0       0.1      12.4       2.0
 4 N  dx2y2           0.2       0.2       0.2       0.1       0.0      35.6
 4 N  dxy             0.3       0.6       0.0       0.3       4.5       6.4
 5 H  s               1.1       0.0       0.2       0.0       0.0       0.0
 5 H  pz              1.3       0.1       0.5       0.0       0.0       0.0
 5 H  px              1.3       0.0       0.0       0.1       0.0       0.0
 5 H  py              0.1       0.0       0.2       0.0       0.0       0.0
 6 H  s               0.1       1.0       0.1       0.2       0.0       0.0
 6 H  pz              0.1       1.7       0.6       0.2       0.0       0.0
 6 H  px              0.0       0.8       0.0       0.1       0.0       0.0
 6 H  py              0.0       0.2       0.2       0.1       0.0       0.0
 7 H  s               2.0       0.7       0.1       0.0       0.0       0.0
 7 H  px              0.0       0.0       0.3       0.0       0.0       0.0
 7 H  py              5.1       1.8       0.4       0.0       0.0       0.0
 8 H  s               4.7       2.3       0.8       0.4       0.0       0.0
 8 H  pz              0.1       0.4       0.0       0.2       0.0       0.0
 8 H  px              0.0       0.1       0.4       0.0       0.0       0.0
 8 H  py             12.7       4.7       2.4       0.9       0.0       0.0
 9 H  s               0.1       5.1       1.2       1.8       0.0       0.0
 9 H  pz              0.2       8.6       2.2       3.7       0.0       0.0
 9 H  px              0.0       3.2       0.3       0.1       0.0       0.0
 9 H  py              0.1       1.2       1.2       1.2       0.0       0.0
10 H  s               0.0       0.0       2.3       3.2       0.0       0.0
10 H  pz              0.2       0.0       0.1       0.9       0.0       0.0
10 H  px              0.0       0.1       0.1       0.0       0.0       0.0
10 H  py              0.1       0.2       6.6       6.9       0.0       0.0
11 H  s               1.9       0.8       0.2       2.3       0.1       0.0
11 H  pz              2.7       1.9       0.3       3.1       0.2       0.0
11 H  px              1.7       0.1       0.0       1.0       0.1       0.0
11 H  py              1.0       0.4       0.7       1.0       0.1       0.0
12 H  s               0.2       1.2       0.6       4.3       0.3       0.1
12 H  pz              0.1       0.0       0.8       0.0       0.4       0.0
12 H  px              0.0       0.0       0.3       0.1       0.0       0.0
12 H  py              0.7       2.7       1.7      10.5       0.2       0.2
13 H  s               0.4       2.1       1.3       3.4       0.3       0.0
13 H  pz              1.0       3.3       3.1       4.4       0.1       0.0
13 H  px              0.3       2.2       0.3       3.2       0.3       0.0
13 H  py              0.0       0.0       0.4       0.0       0.2       0.0
14 H  s               0.3       0.4       0.1       0.0       3.6       7.8
14 H  pz              0.0       0.0       0.0       0.0       0.1       0.4
14 H  px              1.5       1.5       0.9       0.2       4.9       9.8
14 H  py              0.1       0.0       0.1       0.1       2.1       0.7
15 H  s               0.6       0.2       0.5       0.0       2.8       8.1
15 H  pz              0.0       0.0       0.2       0.0       0.5       0.2
15 H  px              0.1       0.1       0.0       0.0       0.2       0.1
15 H  py              1.4       1.0       1.1       0.0       5.4      11.4

                    150       151       152       153       154   
                  21.87467  21.96407  22.00332  22.03196  31.83446
                   0.00000   0.00000   0.00000   0.00000   0.00000
                  --------  --------  --------  --------  --------
 0 C  s              46.5      38.9       6.9       7.4       0.0
 1 C  s              20.5       5.4      69.9       4.0       0.0
 2 C  s              21.3       2.8       0.9      74.6       0.0
 3 C  s              11.2      52.6      22.1      13.8       0.1
 4 N  s               0.0       0.0       0.0       0.0      99.8


                      *****************************
                      * MAYER POPULATION ANALYSIS *
                      *****************************

  NA   - Mulliken gross atomic population
  ZA   - Total nuclear charge
  QA   - Mulliken gross atomic charge
  VA   - Mayer's total valence
  BVA  - Mayer's bonded valence
  FA   - Mayer's free valence

  ATOM       NA         ZA         QA         VA         BVA        FA
  0 C      6.5132     6.0000    -0.5132     3.7820     3.7820     0.0000
  1 C      6.2716     6.0000    -0.2716     3.6679     3.6679    -0.0000
  2 C      6.2563     6.0000    -0.2563     3.6085     3.6085    -0.0000
  3 C      6.2008     6.0000    -0.2008     3.7441     3.7441     0.0000
  4 N      7.6586     7.0000    -0.6586     2.6699     2.6699     0.0000
  5 H      0.8453     1.0000     0.1547     0.9591     0.9591     0.0000
  6 H      0.8497     1.0000     0.1503     0.9614     0.9614     0.0000
  7 H      0.8471     1.0000     0.1529     0.9612     0.9612     0.0000
  8 H      0.8552     1.0000     0.1448     0.9613     0.9613    -0.0000
  9 H      0.8413     1.0000     0.1587     0.9567     0.9567    -0.0000
 10 H      0.8525     1.0000     0.1475     0.9650     0.9650     0.0000
 11 H      0.8517     1.0000     0.1483     0.9628     0.9628    -0.0000
 12 H      0.8490     1.0000     0.1510     0.9551     0.9551    -0.0000
 13 H      0.8672     1.0000     0.1328     0.9550     0.9550     0.0000
 14 H      0.7208     1.0000     0.2792     0.9144     0.9144     0.0000
 15 H      0.7197     1.0000     0.2803     0.9166     0.9166     0.0000

  Mayer bond orders larger than 0.100000
B(  0-C ,  1-C ) :   0.8882 B(  0-C ,  5-H ) :   0.9731 B(  0-C ,  6-H ) :   0.9788 
B(  0-C ,  7-H ) :   0.9841 B(  1-C ,  2-C ) :   0.9085 B(  1-C ,  8-H ) :   0.9622 
B(  1-C ,  9-H ) :   0.9804 B(  2-C ,  3-C ) :   0.9327 B(  2-C , 10-H ) :   0.9803 
B(  2-C , 11-H ) :   0.9653 B(  3-C ,  4-N ) :   0.9120 B(  3-C , 12-H ) :   0.9888 
B(  3-C , 13-H ) :   0.9673 B(  4-N , 14-H ) :   0.9020 B(  4-N , 15-H ) :   0.9045 


-------
TIMINGS
-------

Total SCF time: 0 days 0 hours 0 min 18 sec 

Total time                  ....      18.821 sec
Sum of individual times     ....      18.311 sec  ( 97.3%)

SCF preparation             ....       0.351 sec  (  1.9%)
Fock matrix formation       ....      16.996 sec  ( 90.3%)
  Startup                   ....       0.068 sec  (  0.4% of F)
  Split-RI-J                ....       2.149 sec  ( 12.6% of F)
  XC integration            ....      11.619 sec  ( 68.4% of F)
    XC Preparation          ....       0.000 sec  (  0.0% of XC)
    Basis function eval.    ....       2.219 sec  ( 19.1% of XC)
    Density eval.           ....       3.079 sec  ( 26.5% of XC)
    XC-Functional eval.     ....       1.868 sec  ( 16.1% of XC)
    XC-Potential eval.      ....       3.493 sec  ( 30.1% of XC)
  CPCM terms                ....       2.559 sec  ( 15.1% of F)
Diagonalization             ....       0.000 sec  (  0.0%)
Density matrix formation    ....       0.260 sec  (  1.4%)
Total Energy calculation    ....       0.048 sec  (  0.3%)
Population analysis         ....       0.082 sec  (  0.4%)
Orbital Transformation      ....       0.054 sec  (  0.3%)
Orbital Orthonormalization  ....       0.000 sec  (  0.0%)
DIIS solution               ....       0.445 sec  (  2.4%)
  MO trafo                  ....       0.000 sec  (  0.0 % of DIIS)
  Orb grad                  ....       0.000 sec  (  0.0 % of DIIS)
  Energy W gradient         ....       0.000 sec  (  0.0 % of DIIS)
  DIIS error                ....       0.005 sec  (  1.2 % of DIIS)
  DIIS work                 ....       0.385 sec  ( 86.4 % of DIIS)
  Form Q                    ....       0.000 sec  (  0.0 % of DIIS)
  Form QpQm                 ....       0.000 sec  (  0.0 % of DIIS)
  Exp/Cayley                ....       0.000 sec  (  0.0 % of DIIS)
  Orb update                ....       0.000 sec  (  0.0 % of DIIS)
  Wake-sleep                ....       0.029 sec  (  6.4 % of DIIS)
SOSCF solution              ....       0.074 sec  (  0.4%)
  MO trafo                  ....       0.043 sec  ( 58.2 % of SOSCF)
  Orb grad                  ....       0.003 sec  (  4.2 % of SOSCF)
  Rot update                ....       0.011 sec  ( 15.0 % of SOSCF)
  Step                      ....       0.017 sec  ( 22.4 % of SOSCF)
Finished LeanSCF after  19.0 sec

Maximum memory used throughout the entire LEANSCF-calculation: 19.4 MB


-------------------------------------------------------------------------------
                          DFT DISPERSION CORRECTION                            
                                                                               
                                DFTD4 V3.4.0                                   
-------------------------------------------------------------------------------
The R2SCAN3C composite method is recognized
Using three-body term ABC
Active option DFTDOPT                   ...         5   

-------------------------   ----------------
Dispersion correction           -0.003411550
-------------------------   ----------------

------------------   -----------------
gCP correction             0.010490740
------------------   -----------------

-------------------------   --------------------
FINAL SINGLE POINT ENERGY      -213.727068221076
-------------------------   --------------------


------------------------------------------------------------------------------
                              ORCA PROPERTY CALCULATIONS
------------------------------------------------------------------------------

GBWName                                 ... sp_solv.gbw
Number of atoms                         ...     16
Number of basis functions               ...    155
Max core memory                         ...   1024 MB

Electric properties:
Dipole moment                           ... YES
Quadrupole moment                       ...  NO
Static polarizability (Dipole/Dipole)   ...  NO
Static polarizability (Dipole/Quad.)    ...  NO
Static polarizability (Quad./Quad.)     ...  NO
Static polarizability (Velocity)        ...  NO

Atomic electric properties:
Dipole moment                           ...  NO
Quadrupole moment                       ...  NO
Static polarizability                   ...  NO

Choice of electric origin               ... Center of mass
Position of electric origin             ...    -0.000010    -0.000003    -0.000003

General magnetic properties:
Magnetizability                         ...  NO

EPR properties:
g-Tensor (aka g-matrix)                 ...  NO
Zero-Field splitting spin-orbit         ...  NO
Zero-field splitting spin-spin          ...  NO
Hyperfine couplings                     ...  NO (   0 nuclei)
Quadrupole couplings                    ...  NO (   0 nuclei)
Contact density                         ...  NO (   0 nuclei)

NMR properties:
Chemical shifts                         ...  NO (   0 nuclei)
Spin-rotation constants                 ...  NO (   0 nuclei)
Spin-spin couplings                     ...  NO (   0 nuclei,    0 pairs)

Choice of magnetic origin               ... GIAO
Position of magnetic origin             ...     0.000000     0.000000     0.000000

Properties with geometric perturbations:
SCF Hessian                             ...  NO
IR spectrum                             ...  NO
VCD spectrum                            ...  NO
X-ray spectroscopy properties:
SCF XES/XAS/RIXS spectra                ...  NO


-------------
DIPOLE MOMENT
-------------

Method             : SCF
Type of density    : Electron Density
Multiplicity       :   1
Irrep              :   0
Energy             :  -213.7341474114695075 Eh
Relativity type    : 
Basis              : AO
                                X                 Y                 Z
Electronic contribution:     -2.427653814       0.133808817      -0.272431422
Nuclear contribution   :      2.005961178      -0.263881257       0.776882938
                        -----------------------------------------
Total Dipole Moment    :     -0.421692637      -0.130072440       0.504451517
                        -----------------------------------------
Magnitude (a.u.)       :      0.670234923
Magnitude (Debye)      :      1.703601787



--------------------
Rotational spectrum 
--------------------
 
Rotational constants in cm-1:             0.398638             0.079555             0.073647 
Rotational constants in MHz :         11950.857592          2384.990147          2207.884639 

Dipole components along the rotational axes: 
x,y,z [a.u.] :    -0.421054    -0.436998    -0.284537 
x,y,z [Debye]:    -1.070235    -1.110760    -0.723235 

 

Dipole moment calculation done in   0.0 sec 

Maximum memory used throughout the entire PROP-calculation: 8.9 MB

--------------------------------
SUGGESTED CITATIONS FOR THIS RUN
--------------------------------

Below you find a list of papers that are relevant to this ORCA run
We neither can nor want to force you to cite these papers, but we appreciate if you do
You receive ORCA, which is the product of decades of hard work by many enthusiastic individuals, for free
The only thing we kindly ask in return is that you cite our papers,
We deeply appreciate it, if you show your appreciation for ORCA by not just citing the generic ORCA reference.

Please note that relegating all ORCA citations to the supporting information does *not* help us.
SI sections are not indexed - citations you put there will not count into any citation statistics
But we need these citations in order to attract the funding resources that allow us to do what we are doing

Therefore, if you are a happy ORCA user, please consider citing a few of the papers listed below in the main body of your paper

In addition to the list printed below, the program has created the file sp_solv.bibtex that contains the list in bibtex format
You can import this file easily into all common literature databanks and citation aid programs


List of essential papers. We consider these as the minimum necessary citations

  1. Neese,F.
     Software update: the ORCA program system, version 5.0
     WIRES Comput. Molec. Sci., 2022 12(1)e1606
     doi.org/10.1002/wcms.1606
  2. Grimme,S.; Hansen,A.; Ehlert,S.; Mewes,J.
     r2SCAN-3c: A 'Swiss army knife' composite electronic-structure method
     J. Chem. Phys., 2021 154 064103
     doi.org/10.1063/5.0040021

List of papers to cite with high priority. The work reported in these papers was absolutely
necessary for this run to complete.
Our perspective: the developers of density functionals and basis sets usually get cited in chemistry papers
Good! But without the algorithms to do something with them, the functionals or basis sets would not do anything.
Hence, in our opinion, the algorithm design and method developments papers are equally worthy of getting cited

  1. Neese,F.
     An improvement of the resolution of the identity approximation for the formation of the Coulomb matrix
     J. Comp. Chem., 2003 24(14)1740-1747
     doi.org/10.1002/jcc.10318
  2. Garcia-Rates,M.; Neese,F.
     Effect of the Solute Cavity on the Solvation Energy and its Derivatives within the Framework of the Gaussian Charge Scheme
     J. Comput. Chem., 2020 41 922-939
     doi.org/10.1002/jcc.26139
  3. Neese,F.
     The SHARK Integral Generation and Digestion System
     J. Comp. Chem., 2022  1-16
     doi.org/10.1002/jcc.26942
  4. Lehtola,S.; Steigemann,C.; Oliveira,M.; Marques,M.
     Recent developments in Libxc - A comprehensive library of functionals for density functional theory
     Software X, 2018 7 
     doi.org/10.1016/j.softx.2017.11.002
  5. Caldeweyher,E.; Bannwarth,C.; Grimme,S.
     Extension of the D3 dispersion coefficient model
     J. Chem. Phys., 2017 147 034112-XXXX
     doi.org/10.1063/1.4993215
  6. Caldeweyher,E.; Ehlert,S.; Hansen,A.; Neugebauer,H.; Spicher,S.; Bannwarth,C.; Grimme,S.
     A generally applicable atomic-charge dependent London dispersion correction
     J. Chem. Phys., 2019 150 154122-XXXX
     doi.org/10.1063/1.5090222
  7. Caldeweyher,E.; Mewes,J.; Ehlert,S.; Grimme,S.
     Extension and evaluation of the D4 London-dispersion model for periodic systems
     Phys. Chem. Chem. Phys., 2020 22(16)8499-8512
     doi.org/10.1039/D0CP00502A

List of suggested additional citations. These are papers that are important in the 'surrounding' of 
of this run, or papers that preceded the highly important papers. If you like your results we are grateful for a citation.

  1. Neese,F.
     The ORCA program system
     WIRES Comput. Molec. Sci., 2012 2(1)73-78
     doi.org/10.1002/wcms.81
  2. Neese,F.
     Software update: the ORCA program system, version 4.0
     WIRES Comput. Molec. Sci., 2018 8(1)1-6
     doi.org/10.1002/wcms.1327
  3. Neese,F.; Wennmohs,F.; Becker,U.; Riplinger,C.
     The ORCA quantum chemistry program package
     J. Chem. Phys., 2020 152 Art. No. L224108
     doi.org/10.1063/5.0004608

List of optional additional citations

  1. Neese,F.
     Approximate second-order SCF convergence for spin unrestricted wavefunctions
     Chem. Phys. Lett., 2000 325(1-3)93-98
     doi.org/10.1016/s0009-2614(00)00662-x

Timings for individual modules:

Sum of individual times          ...       20.427 sec (=   0.340 min)
Startup calculation              ...        0.977 sec (=   0.016 min)   4.8 %
SCF iterations                   ...       19.349 sec (=   0.322 min)  94.7 %
Property calculations            ...        0.100 sec (=   0.002 min)   0.5 %
                             ****ORCA TERMINATED NORMALLY****
TOTAL RUN TIME: 0 days 0 hours 0 minutes 21 seconds 239 msec
