20
 energy: -386.240720482751 gnorm: 0.036531338550 xtb: 6.7.1 (edcfbbe)
C           -3.52118362166033       -0.68187085950216        0.46334677860532
C           -2.16479552535928        0.00289894020128        0.57087932615297
C           -1.22665233034356       -0.44428482859687       -0.56039064704832
C            0.09482684114202        0.26059755911548       -0.41557525778415
O            0.39219599067379        1.29793205187515       -0.97145458303048
O            0.88741176399324       -0.36870316236338        0.44244056059606
C            2.17750502116491        0.19650163828708        0.72903990492306
C            3.21901498362643       -0.28192451692493       -0.27093283902006
H           -4.17164221934856       -0.35152435405577        1.26848240946210
H           -3.99542984977048       -0.44106786139545       -0.48451580911470
H           -3.40864470171046       -1.76079059698025        0.52956395053466
H           -1.70344176605484       -0.23929383710604        1.53009898317803
H           -2.29129423621533        1.08645744298144        0.51974910033031
H           -1.65966789623544       -0.18246384918085       -1.52536954187593
H           -1.06586323977231       -1.51974047237344       -0.49754922662048
H            2.09362748052774        1.28727899567043        0.70619195671293
H            2.40980490206785       -0.14576304686459        1.73800183967015
H            2.97123192691663        0.07771957373444       -1.26718184356152
H            4.19279001985794        0.10468080334639        0.01123869850498
H            3.25328738974162       -1.36790968720616       -0.28461911782612
20
 energy: -386.241822570769 gnorm: 0.014034796219 xtb: 6.7.1 (edcfbbe)
C           -3.52786847230686       -0.68034009531431        0.46514899380503
C           -2.16880499903167        0.00270723836324        0.57234595519597
C           -1.22669176530242       -0.44349289684864       -0.55932901057048
C            0.09813904134047        0.25217310156928       -0.42811867707531
O            0.39501791839953        1.29758029143538       -0.98592330607281
O            0.89400063720273       -0.37813668095094        0.44313558794965
C            2.18840649409563        0.20356837646517        0.73282767589537
C            3.21729823903574       -0.27940544168694       -0.27225207255501
H           -4.18872005640920       -0.35397954451435        1.27161081955529
H           -4.00799844946500       -0.44173645881167       -0.48755703600173
H           -3.42029935103159       -1.76636465461030        0.52993365002584
H           -1.70700069351778       -0.23503649934714        1.53593630439081
H           -2.29080013839589        1.09003192407138        0.52631222605461
H           -1.65756298433531       -0.18225575879509       -1.52815764758691
H           -1.07645337076801       -1.52465936136679       -0.50525713423651
H            2.10381096537548        1.29354609890806        0.73011600084364
H            2.42314852770677       -0.14036801510433        1.74125328567824
H            2.97608192762195        0.07791420045816       -1.27615390006217
H            4.19835936711255        0.10786838688893        0.00972577086112
H            3.26101839476152       -1.37088307195314       -0.28415354347363
20
 energy: -386.242047486491 gnorm: 0.006205196955 xtb: 6.7.1 (edcfbbe)
C           -3.53365060946662       -0.67885451500783        0.46286162811580
C           -2.17490557832522        0.00407376152486        0.57316611918720
C           -1.22895741286265       -0.44361372034879       -0.55675067917172
C            0.09313303263961        0.25113018044779       -0.41987979611367
O            0.40029697105999        1.28754347288045       -0.99351928502902
O            0.89434847057234       -0.38416782009031        0.45454462997738
C            2.19940490532363        0.20418037129014        0.73203206403222
C            3.22162685743105       -0.27423812968136       -0.27496715439731
H           -4.20007421938344       -0.35465820790926        1.26938877698063
H           -4.01733869557958       -0.44172777986212       -0.49176097895083
H           -3.43037752960904       -1.76838170042480        0.52727986866922
H           -1.71457228531267       -0.23128862146741        1.53986628900954
H           -2.29438820011599        1.09333942352291        0.52979164542972
H           -1.65501780792287       -0.18384034627191       -1.52981138425331
H           -1.08510420741518       -1.52782935133591       -0.50717938187975
H            2.10885415158951        1.29334543225378        0.74127816562214
H            2.43907236077928       -0.14114203240501        1.73969142296079
H            2.98047464002382        0.07875178957488       -1.28243326328449
H            4.20798985974850        0.11397095597572        0.00097608291194
H            3.27226758869343       -1.36786112354198       -0.28313267656186
20
 energy: -386.242097812396 gnorm: 0.003129344682 xtb: 6.7.1 (edcfbbe)
C           -3.53693551546988       -0.67718410286766        0.46154463546568
C           -2.17802657601540        0.00384467533522        0.57426129177590
C           -1.22946205358888       -0.44355446230816       -0.55392435279409
C            0.09672785528377        0.24334777175708       -0.42268110434918
O            0.40545378362018        1.27919751892870       -0.99406088829817
O            0.89582232011352       -0.38868022534208        0.45943258061311
C            2.20410572337174        0.20426519509435        0.73288490547624
C            3.22325882176993       -0.27078345850013       -0.27634129538999
H           -4.20454745277431       -0.35330389439706        1.26700371921705
H           -4.01953641583038       -0.43949453170442       -0.49330898586373
H           -3.43516920104204       -1.76672315170987        0.52540046872824
H           -1.71957453406631       -0.23199185610152        1.54164132266263
H           -2.29651695233954        1.09320522597997        0.53092870211105
H           -1.65512589748611       -0.18168703246979       -1.52661625247813
H           -1.08957881085281       -1.52833358518868       -0.50647353733571
H            2.10715776655212        1.29274134540731        0.74293292952731
H            2.44608587423812       -0.14197274855716        1.73990622829497
H            2.98041465820629        0.07947245186700       -1.28402242943051
H            4.20944973685083        0.12034619983582       -0.00380671177798
H            3.27907957979969       -1.36397776367283       -0.28326050993134
20
 energy: -386.242118995431 gnorm: 0.001322963615 xtb: 6.7.1 (edcfbbe)
C           -3.53868047512714       -0.67556009319387        0.45916749617966
C           -2.17955053526317        0.00372862795634        0.57539388632260
C           -1.22945072525874       -0.44513062919309       -0.55087516765196
C            0.09813498244860        0.23969504373469       -0.41967243055671
O            0.41081201665458        1.27082917100840       -0.99520893922640
O            0.89618691697463       -0.39097263946866        0.46531403341462
C            2.20676134961937        0.20361688228293        0.73416977681467
C            3.22307922062732       -0.26818908567574       -0.27882244855115
H           -4.20665606129203       -0.35085359911819        1.26317703838075
H           -4.01863058665126       -0.43653689400856       -0.49597856317507
H           -3.43828252788232       -1.76457639083533        0.52284231763821
H           -1.72408972965256       -0.23282440460304        1.54362221908846
H           -2.29725376837907        1.09281687538967        0.53091707031222
H           -1.65360260350220       -0.18213746459842       -1.52371196139976
H           -1.09154791669801       -1.52975034081149       -0.50292978361722
H            2.10565224469044        1.29161250269058        0.74460656379513
H            2.45198621633065       -0.14438330155311        1.73966800977777
H            2.97653223017243        0.08098347353666       -1.28535443913249
H            4.20786187389522        0.12695343596164       -0.00909523438103
H            3.28382121382344       -1.36058618925749       -0.28579034113866
20
 energy: -386.242134611286 gnorm: 0.002217784070 xtb: 6.7.1 (edcfbbe)
C           -3.54147471852766       -0.67164359435072        0.45460094439850
C           -2.18060114070711        0.00324316648212        0.57777206278068
C           -1.22868551788180       -0.44976850027524       -0.54503412443738
C            0.10089647840168        0.23270453961692       -0.41448706182887
O            0.41975533104452        1.25596640858048       -0.99914633473205
O            0.89623877888688       -0.39402166816240        0.47583956814825
C            2.20954097855827        0.20179458289413        0.73732994044393
C            3.22154907710204       -0.26283330419244       -0.28357343833655
H           -4.21120577404817       -0.34503137590322        1.25555951468391
H           -4.01527779526513       -0.42939192605005       -0.50208695838171
H           -3.44463025940120       -1.76031870365822        0.51756272314148
H           -1.73101257151266       -0.23488250898027        1.54789744066705
H           -2.29544860986910        1.09221429299556        0.53145611645183
H           -1.65024129680886       -0.18619714979572       -1.51853228563988
H           -1.09318233468777       -1.53411957855526       -0.49477175423968
H            2.10464059447154        1.28922713540761        0.75047398591458
H            2.46163979074382       -0.14988680595149        1.73947793933927
H            2.96556715197992        0.08549014456930       -1.28746460321734
H            4.20421173552635        0.14031065005938       -0.01996494302046
H            3.29080465467639       -1.35411760580060       -0.29147290268275
20
 energy: -386.242142445856 gnorm: 0.001705738445 xtb: 6.7.1 (edcfbbe)
C           -3.54251256604349       -0.66933296275670        0.45278924958649
C           -2.18013422194312        0.00258641805032        0.57868412263789
C           -1.22773037954460       -0.45250413781056       -0.54274113587698
C            0.10229922307509        0.22947123035280       -0.41326833330881
O            0.42214172681443        1.25060943430523       -1.00152554066657
O            0.89648765834164       -0.39439673876937        0.47963157800695
C            2.20993736908257        0.20125322422766        0.73904310813054
C            3.22012784382950       -0.26032373115891       -0.28550150680125
H           -4.21342281946878       -0.34170262966312        1.25248097375440
H           -4.01363385453304       -0.42548240976530       -0.50495493188950
H           -3.44810385647412       -1.75837297235267        0.51525263729197
H           -1.73272694784308       -0.23643375632648        1.54962530594260
H           -2.29257629527312        1.09185853910719        0.53222211565835
H           -1.64874512960695       -0.19014126441547       -1.51680886478680
H           -1.09271087510885       -1.53691009174867       -0.49097620907952
H            2.10489147262700        1.28866758636985        0.75523491346926
H            2.46478832351956       -0.15250952264327        1.73971524495951
H            2.95971458463403        0.08792565359319       -1.28836106096306
H            4.20239827096441        0.14592947449641       -0.02484763413346
H            3.29259551723772       -1.35145142820438       -0.29425964014134
20
 energy: -386.242153741201 gnorm: 0.001266507309 xtb: 6.7.1 (edcfbbe)
C           -3.54580532518853       -0.65990199441916        0.44629057889566
C           -2.17733121099138       -0.00077617427575        0.58130743334570
C           -1.22360466649398       -0.46408380911689       -0.53530113255338
C            0.10660080558446        0.21821797574002       -0.40940590286364
O            0.42678898783013        1.23447214650799       -1.00742363910998
O            0.89771537825984       -0.39513323596254        0.49177272274536
C            2.21049950026389        0.19969160099394        0.74481248128367
C            3.21450400804468       -0.25073210208278       -0.29204869410391
H           -4.22005414916606       -0.32738655869801        1.24174435751190
H           -4.00776987077329       -0.41012846526397       -0.51505114532589
H           -3.46195970589524       -1.75049625738961        0.50729821950062
H           -1.73748766695931       -0.24386114859837        1.55500612137881
H           -2.27944451250825        1.08990138256200        0.53510623666598
H           -1.64320760672486       -0.20815653284081       -1.51184927428144
H           -1.08924124541540       -1.54868725365831       -0.47693356138309
H            2.10580369858367        1.28719255750201        0.77329592127269
H            2.47503289443577       -0.16212823570919        1.74022105887333
H            2.93903339762558        0.09701631672050       -1.29147000963751
H            4.19593804149287        0.16517618422380       -0.04201953227552
H            3.29707600487341       -1.34144987052381       -0.30392299624042
20
 energy: -386.242156890334 gnorm: 0.000354929960 xtb: 6.7.1 (edcfbbe)
C           -3.54580383719046       -0.66006378321729        0.44671892770048
C           -2.17763288329216       -0.00119173540115        0.58059870879759
C           -1.22367057718295       -0.46405308454611       -0.53613175025363
C            0.10552548657721        0.21945997715770       -0.40945528433331
O            0.42441323735915        1.23735111657317       -1.00489560071773
O            0.89808253472295       -0.39520675864737        0.49018795393654
C            2.21086275518298        0.20022478505171        0.74383949473155
C            3.21516992395271       -0.25118987146817       -0.29146417458750
H           -4.21895597389224       -0.32727662967971        1.24288923341094
H           -4.00898800719401       -0.41056226149662       -0.51392878264602
H           -3.46223125464130       -1.75054160787528        0.50792442071383
H           -1.73711604306187       -0.24452839366232        1.55387991974140
H           -2.27951488572060        1.08943109543108        0.53485698402366
H           -1.64334721444881       -0.20869620121454       -1.51280451280138
H           -1.08875429945785       -1.54850436387389       -0.47752891819134
H            2.10545727742684        1.28758433174430        0.77154235000270
H            2.47437521205563       -0.16087591984595        1.73974369387808
H            2.94220041467281        0.09659326277080       -1.29132075890289
H            4.19686363811843        0.16276940507803       -0.03998893197721
H            3.29615113214476       -1.34197716496099       -0.30323333152281
20
 energy: -386.242156890334 gnorm: 0.000354929960 xtb: 6.7.1 (edcfbbe)
C           -3.54580383719046       -0.66006378321729        0.44671892770048
C           -2.17763288329216       -0.00119173540115        0.58059870879759
C           -1.22367057718295       -0.46405308454611       -0.53613175025363
C            0.10552548657721        0.21945997715770       -0.40945528433331
O            0.42441323735915        1.23735111657317       -1.00489560071773
O            0.89808253472295       -0.39520675864737        0.49018795393654
C            2.21086275518298        0.20022478505171        0.74383949473155
C            3.21516992395271       -0.25118987146817       -0.29146417458750
H           -4.21895597389224       -0.32727662967971        1.24288923341094
H           -4.00898800719401       -0.41056226149662       -0.51392878264602
H           -3.46223125464130       -1.75054160787528        0.50792442071383
H           -1.73711604306187       -0.24452839366232        1.55387991974140
H           -2.27951488572060        1.08943109543108        0.53485698402366
H           -1.64334721444881       -0.20869620121454       -1.51280451280138
H           -1.08875429945785       -1.54850436387389       -0.47752891819134
H            2.10545727742684        1.28758433174430        0.77154235000270
H            2.47437521205563       -0.16087591984595        1.73974369387808
H            2.94220041467281        0.09659326277080       -1.29132075890289
H            4.19686363811843        0.16276940507803       -0.03998893197721
H            3.29615113214476       -1.34197716496099       -0.30323333152281
