 Entering Gaussian System
 *********************************************
 Gaussian 98:
 frequency output generated by the xtb code
 *********************************************
                         Standard orientation:
 --------------------------------------------------------------------
  Center     Atomic     Atomic              Coordinates (Angstroms)
  Number     Number      Type              X           Y           Z
 --------------------------------------------------------------------
    1          6             0       -2.649249   -1.028558   -0.437722
    2          6             0       -2.184684   -0.280304    0.805889
    3          6             0       -1.310494    0.927688    0.447883
    4          6             0       -0.035995    0.501216   -0.234584
    5          8             0        0.290772    0.829454   -1.356827
    6          8             0        0.694086   -0.290834    0.540154
    7          6             0        1.946122   -0.778979    0.033183
    8          6             0        3.068550    0.213613    0.294902
    9          1             0       -1.796681   -1.397170   -1.005450
   10          1             0       -3.271007   -1.875898   -0.161567
   11          1             0       -3.225697   -0.372068   -1.085311
   12          1             0       -1.614466   -0.951167    1.449738
   13          1             0       -3.052965    0.073766    1.362534
   14          1             0       -1.038041    1.460530    1.359647
   15          1             0       -1.842722    1.602726   -0.222324
   16          1             0        2.112534   -1.715797    0.565906
   17          1             0        1.840526   -0.965012   -1.040150
   18          1             0        3.132007    0.435377    1.356750
   19          1             0        4.009343   -0.210522   -0.040354
   20          1             0        2.883348    1.136657   -0.250127
 --------------------------------------------------------------------
     1 basis functions        1 primitive gaussians
     1 alpha electrons        1 beta electrons
 
 Harmonic frequencies (cm**-1), IR intensities (km*mol⁻¹),
 Raman scattering activities (A**4/amu), Raman depolarization ratios,
 reduced masses (AMU), force constants (mDyne/A) and normal coordinates:
                      1                      2                      3
                        a                      a                      a 
 Frequencies --    30.8948                55.1691                77.4769
 Red. masses --    10.7956                 9.7266                10.6130
 Frc consts  --     0.0000                 0.0000                 0.0000
 IR Inten    --     1.2074                 2.5244                 0.3946
 Raman Activ --     0.0000                 0.0000                 0.0000
 Depolar     --     0.0000                 0.0000                 0.0000
 Atom AN      X      Y      Z        X      Y      Z        X      Y      Z
   1   6    -0.18   0.30  -0.31    -0.26   0.13   0.08    -0.43   0.13   0.13
   2   6    -0.08  -0.08  -0.12     0.05  -0.05   0.06     0.02  -0.01   0.04
   3   6     0.06  -0.08   0.20     0.05  -0.05   0.02     0.08  -0.11  -0.14
   4   6     0.01  -0.11   0.13    -0.04  -0.06  -0.13     0.11  -0.13  -0.06
   5   8    -0.19  -0.41   0.01    -0.27  -0.22  -0.26     0.36   0.10   0.07
   6   8     0.18   0.12   0.25     0.14   0.10  -0.15    -0.05  -0.38  -0.13
   7   6     0.11   0.05   0.15     0.14   0.17  -0.16     0.14  -0.03   0.05
   8   6     0.09   0.17  -0.26     0.17  -0.04   0.48    -0.18   0.34   0.01
   9   1    -0.06   0.11  -0.12    -0.12   0.05  -0.05    -0.18   0.04  -0.05
  10   1    -0.07   0.08  -0.15    -0.06   0.03   0.03    -0.11   0.04   0.07
  11   1    -0.04   0.15  -0.04    -0.11   0.06   0.09    -0.18   0.06   0.11
  12   1    -0.05  -0.09  -0.08     0.04  -0.04  -0.04     0.03  -0.03  -0.04
  13   1    -0.01  -0.04  -0.01     0.05  -0.02   0.08     0.06   0.02   0.09
  14   1     0.03  -0.10   0.10     0.05  -0.03   0.00     0.03   0.00  -0.06
  15   1     0.04   0.03   0.10    -0.00  -0.00   0.03     0.03  -0.05  -0.06
  16   1     0.07   0.05   0.10    -0.00  -0.02  -0.16     0.10   0.03   0.05
  17   1    -0.01  -0.06   0.06     0.08   0.19  -0.07     0.08  -0.06   0.02
  18   1     0.07   0.13  -0.09     0.00  -0.15   0.17    -0.10   0.15  -0.01
  19   1     0.02   0.04  -0.09     0.06   0.01   0.13    -0.01   0.17   0.04
  20   1    -0.01   0.01  -0.13     0.10   0.07   0.25    -0.12   0.06  -0.04
                      4                      5                      6
                        a                      a                      a 
 Frequencies --   115.1111               165.6604               199.9741
 Red. masses --     8.5604                 7.1557                 2.8916
 Frc consts  --     0.0000                 0.0000                 0.0000
 IR Inten    --     2.5602                 1.7904                 2.9293
 Raman Activ --     0.0000                 0.0000                 0.0000
 Depolar     --     0.0000                 0.0000                 0.0000
 Atom AN      X      Y      Z        X      Y      Z        X      Y      Z
   1   6     0.31   0.08  -0.03     0.28   0.18  -0.06     0.05   0.01  -0.01
   2   6    -0.14   0.24   0.05     0.36  -0.08   0.07    -0.00   0.08  -0.04
   3   6     0.15   0.06   0.18     0.08   0.12   0.09    -0.03   0.07  -0.10
   4   6    -0.02  -0.16   0.01    -0.04   0.04  -0.08     0.02  -0.04   0.08
   5   8    -0.15  -0.20  -0.03    -0.12  -0.12  -0.16     0.14  -0.18   0.08
   6   8    -0.04  -0.35  -0.15    -0.19  -0.07  -0.09    -0.02  -0.04   0.16
   7   6     0.07  -0.00  -0.15    -0.13  -0.11   0.10    -0.07   0.04  -0.07
   8   6    -0.20   0.24   0.10    -0.27   0.05   0.09    -0.07   0.04  -0.05
   9   1     0.15  -0.12   0.17     0.08   0.32  -0.19     0.03   0.18  -0.10
  10   1    -0.06   0.12  -0.05     0.30  -0.12  -0.05     0.19  -0.12   0.01
  11   1     0.28   0.04  -0.16    -0.15   0.02   0.16    -0.16  -0.07   0.08
  12   1    -0.14   0.08   0.11     0.19  -0.04  -0.07     0.01   0.04  -0.00
  13   1    -0.09   0.13  -0.11     0.12  -0.12   0.10    -0.01   0.01  -0.01
  14   1     0.10  -0.04   0.07     0.06   0.02   0.02    -0.04   0.06  -0.04
  15   1     0.08   0.08   0.09    -0.02   0.03   0.06     0.01  -0.01  -0.08
  16   1     0.07  -0.01  -0.08    -0.04  -0.00   0.08     0.01  -0.02  -0.09
  17   1     0.05   0.04  -0.05    -0.00  -0.08   0.03    -0.06   0.08  -0.03
  18   1    -0.09   0.02   0.04    -0.17   0.11   0.01     0.29  -0.34   0.04
  19   1    -0.02   0.16   0.02    -0.04   0.01   0.14    -0.09   0.21  -0.46
  20   1    -0.12   0.09   0.08    -0.06  -0.04  -0.07    -0.27   0.18   0.35
                      7                      8                      9
                        a                      a                      a 
 Frequencies --   236.7494               293.6972               357.4098
 Red. masses --     4.4540                 8.6312                 8.0326
 Frc consts  --     0.0000                 0.0000                 0.0000
 IR Inten    --     0.2484                14.2479                 3.0316
 Raman Activ --     0.0000                 0.0000                 0.0000
 Depolar     --     0.0000                 0.0000                 0.0000
 Atom AN      X      Y      Z        X      Y      Z        X      Y      Z
   1   6     0.00  -0.07   0.00    -0.02  -0.05   0.02     0.21   0.32  -0.00
   2   6    -0.34   0.22  -0.04    -0.16   0.05   0.01    -0.04  -0.05   0.29
   3   6    -0.04   0.01   0.01     0.07  -0.07   0.12    -0.30  -0.10  -0.24
   4   6    -0.00  -0.09   0.10    -0.03   0.01  -0.19    -0.16  -0.17  -0.00
   5   8    -0.02  -0.02   0.13    -0.24   0.31  -0.19    -0.09   0.05   0.09
   6   8     0.11  -0.12  -0.01    -0.02  -0.03  -0.27    -0.10  -0.20  -0.06
   7   6     0.13   0.05  -0.16     0.19  -0.17   0.38     0.13   0.09   0.07
   8   6     0.14   0.01  -0.02     0.16  -0.02   0.03     0.26   0.00  -0.03
   9   1     0.06   0.31  -0.13     0.02   0.07  -0.01     0.11   0.14   0.04
  10   1     0.34  -0.26   0.03     0.08  -0.08   0.01     0.01   0.08  -0.17
  11   1    -0.31  -0.19   0.11    -0.08  -0.07   0.02     0.15   0.19   0.02
  12   1    -0.18   0.09   0.09    -0.11   0.01   0.05     0.03  -0.00   0.05
  13   1    -0.14   0.12  -0.11    -0.06   0.06  -0.05    -0.01  -0.05   0.10
  14   1    -0.02   0.00   0.01     0.09  -0.11   0.06    -0.13   0.20  -0.19
  15   1     0.05   0.02  -0.03     0.02   0.06   0.11    -0.12  -0.20  -0.22
  16   1     0.05  -0.01  -0.09     0.02   0.05   0.29     0.05   0.03   0.03
  17   1     0.03   0.07  -0.05     0.15  -0.24   0.14     0.06   0.00   0.02
  18   1    -0.11   0.13  -0.02     0.23  -0.07   0.01     0.13   0.01  -0.02
  19   1     0.07  -0.09   0.20     0.01   0.07  -0.19     0.04  -0.07  -0.04
  20   1     0.17  -0.06  -0.15    -0.10   0.02   0.10     0.11   0.00  -0.02
                     10                     11                     12
                        a                      a                      a 
 Frequencies --   423.0067               444.5818               597.9330
 Red. masses --    10.9484                10.2568                11.3412
 Frc consts  --     0.0000                 0.0000                 0.0000
 IR Inten    --    11.2479                 5.6806                11.3645
 Raman Activ --     0.0000                 0.0000                 0.0000
 Depolar     --     0.0000                 0.0000                 0.0000
 Atom AN      X      Y      Z        X      Y      Z        X      Y      Z
   1   6     0.08   0.13   0.05    -0.03  -0.08  -0.00    -0.03  -0.04  -0.01
   2   6    -0.25  -0.12   0.29     0.08   0.02  -0.09    -0.15  -0.09   0.08
   3   6     0.03  -0.34   0.09     0.03   0.14   0.15    -0.36   0.26   0.22
   4   6    -0.03  -0.08  -0.28    -0.16  -0.01  -0.09    -0.03   0.38   0.11
   5   8     0.46  -0.02  -0.17     0.22  -0.14  -0.00     0.31  -0.32  -0.01
   6   8    -0.03   0.30   0.01    -0.46  -0.27  -0.06     0.04   0.04  -0.33
   7   6    -0.17   0.09  -0.02    -0.10   0.37   0.11     0.20  -0.16  -0.11
   8   6    -0.10  -0.02  -0.01     0.30   0.04  -0.05     0.04   0.00   0.02
   9   1     0.09   0.15   0.04    -0.03  -0.06  -0.01     0.02   0.00   0.03
  10   1     0.05  -0.03  -0.13    -0.01  -0.01   0.06    -0.02  -0.02  -0.05
  11   1     0.04   0.08   0.03    -0.03  -0.05  -0.01     0.02  -0.00  -0.02
  12   1    -0.17  -0.06   0.14     0.06   0.00  -0.06     0.03  -0.01  -0.03
  13   1    -0.09   0.05   0.00     0.03  -0.04   0.01    -0.06  -0.13   0.07
  14   1     0.15  -0.17   0.03     0.11  -0.11   0.11    -0.18   0.07   0.09
  15   1    -0.06  -0.03   0.15    -0.00   0.16   0.18    -0.15   0.05   0.07
  16   1    -0.07   0.01  -0.03     0.00   0.09  -0.01     0.00   0.02   0.10
  17   1    -0.07   0.05  -0.01    -0.00   0.13   0.02     0.12  -0.16  -0.01
  18   1    -0.03  -0.01   0.00     0.22   0.03  -0.03    -0.04  -0.03   0.01
  19   1    -0.04  -0.02   0.00    -0.02  -0.19  -0.07     0.06   0.09   0.02
  20   1    -0.01   0.00   0.00     0.24   0.03  -0.04    -0.04   0.01   0.03
                     13                     14                     15
                        a                      a                      a 
 Frequencies --   675.1977               797.3347               827.1063
 Red. masses --     9.8184                 5.0201                 3.3480
 Frc consts  --     0.0000                 0.0000                 0.0000
 IR Inten    --    20.7286                14.9697                22.2671
 Raman Activ --     0.0000                 0.0000                 0.0000
 Depolar     --     0.0000                 0.0000                 0.0000
 Atom AN      X      Y      Z        X      Y      Z        X      Y      Z
   1   6    -0.03  -0.01  -0.01     0.05   0.00  -0.02    -0.08   0.04   0.03
   2   6    -0.03  -0.14   0.08     0.19  -0.01  -0.06    -0.23   0.08   0.02
   3   6     0.19  -0.17   0.03     0.11  -0.08   0.05     0.06  -0.09  -0.11
   4   6     0.45   0.50   0.18    -0.15  -0.12   0.09     0.20   0.06   0.06
   5   8    -0.12  -0.10  -0.21     0.03  -0.08   0.24    -0.07   0.01  -0.04
   6   8    -0.16  -0.20  -0.04     0.03   0.13  -0.22     0.05  -0.08   0.03
   7   6    -0.13   0.12   0.07    -0.11   0.17  -0.17    -0.11   0.14  -0.08
   8   6    -0.01   0.02   0.00    -0.06   0.01  -0.05    -0.08   0.02  -0.05
   9   1    -0.02   0.03  -0.04    -0.12  -0.06  -0.15     0.20   0.10   0.28
  10   1    -0.02  -0.01  -0.06    -0.03   0.06   0.08     0.09  -0.09  -0.07
  11   1    -0.01   0.06   0.05    -0.04   0.07   0.11     0.05  -0.16  -0.22
  12   1    -0.20  -0.06   0.17    -0.12   0.03   0.16     0.17  -0.09  -0.30
  13   1    -0.04   0.14  -0.14    -0.04   0.11  -0.22     0.12  -0.10   0.36
  14   1    -0.16   0.11  -0.02    -0.01   0.08  -0.04     0.02  -0.09   0.01
  15   1    -0.00  -0.21  -0.12     0.01  -0.11  -0.07     0.11   0.06  -0.02
  16   1    -0.01   0.02  -0.02     0.03   0.26   0.33     0.10   0.18   0.19
  17   1    -0.02   0.07   0.01    -0.01  -0.37   0.03    -0.07  -0.22   0.03
  18   1     0.07   0.02  -0.01    -0.14  -0.24   0.05    -0.10  -0.19   0.03
  19   1    -0.05  -0.09  -0.03    -0.03  -0.09   0.07    -0.05  -0.11   0.05
  20   1     0.06   0.01  -0.02     0.21   0.14   0.16     0.19   0.12   0.12
                     16                     17                     18
                        a                      a                      a 
 Frequencies --   874.7914               903.0097               929.7479
 Red. masses --     7.7655                 8.5286                 6.3459
 Frc consts  --     0.0000                 0.0000                 0.0000
 IR Inten    --     8.1203                12.2567                 1.8677
 Raman Activ --     0.0000                 0.0000                 0.0000
 Depolar     --     0.0000                 0.0000                 0.0000
 Atom AN      X      Y      Z        X      Y      Z        X      Y      Z
   1   6     0.05  -0.03   0.08     0.12   0.17   0.24     0.03   0.22  -0.02
   2   6     0.02  -0.08   0.00     0.07   0.05  -0.22     0.09   0.10  -0.13
   3   6    -0.15   0.05  -0.19    -0.13  -0.35  -0.35     0.06  -0.27   0.15
   4   6     0.04   0.15  -0.08    -0.04   0.21   0.21    -0.11   0.09  -0.02
   5   8    -0.04   0.08  -0.19    -0.06  -0.14   0.22     0.03  -0.03   0.00
   6   8    -0.19  -0.13   0.44    -0.01   0.05  -0.22    -0.33   0.11   0.09
   7   6     0.15  -0.15  -0.16    -0.00   0.01   0.01     0.08  -0.16  -0.10
   8   6     0.16   0.06  -0.10    -0.01  -0.02   0.05     0.24   0.04  -0.04
   9   1    -0.05   0.03  -0.09     0.03   0.05   0.06     0.04  -0.07   0.12
  10   1    -0.06   0.01  -0.08     0.03   0.05   0.07     0.14   0.07   0.32
  11   1     0.04   0.15   0.16     0.04   0.07   0.08    -0.09  -0.24  -0.21
  12   1     0.00   0.11   0.13     0.06   0.09  -0.02    -0.12  -0.20  -0.14
  13   1    -0.05   0.02  -0.11     0.07   0.10  -0.04     0.09   0.10   0.02
  14   1     0.05  -0.22   0.06    -0.02  -0.44   0.11    -0.03   0.09  -0.05
  15   1    -0.07   0.18   0.15     0.06   0.17   0.11    -0.13  -0.25  -0.02
  16   1     0.19   0.03   0.04    -0.12  -0.02   0.00    -0.04  -0.05  -0.02
  17   1    -0.16  -0.17   0.00     0.10   0.04  -0.01    -0.07  -0.04  -0.01
  18   1    -0.20  -0.18   0.03     0.07   0.09  -0.01    -0.10  -0.01   0.01
  19   1     0.15   0.14   0.13    -0.02   0.01  -0.04     0.19   0.23   0.08
  20   1     0.10   0.12   0.13    -0.08  -0.06  -0.06    -0.07   0.01   0.03
                     19                     20                     21
                        a                      a                      a 
 Frequencies --   956.8561              1039.8118              1074.1255
 Red. masses --     7.9979                 6.2580                 8.7936
 Frc consts  --     0.0000                 0.0000                 0.0000
 IR Inten    --     2.7033                16.0191               104.2986
 Raman Activ --     0.0000                 0.0000                 0.0000
 Depolar     --     0.0000                 0.0000                 0.0000
 Atom AN      X      Y      Z        X      Y      Z        X      Y      Z
   1   6    -0.18  -0.24  -0.10     0.14   0.03   0.15     0.01   0.00   0.24
   2   6    -0.01  -0.06   0.19    -0.20  -0.02  -0.12    -0.06  -0.06  -0.24
   3   6     0.35   0.09  -0.17     0.01  -0.00   0.13     0.13  -0.01   0.16
   4   6    -0.12   0.05   0.12     0.20  -0.19  -0.00     0.02  -0.15  -0.03
   5   8    -0.05  -0.08   0.22     0.02   0.03  -0.06     0.04   0.02  -0.04
   6   8    -0.28   0.18  -0.11     0.01   0.00  -0.12    -0.37   0.23   0.05
   7   6    -0.00  -0.10  -0.09    -0.39  -0.03   0.02     0.44   0.03  -0.06
   8   6     0.22   0.02   0.01     0.31   0.10  -0.00    -0.20  -0.12  -0.04
   9   1     0.08   0.11   0.04    -0.06  -0.02  -0.08     0.06   0.11   0.07
  10   1    -0.07  -0.16  -0.36    -0.03   0.07   0.06    -0.02  -0.03  -0.12
  11   1     0.08   0.06  -0.02     0.01   0.11   0.16     0.08   0.12   0.11
  12   1     0.02   0.01   0.06     0.12   0.10  -0.07     0.03   0.02  -0.07
  13   1     0.09   0.12   0.10    -0.14  -0.27   0.00     0.00  -0.03  -0.03
  14   1     0.19   0.04  -0.08    -0.23   0.01   0.09    -0.34   0.02   0.13
  15   1     0.17   0.06  -0.07     0.28   0.03  -0.16     0.25  -0.04  -0.18
  16   1    -0.17  -0.03   0.02    -0.22  -0.02   0.03     0.13   0.02  -0.01
  17   1     0.01  -0.03  -0.02    -0.15  -0.04   0.01     0.11   0.06  -0.02
  18   1    -0.03   0.05  -0.00    -0.06   0.04   0.01    -0.02  -0.06  -0.01
  19   1     0.16   0.21   0.04     0.20   0.24   0.07    -0.09  -0.11  -0.03
  20   1    -0.11  -0.03  -0.01    -0.06   0.03   0.04     0.00  -0.03  -0.02
                     22                     23                     24
                        a                      a                      a 
 Frequencies --  1079.7976              1096.3878              1118.4060
 Red. masses --     5.6059                 7.5773                 8.4969
 Frc consts  --     0.0000                 0.0000                 0.0000
 IR Inten    --    32.1391                27.3382                37.8313
 Raman Activ --     0.0000                 0.0000                 0.0000
 Depolar     --     0.0000                 0.0000                 0.0000
 Atom AN      X      Y      Z        X      Y      Z        X      Y      Z
   1   6    -0.20  -0.05   0.15     0.03   0.02   0.02    -0.03  -0.21  -0.29
   2   6     0.27   0.03  -0.21    -0.04  -0.03  -0.01     0.13   0.50   0.19
   3   6    -0.09   0.05   0.14     0.04  -0.01  -0.01    -0.18  -0.36   0.18
   4   6    -0.11  -0.10  -0.10    -0.00  -0.01   0.01     0.13  -0.03   0.01
   5   8     0.05   0.04  -0.06     0.00   0.00   0.02     0.02  -0.00  -0.05
   6   8     0.22  -0.10  -0.00    -0.08   0.14   0.05    -0.12   0.06  -0.02
   7   6    -0.24  -0.07   0.06    -0.10  -0.50  -0.23     0.06  -0.03  -0.00
   8   6     0.11   0.10   0.01     0.03   0.44   0.20    -0.02   0.02  -0.01
   9   1     0.16   0.20   0.21    -0.01  -0.01  -0.01    -0.08  -0.07  -0.18
  10   1     0.00  -0.15  -0.29     0.00   0.01   0.03    -0.07  -0.01  -0.09
  11   1     0.11   0.04  -0.06    -0.00   0.00   0.01    -0.02   0.02  -0.01
  12   1    -0.07  -0.01   0.05    -0.00  -0.01  -0.02     0.27   0.34   0.06
  13   1     0.20   0.34  -0.06    -0.02  -0.04   0.00     0.08   0.06   0.17
  14   1    -0.35  -0.04   0.16     0.02   0.01  -0.01    -0.14  -0.07   0.06
  15   1    -0.16  -0.09   0.04     0.05   0.01  -0.03     0.02  -0.09  -0.00
  16   1    -0.01  -0.04  -0.03     0.01  -0.11  -0.04     0.01  -0.02  -0.01
  17   1    -0.09  -0.02   0.01     0.02  -0.11  -0.07    -0.02   0.02  -0.00
  18   1     0.01   0.02   0.01     0.34   0.12   0.03    -0.00  -0.02   0.00
  19   1     0.03   0.03   0.02    -0.20  -0.27  -0.09    -0.01  -0.02   0.00
  20   1     0.04   0.04   0.03     0.32   0.13  -0.02     0.03   0.02   0.01
                     25                     26                     27
                        a                      a                      a 
 Frequencies --  1152.3537              1184.4769              1205.7032
 Red. masses --     6.5039                 5.5593                 8.5962
 Frc consts  --     0.0000                 0.0000                 0.0000
 IR Inten    --    31.7648                41.4382               334.1351
 Raman Activ --     0.0000                 0.0000                 0.0000
 Depolar     --     0.0000                 0.0000                 0.0000
 Atom AN      X      Y      Z        X      Y      Z        X      Y      Z
   1   6    -0.03   0.01  -0.02    -0.06   0.16  -0.25     0.09  -0.02  -0.07
   2   6     0.06   0.01   0.02     0.12  -0.21   0.37    -0.12  -0.00   0.09
   3   6    -0.09   0.05   0.01    -0.02   0.18  -0.18     0.23  -0.09   0.00
   4   6     0.20  -0.15  -0.00     0.10  -0.17   0.01    -0.53   0.32  -0.13
   5   8    -0.02   0.06  -0.10    -0.00   0.02  -0.00     0.08   0.00  -0.07
   6   8    -0.07  -0.06   0.24    -0.07   0.08  -0.06     0.20  -0.16   0.16
   7   6    -0.02   0.19  -0.44     0.03  -0.02   0.04    -0.09   0.05  -0.09
   8   6     0.04  -0.13   0.26    -0.01   0.02  -0.04     0.02  -0.08   0.13
   9   1     0.01   0.01   0.02    -0.01  -0.11   0.04    -0.05  -0.07  -0.09
  10   1     0.01  -0.01  -0.00     0.10   0.03   0.19    -0.01   0.04   0.06
  11   1    -0.00  -0.02  -0.03    -0.11  -0.21  -0.22    -0.04   0.01   0.05
  12   1    -0.03  -0.01   0.03    -0.08  -0.03   0.22     0.06   0.03  -0.03
  13   1     0.01   0.02  -0.01     0.03   0.12  -0.01     0.06   0.06   0.11
  14   1    -0.05  -0.02   0.03    -0.39  -0.23   0.23    -0.22  -0.05   0.09
  15   1    -0.11   0.01   0.07     0.22   0.21  -0.06     0.28  -0.03  -0.19
  16   1    -0.23   0.21   0.25    -0.03  -0.03  -0.02     0.25   0.07   0.01
  17   1     0.21  -0.26  -0.07    -0.01   0.04   0.00    -0.03  -0.12  -0.00
  18   1     0.19   0.26  -0.01    -0.03  -0.04   0.00     0.08   0.13  -0.00
  19   1    -0.01   0.06  -0.12     0.00  -0.01   0.02    -0.00   0.03  -0.05
  20   1    -0.22  -0.19  -0.14     0.03   0.03   0.02    -0.10  -0.09  -0.05
                     28                     29                     30
                        a                      a                      a 
 Frequencies --  1244.5466              1257.2244              1302.6219
 Red. masses --     3.3009                 3.8356                 4.2943
 Frc consts  --     0.0000                 0.0000                 0.0000
 IR Inten    --     1.2516                61.9675                 6.9157
 Raman Activ --     0.0000                 0.0000                 0.0000
 Depolar     --     0.0000                 0.0000                 0.0000
 Atom AN      X      Y      Z        X      Y      Z        X      Y      Z
   1   6     0.26  -0.16  -0.02     0.07  -0.05   0.01    -0.04   0.03   0.01
   2   6    -0.21   0.10   0.05    -0.03   0.04   0.01    -0.09   0.09   0.05
   3   6     0.09   0.12  -0.11    -0.06   0.07  -0.05     0.46   0.07  -0.20
   4   6     0.03  -0.08  -0.01     0.19  -0.14   0.06    -0.03  -0.03  -0.03
   5   8    -0.01   0.01   0.01    -0.03  -0.02   0.08    -0.03  -0.02   0.11
   6   8     0.01  -0.01   0.04    -0.10   0.15  -0.23    -0.02   0.04  -0.03
   7   6     0.02  -0.01   0.03    -0.03   0.01  -0.03    -0.03  -0.01   0.01
   8   6    -0.02   0.05  -0.09     0.04  -0.10   0.19     0.00  -0.01  -0.00
   9   1    -0.13  -0.09  -0.25    -0.04  -0.02  -0.07    -0.00   0.00   0.02
  10   1    -0.09   0.08   0.02    -0.03   0.02  -0.01    -0.00  -0.01  -0.03
  11   1    -0.01   0.12   0.22     0.00   0.04   0.06    -0.01  -0.04  -0.05
  12   1    -0.19  -0.34  -0.25    -0.11  -0.16  -0.08     0.14   0.17   0.02
  13   1     0.23   0.28   0.29     0.08   0.10   0.08    -0.21  -0.33  -0.07
  14   1    -0.19  -0.07   0.09    -0.00  -0.02   0.01    -0.28  -0.14   0.15
  15   1    -0.19  -0.02   0.09    -0.10   0.03   0.07    -0.51  -0.24   0.20
  16   1    -0.23  -0.04   0.02     0.56   0.08  -0.05     0.09   0.00  -0.02
  17   1     0.18   0.05  -0.02    -0.52  -0.06   0.05     0.04   0.00  -0.00
  18   1    -0.05  -0.08  -0.00     0.11   0.16   0.00     0.00   0.01  -0.00
  19   1    -0.00  -0.02   0.03     0.01   0.05  -0.06     0.01   0.01   0.00
  20   1     0.06   0.06   0.04    -0.12  -0.12  -0.07    -0.00   0.00   0.01
                     31                     32                     33
                        a                      a                      a 
 Frequencies --  1315.7300              1333.0061              1394.2300
 Red. masses --     3.4378                 4.5525                 3.1115
 Frc consts  --     0.0000                 0.0000                 0.0000
 IR Inten    --     4.6151                 8.3036                 5.6477
 Raman Activ --     0.0000                 0.0000                 0.0000
 Depolar     --     0.0000                 0.0000                 0.0000
 Atom AN      X      Y      Z        X      Y      Z        X      Y      Z
   1   6     0.01   0.01  -0.01     0.06   0.08  -0.09    -0.00  -0.00  -0.00
   2   6    -0.05  -0.04  -0.01    -0.30  -0.39  -0.19    -0.00  -0.00  -0.00
   3   6     0.08   0.02  -0.01     0.06   0.06   0.07    -0.01  -0.00   0.00
   4   6    -0.09   0.04  -0.01     0.07  -0.06   0.01     0.03  -0.01   0.00
   5   8     0.01   0.00  -0.02    -0.01   0.00   0.02    -0.01  -0.00   0.01
   6   8     0.07  -0.11  -0.03    -0.03   0.03  -0.02    -0.03   0.03   0.01
   7   6     0.38   0.08  -0.02    -0.04  -0.01   0.00    -0.07   0.03   0.02
   8   6    -0.03   0.11   0.09     0.00  -0.02  -0.01     0.34   0.24   0.07
   9   1     0.00  -0.01   0.00     0.04  -0.03   0.06     0.00   0.00   0.00
  10   1     0.00   0.01   0.02     0.04   0.07   0.19     0.00   0.00   0.01
  11   1    -0.01  -0.00   0.00    -0.05   0.03   0.05     0.00   0.00   0.00
  12   1     0.06   0.07   0.02     0.31   0.44   0.17     0.00   0.00   0.00
  13   1     0.01   0.02   0.01     0.26   0.38   0.17     0.00   0.00   0.00
  14   1    -0.03  -0.01   0.02     0.07   0.12  -0.06     0.00   0.01  -0.01
  15   1    -0.05  -0.05   0.01    -0.15  -0.06   0.08    -0.00   0.01   0.01
  16   1    -0.51  -0.06   0.06     0.07   0.01   0.00     0.09  -0.06  -0.15
  17   1    -0.66  -0.08   0.08     0.06   0.02  -0.01     0.13  -0.14   0.01
  18   1     0.00  -0.05   0.03     0.01   0.01  -0.00    -0.43  -0.24   0.09
  19   1    -0.11  -0.14  -0.05     0.02   0.02   0.01    -0.22  -0.41  -0.19
  20   1    -0.04  -0.04  -0.08     0.01   0.01   0.01    -0.43  -0.16  -0.14
                     34                     35                     36
                        a                      a                      a 
 Frequencies --  1414.4260              1430.3912              1434.6785
 Red. masses --     3.1493                 2.0106                 2.0802
 Frc consts  --     0.0000                 0.0000                 0.0000
 IR Inten    --     1.5679                 3.7869                 7.0852
 Raman Activ --     0.0000                 0.0000                 0.0000
 Depolar     --     0.0000                 0.0000                 0.0000
 Atom AN      X      Y      Z        X      Y      Z        X      Y      Z
   1   6    -0.15  -0.22  -0.33     0.00   0.00   0.01     0.00   0.03   0.06
   2   6     0.05   0.07   0.01    -0.00  -0.01  -0.00    -0.00  -0.01   0.02
   3   6     0.03  -0.04  -0.04     0.00  -0.03  -0.01     0.10  -0.27  -0.08
   4   6    -0.01   0.00  -0.01     0.03  -0.01  -0.03    -0.03   0.01  -0.03
   5   8    -0.00  -0.00   0.01    -0.01  -0.01   0.04    -0.01  -0.01   0.02
   6   8     0.01  -0.00  -0.00    -0.04   0.03   0.00     0.01  -0.01   0.01
   7   6     0.00  -0.00   0.00     0.03   0.25   0.10     0.01  -0.03  -0.01
   8   6    -0.00  -0.00   0.00    -0.09  -0.05  -0.00     0.00   0.00   0.00
   9   1     0.32   0.22   0.31    -0.01  -0.00  -0.01    -0.05  -0.03  -0.05
  10   1     0.07   0.09   0.49     0.00  -0.00  -0.00     0.02  -0.03  -0.06
  11   1     0.11   0.41   0.29     0.00  -0.01  -0.01     0.02  -0.04  -0.05
  12   1    -0.10  -0.06   0.03    -0.00   0.00   0.01     0.04  -0.01  -0.05
  13   1    -0.03  -0.12   0.03     0.01   0.00   0.01    -0.03   0.01  -0.06
  14   1    -0.08   0.05  -0.02    -0.03   0.06  -0.03    -0.32   0.51  -0.22
  15   1     0.00   0.07   0.07     0.01   0.06   0.05     0.05   0.48   0.47
  16   1    -0.00  -0.00   0.00    -0.05  -0.31  -0.56    -0.01   0.03   0.06
  17   1    -0.01  -0.00   0.00     0.08  -0.65   0.11    -0.02   0.07  -0.01
  18   1     0.00   0.00  -0.00     0.11   0.06  -0.02    -0.01  -0.00   0.00
  19   1     0.00   0.00  -0.00     0.05   0.10   0.04    -0.01  -0.01  -0.01
  20   1     0.01   0.00   0.00     0.11   0.04   0.03    -0.00  -0.00  -0.00
                     37                     38                     39
                        a                      a                      a 
 Frequencies --  1470.8592              1477.1012              1485.1107
 Red. masses --     1.5090                 1.9395                 1.5713
 Frc consts  --     0.0000                 0.0000                 0.0000
 IR Inten    --     6.1465                 0.5711                 2.1448
 Raman Activ --     0.0000                 0.0000                 0.0000
 Depolar     --     0.0000                 0.0000                 0.0000
 Atom AN      X      Y      Z        X      Y      Z        X      Y      Z
   1   6     0.00  -0.00   0.00    -0.02  -0.04  -0.04     0.00   0.00  -0.00
   2   6    -0.00  -0.00   0.00    -0.05  -0.05   0.27    -0.00  -0.00   0.00
   3   6    -0.00   0.00   0.00    -0.02   0.02   0.02     0.00   0.00   0.00
   4   6    -0.00   0.00  -0.01     0.02  -0.02   0.01    -0.00  -0.00   0.00
   5   8    -0.00  -0.00   0.01     0.00   0.00  -0.01     0.00   0.00  -0.00
   6   8     0.00  -0.00  -0.00    -0.01   0.01  -0.00     0.01  -0.00  -0.00
   7   6     0.02  -0.02   0.04    -0.00   0.00   0.00    -0.05   0.01   0.02
   8   6     0.04  -0.13   0.16     0.00  -0.00  -0.00    -0.11   0.14   0.13
   9   1     0.00   0.00  -0.00     0.05   0.02   0.06     0.00  -0.00   0.00
  10   1    -0.00   0.00  -0.00    -0.00   0.01   0.05    -0.00   0.00   0.00
  11   1    -0.00  -0.00  -0.00    -0.01   0.05   0.06    -0.00   0.00   0.00
  12   1     0.00   0.00   0.00     0.44  -0.11  -0.50     0.01  -0.00  -0.01
  13   1     0.00   0.00  -0.00    -0.20   0.36  -0.52    -0.00   0.00  -0.01
  14   1     0.00  -0.01   0.00     0.02  -0.03   0.02    -0.00  -0.00   0.00
  15   1    -0.00  -0.01  -0.00    -0.01  -0.04  -0.03    -0.00  -0.00   0.00
  16   1    -0.03  -0.02  -0.01     0.00  -0.01  -0.01     0.03   0.01   0.00
  17   1     0.00   0.02   0.01     0.01  -0.01   0.00     0.04   0.02  -0.00
  18   1    -0.48   0.24  -0.01    -0.00   0.01  -0.00     0.13  -0.56   0.12
  19   1    -0.12   0.23  -0.64     0.00  -0.00   0.00     0.10   0.31  -0.06
  20   1     0.43   0.05  -0.02    -0.00   0.00   0.01     0.23  -0.30  -0.59
                     40                     41                     42
                        a                      a                      a 
 Frequencies --  1496.1215              1502.5811              1698.8410
 Red. masses --     1.5163                 1.5763                13.2950
 Frc consts  --     0.0000                 0.0000                 0.0000
 IR Inten    --     2.4594                 0.5026               683.3690
 Raman Activ --     0.0000                 0.0000                 0.0000
 Depolar     --     0.0000                 0.0000                 0.0000
 Atom AN      X      Y      Z        X      Y      Z        X      Y      Z
   1   6     0.18  -0.09  -0.03    -0.05  -0.16   0.14    -0.00   0.00  -0.00
   2   6     0.05  -0.01  -0.01    -0.02  -0.05   0.03     0.00   0.01  -0.01
   3   6    -0.00  -0.02  -0.00     0.01   0.01  -0.00     0.06  -0.02  -0.06
   4   6    -0.00  -0.00  -0.00    -0.01  -0.00   0.02    -0.25  -0.19   0.73
   5   8    -0.00  -0.00   0.00     0.01   0.00  -0.01     0.17   0.15  -0.54
   6   8    -0.00   0.00  -0.00     0.00  -0.00  -0.00    -0.01   0.03  -0.05
   7   6     0.00  -0.00  -0.00    -0.00  -0.00  -0.00    -0.01   0.00   0.02
   8   6     0.00   0.00  -0.00    -0.00   0.00   0.00     0.00  -0.00  -0.00
   9   1     0.24   0.30   0.14    -0.06   0.55  -0.43     0.00  -0.01   0.01
  10   1    -0.56   0.39  -0.10    -0.12   0.17   0.29     0.00  -0.00  -0.01
  11   1    -0.44  -0.31   0.09     0.39  -0.07  -0.41    -0.01   0.00   0.01
  12   1    -0.01   0.01   0.03     0.03   0.02   0.01     0.00   0.01   0.00
  13   1    -0.01  -0.03  -0.02     0.00   0.03  -0.01    -0.00  -0.02   0.00
  14   1    -0.01   0.03  -0.01     0.00  -0.01   0.01     0.03   0.00  -0.02
  15   1     0.01   0.03   0.02     0.00  -0.01  -0.01    -0.05   0.00   0.05
  16   1     0.00   0.00   0.00     0.00   0.00   0.00     0.02  -0.02  -0.03
  17   1    -0.00   0.00  -0.00    -0.00   0.00  -0.00     0.01  -0.03   0.01
  18   1     0.00   0.00  -0.00     0.00  -0.00   0.00    -0.00   0.00  -0.00
  19   1     0.00  -0.00   0.00     0.00   0.00   0.00     0.00   0.01   0.00
  20   1    -0.00   0.00   0.00    -0.00  -0.00  -0.00     0.01   0.01   0.01
                     43                     44                     45
                        a                      a                      a 
 Frequencies --  2945.0425              2986.6044              2988.1461
 Red. masses --     1.7199                 1.8347                 1.8614
 Frc consts  --     0.0000                 0.0000                 0.0000
 IR Inten    --    31.9573                22.3591                13.4037
 Raman Activ --     0.0000                 0.0000                 0.0000
 Depolar     --     0.0000                 0.0000                 0.0000
 Atom AN      X      Y      Z        X      Y      Z        X      Y      Z
   1   6     0.00  -0.00  -0.00    -0.03   0.02   0.00    -0.02   0.01   0.01
   2   6    -0.00   0.00  -0.00     0.20  -0.12  -0.03     0.13  -0.10   0.03
   3   6     0.00   0.00   0.00     0.02   0.08   0.10    -0.06  -0.08  -0.20
   4   6    -0.00   0.00  -0.00    -0.00   0.00   0.01    -0.00  -0.00  -0.01
   5   8    -0.00  -0.00   0.00     0.00   0.00  -0.00    -0.00  -0.00   0.00
   6   8     0.01  -0.00  -0.01     0.00   0.00  -0.00     0.00   0.00   0.00
   7   6    -0.03  -0.04  -0.25     0.00  -0.01   0.00    -0.00   0.00  -0.00
   8   6    -0.00  -0.00   0.01     0.00  -0.00  -0.00    -0.00   0.00   0.00
   9   1    -0.00   0.00   0.00     0.09  -0.04  -0.06     0.07  -0.03  -0.05
  10   1    -0.00  -0.00   0.00     0.00   0.01  -0.00    -0.00   0.01  -0.00
  11   1    -0.00   0.00  -0.00     0.04  -0.05   0.05     0.03  -0.03   0.03
  12   1     0.00  -0.00   0.00    -0.18   0.23  -0.24    -0.24   0.28  -0.27
  13   1     0.00  -0.00  -0.00    -0.54   0.22   0.35    -0.22   0.09   0.16
  14   1    -0.00  -0.00  -0.00    -0.13  -0.25  -0.45     0.19   0.37   0.65
  15   1    -0.00   0.00  -0.00     0.07  -0.07   0.10     0.05  -0.09   0.05
  16   1    -0.01  -0.00  -0.03    -0.00   0.02  -0.01     0.00  -0.02   0.01
  17   1     0.09   0.16   0.95     0.00  -0.00  -0.00     0.00   0.00   0.01
  18   1    -0.00  -0.01  -0.05     0.00   0.00   0.00    -0.00  -0.00  -0.00
  19   1     0.01  -0.01  -0.00    -0.00   0.00   0.00     0.00  -0.00  -0.00
  20   1    -0.00   0.01  -0.00    -0.00  -0.00   0.00    -0.00   0.00  -0.00
                     46                     47                     48
                        a                      a                      a 
 Frequencies --  2990.4854              2999.0026              3009.8913
 Red. masses --     1.7387                 1.4821                 1.7711
 Frc consts  --     0.0000                 0.0000                 0.0000
 IR Inten    --    15.4793                30.9604                40.5873
 Raman Activ --     0.0000                 0.0000                 0.0000
 Depolar     --     0.0000                 0.0000                 0.0000
 Atom AN      X      Y      Z        X      Y      Z        X      Y      Z
   1   6     0.00   0.00  -0.00     0.02   0.02  -0.02     0.01  -0.02   0.01
   2   6    -0.00   0.00   0.00    -0.03  -0.06   0.18    -0.04   0.05  -0.05
   3   6    -0.00  -0.00  -0.01    -0.02   0.06   0.02    -0.13   0.15  -0.16
   4   6    -0.00  -0.00  -0.00     0.00   0.00  -0.00    -0.00   0.01  -0.01
   5   8    -0.00   0.00  -0.00    -0.00  -0.00   0.00    -0.00  -0.00   0.00
   6   8     0.01  -0.01   0.00    -0.00   0.00  -0.00    -0.00  -0.00   0.00
   7   6     0.04  -0.22   0.13    -0.00   0.00  -0.00    -0.00   0.00  -0.00
   8   6    -0.01   0.02  -0.02     0.00  -0.00   0.00    -0.00   0.00   0.00
   9   1    -0.00   0.00   0.00    -0.05   0.03   0.03    -0.01   0.00   0.01
  10   1    -0.00  -0.00   0.00    -0.04  -0.06   0.02     0.03   0.03  -0.01
  11   1     0.00  -0.00   0.00     0.03  -0.03   0.03    -0.05   0.05  -0.05
  12   1    -0.01   0.01  -0.01    -0.38   0.43  -0.39     0.14  -0.17   0.15
  13   1     0.02  -0.01  -0.01     0.49  -0.21  -0.28    -0.01   0.01  -0.00
  14   1     0.01   0.01   0.02    -0.06  -0.10  -0.19    -0.01   0.03  -0.00
  15   1     0.00  -0.01   0.01     0.11  -0.13   0.14     0.46  -0.56   0.57
  16   1    -0.15   0.82  -0.48     0.00  -0.02   0.01     0.00  -0.01   0.00
  17   1     0.00  -0.03   0.02     0.00   0.00   0.00     0.00   0.00   0.00
  18   1    -0.00   0.01   0.02     0.00   0.00   0.00     0.00  -0.00  -0.00
  19   1     0.02  -0.01  -0.01    -0.00   0.00   0.00    -0.00   0.00   0.00
  20   1     0.02  -0.10   0.06    -0.00   0.01  -0.00     0.00  -0.00   0.00
                     49                     50                     51
                        a                      a                      a 
 Frequencies --  3020.8202              3036.0363              3038.9777
 Red. masses --     1.8829                 1.8214                 1.7958
 Frc consts  --     0.0000                 0.0000                 0.0000
 IR Inten    --    96.2215                70.5205                40.3271
 Raman Activ --     0.0000                 0.0000                 0.0000
 Depolar     --     0.0000                 0.0000                 0.0000
 Atom AN      X      Y      Z        X      Y      Z        X      Y      Z
   1   6     0.24  -0.10  -0.09    -0.02   0.19  -0.19     0.00   0.00  -0.00
   2   6     0.05  -0.03  -0.01    -0.01   0.02  -0.03     0.00  -0.00   0.00
   3   6     0.00  -0.01  -0.00    -0.01   0.01  -0.01     0.00   0.00   0.00
   4   6    -0.00  -0.00   0.00    -0.00   0.00  -0.00     0.00   0.00  -0.00
   5   8     0.00   0.00  -0.00     0.00  -0.00   0.00    -0.00  -0.00   0.00
   6   8     0.00   0.00   0.00    -0.00  -0.00   0.00    -0.00   0.00  -0.00
   7   6     0.00   0.00   0.00     0.00  -0.00   0.00    -0.01   0.03  -0.03
   8   6     0.00  -0.00  -0.00     0.00  -0.00   0.00    -0.05   0.21  -0.16
   9   1    -0.71   0.30   0.47    -0.18   0.11   0.09    -0.00   0.00   0.00
  10   1    -0.03  -0.10   0.02    -0.22  -0.26   0.08    -0.01  -0.01   0.00
  11   1    -0.11   0.16  -0.18     0.47  -0.52   0.49     0.01  -0.01   0.01
  12   1    -0.03   0.04  -0.04     0.06  -0.08   0.07    -0.00   0.00  -0.00
  13   1    -0.13   0.05   0.08    -0.02   0.01   0.01     0.00  -0.00  -0.00
  14   1     0.01   0.01   0.02     0.01   0.01   0.02    -0.00  -0.00  -0.00
  15   1    -0.01   0.01  -0.01     0.03  -0.04   0.04    -0.00   0.00  -0.00
  16   1     0.00  -0.00   0.00     0.00  -0.00   0.00     0.02  -0.10   0.06
  17   1    -0.00  -0.00  -0.00    -0.00   0.00  -0.00     0.00   0.01   0.02
  18   1     0.00   0.00   0.01     0.00  -0.00   0.00    -0.00   0.05   0.10
  19   1    -0.00   0.00  -0.00    -0.00   0.00   0.00     0.01   0.02  -0.03
  20   1    -0.00   0.00  -0.00    -0.00   0.01  -0.01     0.17  -0.80   0.48
                     52                     53                     54
                        a                      a                      a 
 Frequencies --  3045.2439              3049.5654              3062.6975
 Red. masses --     1.4478                 1.6306                 1.7466
 Frc consts  --     0.0000                 0.0000                 0.0000
 IR Inten    --    39.1061                25.9507                23.1877
 Raman Activ --     0.0000                 0.0000                 0.0000
 Depolar     --     0.0000                 0.0000                 0.0000
 Atom AN      X      Y      Z        X      Y      Z        X      Y      Z
   1   6    -0.14  -0.15  -0.01    -0.00  -0.00  -0.00     0.00   0.00  -0.00
   2   6    -0.01  -0.00   0.01     0.00  -0.00   0.00     0.00  -0.00  -0.00
   3   6     0.00  -0.00   0.00     0.00   0.00   0.00     0.00   0.00   0.00
   4   6     0.00  -0.00  -0.00     0.00   0.00   0.00     0.00  -0.00   0.00
   5   8    -0.00   0.00   0.00     0.00   0.00  -0.00     0.00   0.00  -0.00
   6   8    -0.00   0.00  -0.00    -0.00  -0.00   0.00    -0.00  -0.00  -0.00
   7   6    -0.00  -0.00  -0.00     0.00   0.00   0.02    -0.01   0.01   0.00
   8   6    -0.00  -0.00  -0.01     0.02   0.07   0.23    -0.22   0.10   0.10
   9   1    -0.18   0.05   0.11    -0.01   0.00   0.01    -0.00   0.00   0.00
  10   1     0.50   0.69  -0.25     0.01   0.01  -0.00    -0.00  -0.00   0.00
  11   1     0.16  -0.23   0.20     0.00  -0.01   0.00     0.00  -0.00   0.00
  12   1    -0.01   0.01  -0.01    -0.00   0.00  -0.00    -0.00   0.00  -0.00
  13   1     0.03  -0.01  -0.02     0.00  -0.00  -0.00    -0.00   0.00   0.00
  14   1    -0.00  -0.00  -0.00    -0.00  -0.00  -0.00    -0.00  -0.00  -0.00
  15   1    -0.00   0.00  -0.00    -0.00   0.00  -0.00     0.00  -0.00   0.00
  16   1     0.00   0.00  -0.00    -0.00   0.01  -0.00     0.00  -0.02   0.01
  17   1     0.00   0.00   0.00    -0.00  -0.01  -0.05    -0.00  -0.00  -0.02
  18   1     0.00   0.00   0.02    -0.05  -0.18  -0.94    -0.03   0.00  -0.05
  19   1     0.00  -0.00  -0.00    -0.05   0.03   0.05     0.83  -0.38  -0.30
  20   1     0.00  -0.00   0.00     0.02  -0.10   0.10    -0.03   0.02   0.01
