      -----------------------------------------------------------      
     |                   =====================                   |     
     |                           x T B                           |     
     |                   =====================                   |     
     |                         S. Grimme                         |     
     |          Mulliken Center for Theoretical Chemistry        |     
     |                    University of Bonn                     |     
      -----------------------------------------------------------      

   * xtb version 6.7.1 (edcfbbe) compiled by 'albert@albert-system' on 2024-07-22

   xtb is free software: you can redistribute it and/or modify it under
   the terms of the GNU Lesser General Public License as published by
   the Free Software Foundation, either version 3 of the License, or
   (at your option) any later version.
   
   xtb is distributed in the hope that it will be useful,
   but WITHOUT ANY WARRANTY; without even the implied warranty of
   MERCHANTABILITY or FITNESS FOR A PARTICULAR PURPOSE.  See the
   GNU Lesser General Public License for more details.
   
   Cite this work as:
   * C. Bannwarth, E. Caldeweyher, S. Ehlert, A. Hansen, P. Pracht,
     J. Seibert, S. Spicher, S. Grimme, WIREs Comput. Mol. Sci., 2020, 11,
     e01493. DOI: 10.1002/wcms.1493
   
   for GFN2-xTB:
   * C. Bannwarth, S. Ehlert and S. Grimme., J. Chem. Theory Comput., 2019,
     15, 1652-1671. DOI: 10.1021/acs.jctc.8b01176
   for GFN1-xTB:
   * S. Grimme, C. Bannwarth, P. Shushkov, J. Chem. Theory Comput., 2017,
     13, 1989-2009. DOI: 10.1021/acs.jctc.7b00118
   for GFN0-xTB:
   * P. Pracht, E. Caldeweyher, S. Ehlert, S. Grimme, ChemRxiv, 2019, preprint.
     DOI: 10.26434/chemrxiv.8326202.v1
   for GFN-FF:
   * S. Spicher and S. Grimme, Angew. Chem. Int. Ed., 2020, 59, 15665-15673.
     DOI: 10.1002/anie.202004239
   
   for ALPB and GBSA implicit solvation:
   * S. Ehlert, M. Stahn, S. Spicher, S. Grimme, J. Chem. Theory Comput.,
     2021, 17, 4250-4261. DOI: 10.1021/acs.jctc.1c00471
   
   for ddCOSMO and CPCM-X implicit solvation:
   * M. Stahn, S. Ehlert, S. Grimme, J. Phys. Chem. A,
     2023, XX, XXXX-XXXX. DOI: 10.1021/acs.jpca.3c04382
   
   for DFT-D4:
   * E. Caldeweyher, C. Bannwarth and S. Grimme, J. Chem. Phys., 2017,
     147, 034112. DOI: 10.1063/1.4993215
   * E. Caldeweyher, S. Ehlert, A. Hansen, H. Neugebauer, S. Spicher,
     C. Bannwarth and S. Grimme, J. Chem. Phys., 2019, 150, 154122.
     DOI: 10.1063/1.5090222
   * E. Caldeweyher, J.-M. Mewes, S. Ehlert and S. Grimme, Phys. Chem. Chem. Phys.
     2020, 22, 8499-8512. DOI: 10.1039/D0CP00502A
   
   for sTDA-xTB:
   * S. Grimme and C. Bannwarth, J. Chem. Phys., 2016, 145, 054103.
     DOI: 10.1063/1.4959605
   
   in the mass-spec context:
   * V. Asgeirsson, C. Bauer and S. Grimme, Chem. Sci., 2017, 8, 4879.
     DOI: 10.1039/c7sc00601b
   * J. Koopman and S. Grimme, ACS Omega 2019, 4, 12, 15120-15133.
     DOI: 10.1021/acsomega.9b02011
   
   for metadynamics refer to:
   * S. Grimme, J. Chem. Theory Comput., 2019, 155, 2847-2862
     DOI: 10.1021/acs.jctc.9b00143
   
   for SPH calculations refer to:
   * S. Spicher and S. Grimme, J. Chem. Theory Comput., 2021, 17, 1701-1714
     DOI: 10.1021/acs.jctc.0c01306
   
   for ONIOM refer to:
   * C. Plett, A. Katbashev, S. Ehlert, S. Grimme, M. Bursch,
     Phys. Chem. Chem. Phys., 2023, 25, 17860-17868. DOI: 10.1039/D3CP02178E
   
   for DIPRO refer to:
   * J. Kohn, N. Gildemeister, S. Grimme, D. Fazzi, A. Hansen,
     J. Chem. Phys., 2023, just accepted.
   
   for PTB refer to:
   * S. Grimme, M. Mueller, A. Hansen, J. Chem. Phys., 2023, 158, 124111.
     DOI: 10.1063/5.0137838
   
   with help from (in alphabetical order)
   P. Atkinson, C. Bannwarth, F. Bohle, G. Brandenburg, E. Caldeweyher
   M. Checinski, S. Dohm, S. Ehlert, S. Ehrlich, I. Gerasimov, C. Hölzer
   A. Katbashev, J. Kohn, J. Koopman, C. Lavigne, S. Lehtola, F. März, M. Müller,
   F. Musil, H. Neugebauer, J. Pisarek, C. Plett, P. Pracht, F. Pultar,
   J. Seibert, P. Shushkov, S. Spicher, M. Stahn, M. Steiner, T. Strunk,
   J. Stückrath, T. Rose, and J. Unsleber
   
 * started run on 2025/04/11 at 16:44:05.155     
   ID    Z sym.   atoms
    1    6 C      1-4, 7, 8
    2    8 O      5, 6
    3    1 H      9-20

           -------------------------------------------------
          |                Calculation Setup                |
           -------------------------------------------------

          program call               : /srv/scratch/z5358697/.xtb/bin/xtb xtb_rrho.coord --gfn2 --bhess vtight --chrg 0 --enso --norestart -I rrho-xcontrol-inp --parallel 1 --alpb water
          hostname                   : k061
          coordinate file            : xtb_rrho.coord
          omp threads                :                     1


           -------------------------------------------------
          |                 G F N 2 - x T B                 |
           -------------------------------------------------

        Reference                      10.1021/acs.jctc.8b01176
      * Hamiltonian:
        H0-scaling (s, p, d)           1.850000    2.230000    2.230000
        zeta-weighting                 0.500000
      * Dispersion:
        s8                             2.700000
        a1                             0.520000
        a2                             5.000000
        s9                             5.000000
      * Repulsion:
        kExp                           1.500000    1.000000
        rExp                           1.000000
      * Coulomb:
        alpha                          2.000000
        third order                    shell-resolved
        anisotropic                    true
        a3                             3.000000
        a5                             4.000000
        cn-shift                       1.200000
        cn-exp                         4.000000
        max-rad                        5.000000

      * Solvation model:               ALPB
        Solvent                        water
        Parameter file                 internal GFN2-xTB/ALPB
        Dielectric constant                8.0200E+01
        Reference state                gsolv [1 M gas/solution]
        Free energy shift                  1.0808E-03 Eh       6.7819E-01 kcal/mol
        Temperature                        2.9815E+02 K
        Density                            1.0000E+00 kg/L
        Solvent mass                       1.8000E+01 g/mol
        Interaction kernel             P16
        Born radius scaling (c1)           1.4744E+00
        Born radii integrator          GBOBC
        Born offset                        0.0000E+00 a0       0.0000E+00 AA
        H-bond correction              true
        Ion screening                  false
        Surface tension                    1.0000E-05 Eh       1.5569E+01 dyn/cm
        Grid points                               974 per atom

          ...................................................
          :                      SETUP                      :
          :.................................................:
          :  # basis functions                  44          :
          :  # atomic orbitals                  44          :
          :  # shells                           28          :
          :  # electrons                        48          :
          :  max. iterations                   250          :
          :  Hamiltonian                  GFN2-xTB          :
          :  restarted?                      false          :
          :  GBSA solvation                   true          :
          :  PC potential                    false          :
          :  electronic temp.          300.0000000     K    :
          :  accuracy                    1.0000000          :
          :  -> integral cutoff          0.2500000E+02      :
          :  -> integral neglect         0.1000000E-07      :
          :  -> SCF convergence          0.1000000E-05 Eh   :
          :  -> wf. convergence          0.1000000E-03 e    :
          :  Broyden damping             0.4000000          :
          :  net charge                          0          :
          :  unpaired electrons                  0          :
          ...................................................

 iter      E             dE          RMSdq      gap      omega  full diag
   1    -27.3571716 -0.273572E+02  0.389E+00    5.56       0.0  T
   2    -27.4200841 -0.629125E-01  0.193E+00    4.63       1.0  T
   3    -27.4221476 -0.206351E-02  0.102E+00    4.97       1.0  T
   4    -27.4237615 -0.161382E-02  0.160E-01    4.73       1.0  T
   5    -27.4239749 -0.213416E-03  0.683E-02    4.78       1.0  T
   6    -27.4239768 -0.186990E-05  0.242E-02    4.77       1.0  T
   7    -27.4239777 -0.981941E-06  0.425E-03    4.78       5.3  T
   8    -27.4239778 -0.306632E-07  0.247E-03    4.78       9.1  T
   9    -27.4239778 -0.120818E-07  0.425E-04    4.78      52.7  T
  10    -27.4239778 -0.434760E-09  0.239E-04    4.78      93.7  T

   *** convergence criteria satisfied after 10 iterations ***

         #    Occupation            Energy/Eh            Energy/eV
      -------------------------------------------------------------
         1        2.0000           -0.7437686             -20.2390
       ...           ...                  ...                  ...
        18        2.0000           -0.4662238             -12.6866
        19        2.0000           -0.4561237             -12.4118
        20        2.0000           -0.4508379             -12.2679
        21        2.0000           -0.4476064             -12.1800
        22        2.0000           -0.4445755             -12.0975
        23        2.0000           -0.4351504             -11.8410
        24        2.0000           -0.4192450             -11.4082 (HOMO)
        25                         -0.2437357              -6.6324 (LUMO)
        26                         -0.0247293              -0.6729
        27                          0.0859944               2.3400
        28                          0.1043822               2.8404
        29                          0.1159856               3.1561
       ...                                ...                  ...
        44                          0.5835370              15.8788
      -------------------------------------------------------------
                  HL-Gap            0.1755093 Eh            4.7759 eV
             Fermi-level           -0.3314903 Eh           -9.0203 eV

 SCC (total)                   0 d,  0 h,  0 min,  0.021 sec
 SCC setup                      ...        0 min,  0.002 sec (  9.453%)
 Dispersion                     ...        0 min,  0.000 sec (  0.552%)
 classical contributions        ...        0 min,  0.000 sec (  0.117%)
 integral evaluation            ...        0 min,  0.002 sec (  7.868%)
 iterations                     ...        0 min,  0.013 sec ( 59.493%)
 molecular gradient             ...        0 min,  0.005 sec ( 21.794%)
 printout                       ...        0 min,  0.000 sec (  0.632%)

         :::::::::::::::::::::::::::::::::::::::::::::::::::::
         ::                     SUMMARY                     ::
         :::::::::::::::::::::::::::::::::::::::::::::::::::::
         :: total energy             -27.121112163460 Eh    ::
         :: total w/o Gsasa/hb       -27.121051716102 Eh    ::
         :: gradient norm              0.034783501564 Eh/a0 ::
         :: HOMO-LUMO gap              4.775850333591 eV    ::
         ::.................................................::
         :: SCC energy               -27.423942316189 Eh    ::
         :: -> isotropic ES            0.059382068444 Eh    ::
         :: -> anisotropic ES          0.001493352860 Eh    ::
         :: -> anisotropic XC          0.008816386407 Eh    ::
         :: -> dispersion             -0.011940353134 Eh    ::
         :: -> Gsolv                  -0.009171980913 Eh    ::
         ::    -> Gelec               -0.009111533555 Eh    ::
         ::    -> Gsasa                0.001067064893 Eh    ::
         ::    -> Ghb                 -0.002208271949 Eh    ::
         ::    -> Gshift               0.001080759698 Eh    ::
         :: repulsion energy           0.302830152729 Eh    ::
         :: add. restraining           0.000000000000 Eh    ::
         :: total charge               0.000000000000 e     ::
         :::::::::::::::::::::::::::::::::::::::::::::::::::::

metadynamics with 1 initial structures loaded
           -------------------------------------------------
          |           Optimal kpush determination           |
           -------------------------------------------------
      ----------------------------------------------------------- 
     |                   =====================                   |
     |                        A N C O P T                        |
     |                   =====================                   |
     |               Approximate Normal Coordinate               |
     |                Rational Function Optimizer                |
      ----------------------------------------------------------- 
target rmsd / Å         0.100000
unbiased initial rmsd   0.109216
 
iter. min.        max.        rmsd       kpush
      ----------------------------------------------------------- 
     |                   =====================                   |
     |                        A N C O P T                        |
     |                   =====================                   |
     |               Approximate Normal Coordinate               |
     |                Rational Function Optimizer                |
      ----------------------------------------------------------- 
 1    0.000000    0.909091    0.010285   -0.454545
      ----------------------------------------------------------- 
     |                   =====================                   |
     |                        A N C O P T                        |
     |                   =====================                   |
     |               Approximate Normal Coordinate               |
     |                Rational Function Optimizer                |
      ----------------------------------------------------------- 
 2    0.000000    0.454545    0.012777   -0.227273
      ----------------------------------------------------------- 
     |                   =====================                   |
     |                        A N C O P T                        |
     |                   =====================                   |
     |               Approximate Normal Coordinate               |
     |                Rational Function Optimizer                |
      ----------------------------------------------------------- 
 3    0.000000    0.227273    0.016041   -0.113636
      ----------------------------------------------------------- 
     |                   =====================                   |
     |                        A N C O P T                        |
     |                   =====================                   |
     |               Approximate Normal Coordinate               |
     |                Rational Function Optimizer                |
      ----------------------------------------------------------- 
 4    0.000000    0.113636    0.020764   -0.056818
      ----------------------------------------------------------- 
     |                   =====================                   |
     |                        A N C O P T                        |
     |                   =====================                   |
     |               Approximate Normal Coordinate               |
     |                Rational Function Optimizer                |
      ----------------------------------------------------------- 
 5    0.000000    0.056818    0.028299   -0.028409
      ----------------------------------------------------------- 
     |                   =====================                   |
     |                        A N C O P T                        |
     |                   =====================                   |
     |               Approximate Normal Coordinate               |
     |                Rational Function Optimizer                |
      ----------------------------------------------------------- 
 6    0.000000    0.028409    0.039003   -0.014205
      ----------------------------------------------------------- 
     |                   =====================                   |
     |                        A N C O P T                        |
     |                   =====================                   |
     |               Approximate Normal Coordinate               |
     |                Rational Function Optimizer                |
      ----------------------------------------------------------- 
 7    0.000000    0.014205    0.053378   -0.007102
      ----------------------------------------------------------- 
     |                   =====================                   |
     |                        A N C O P T                        |
     |                   =====================                   |
     |               Approximate Normal Coordinate               |
     |                Rational Function Optimizer                |
      ----------------------------------------------------------- 
 8    0.000000    0.007102    0.068978   -0.003551
      ----------------------------------------------------------- 
     |                   =====================                   |
     |                        A N C O P T                        |
     |                   =====================                   |
     |               Approximate Normal Coordinate               |
     |                Rational Function Optimizer                |
      ----------------------------------------------------------- 
 9    0.000000    0.003551    0.083470   -0.001776
      ----------------------------------------------------------- 
     |                   =====================                   |
     |                        A N C O P T                        |
     |                   =====================                   |
     |               Approximate Normal Coordinate               |
     |                Rational Function Optimizer                |
      ----------------------------------------------------------- 
10    0.000000    0.001776    0.093102   -0.000888
final kpush: -0.000888
           -------------------------------------------------
          |            Biased Numerical Hessian             |
           -------------------------------------------------
kpush                :  -0.00089
alpha                :   1.00000
step length          :   0.00500
SCC accuracy         :   0.30000
Hessian scale factor :   1.00000
frozen atoms in %    :   0.00000    0
RMS gradient         :   0.00005
estimated CPU  time      0.02 min
estimated wall time      0.02 min

writing file <hessian>.

 projected vibrational frequencies (cm⁻¹)
eigval :       -0.00    -0.00    -0.00     0.00     0.00     0.00
eigval :       30.89    55.17    77.48   115.11   165.66   199.97
eigval :      236.75   293.70   357.41   423.01   444.58   597.93
eigval :      675.20   797.33   827.11   874.79   903.01   929.75
eigval :      956.86  1039.81  1074.13  1079.80  1096.39  1118.41
eigval :     1152.35  1184.48  1205.70  1244.55  1257.22  1302.62
eigval :     1315.73  1333.01  1394.23  1414.43  1430.39  1434.68
eigval :     1470.86  1477.10  1485.11  1496.12  1502.58  1698.84
eigval :     2945.04  2986.60  2988.15  2990.49  2999.00  3009.89
eigval :     3020.82  3036.04  3038.98  3045.24  3049.57  3062.70
           -------------------------------------------------
          |                Property Printout                |
           -------------------------------------------------

    * Orbital Energies and Occupations

         #    Occupation            Energy/Eh            Energy/eV
      -------------------------------------------------------------
         1        2.0000           -0.7492197             -20.3873
       ...           ...                  ...                  ...
        12        2.0000           -0.5184588             -14.1080
        13        2.0000           -0.5130137             -13.9598
        14        2.0000           -0.5070394             -13.7972
        15        2.0000           -0.4967684             -13.5178
        16        2.0000           -0.4905873             -13.3496
        17        2.0000           -0.4778594             -13.0032
        18        2.0000           -0.4675402             -12.7224
        19        2.0000           -0.4540504             -12.3553
        20        2.0000           -0.4504229             -12.2566
        21        2.0000           -0.4461232             -12.1396
        22        2.0000           -0.4451219             -12.1124
        23        2.0000           -0.4363017             -11.8724
        24        2.0000           -0.4182172             -11.3803 (HOMO)
        25                         -0.2384462              -6.4885 (LUMO)
        26                         -0.0031912              -0.0868
        27                          0.0957075               2.6043
        28                          0.1113488               3.0300
        29                          0.1166508               3.1742
        30                          0.1276861               3.4745
        31                          0.1381759               3.7600
        32                          0.1567536               4.2655
        33                          0.1577208               4.2918
        34                          0.1732025               4.7131
        35                          0.1819683               4.9516
       ...                                ...                  ...
        44                          0.6126166              16.6701
      -------------------------------------------------------------
                  HL-Gap            0.1797710 Eh            4.8918 eV
             Fermi-level           -0.3283317 Eh           -8.9344 eV

     #   Z          covCN         q      C6AA      α(0)
     1   6 C        3.752    -0.112    22.695     6.794
     2   6 C        3.802    -0.059    21.635     6.622
     3   6 C        3.804    -0.101    22.417     6.740
     4   6 C        2.713     0.368    20.759     7.458
     5   8 O        0.856    -0.489    23.545     6.506
     6   8 O        1.703    -0.269    18.454     5.800
     7   6 C        3.694     0.069    19.597     6.333
     8   6 C        3.750    -0.127    23.002     6.840
     9   1 H        0.925     0.026     2.640     2.541
    10   1 H        0.925     0.050     2.316     2.380
    11   1 H        0.925     0.045     2.388     2.416
    12   1 H        0.924     0.053     2.280     2.361
    13   1 H        0.924     0.059     2.207     2.323
    14   1 H        0.924     0.086     1.917     2.165
    15   1 H        0.925     0.073     2.055     2.242
    16   1 H        0.924     0.081     1.967     2.193
    17   1 H        0.924     0.056     2.241     2.341
    18   1 H        0.925     0.066     2.129     2.281
    19   1 H        0.925     0.070     2.080     2.255
    20   1 H        0.925     0.052     2.292     2.368

 Mol. C6AA /au·bohr⁶  :       2998.545747
 Mol. C8AA /au·bohr⁸  :      63845.785466
 Mol. α(0) /au        :         80.961250


Wiberg/Mayer (AO) data.
largest (>0.10) Wiberg bond orders for each atom

 ---------------------------------------------------------------------------
     #   Z sym  total        # sym  WBO       # sym  WBO       # sym  WBO
 ---------------------------------------------------------------------------
     1   6 C    3.996 --     2 C    1.021     9 H    0.987    11 H    0.987
                            10 H    0.986
     2   6 C    3.991 --     1 C    1.021     3 C    0.986    12 H    0.977
                            13 H    0.975
     3   6 C    3.989 --     2 C    0.986     4 C    0.978    15 H    0.973
                            14 H    0.951
     4   6 C    3.903 --     5 O    1.694     6 O    1.168     3 C    0.978
     5   8 O    1.972 --     4 C    1.694     6 O    0.170
     6   8 O    2.320 --     4 C    1.168     7 C    0.922     5 O    0.170
     7   6 C    3.913 --     8 C    1.013    17 H    0.970    16 H    0.969
                             6 O    0.922
     8   6 C    3.989 --     7 C    1.013    20 H    0.986    18 H    0.985
                            19 H    0.980
     9   1 H    0.999 --     1 C    0.987
    10   1 H    0.997 --     1 C    0.986
    11   1 H    0.998 --     1 C    0.987
    12   1 H    0.997 --     2 C    0.977
    13   1 H    0.996 --     2 C    0.975
    14   1 H    0.993 --     3 C    0.951
    15   1 H    0.995 --     3 C    0.973
    16   1 H    0.993 --     7 C    0.969
    17   1 H    0.997 --     7 C    0.970
    18   1 H    0.996 --     8 C    0.985
    19   1 H    0.994 --     8 C    0.980
    20   1 H    0.997 --     8 C    0.986
 ---------------------------------------------------------------------------

Topologies differ in total number of bonds
Writing topology from bond orders to xtbtopo.mol

molecular dipole:
                 x           y           z       tot (Debye)
 q only:        0.052      -0.487       1.115
   full:        0.054      -0.483       1.096       3.047
molecular quadrupole (traceless):
                xx          xy          yy          xz          yz          zz
 q only:        8.701      -2.772      -1.779       0.036       3.275      -6.922
  q+dip:        7.177      -3.211      -0.788       0.435       3.601      -6.388
   full:        7.518      -2.671      -0.507       0.479       4.131      -7.011

           -------------------------------------------------
          |                Geometry Summary                 |
           -------------------------------------------------

      molecular mass/u    :      116.1585142
   center of mass at/Å    :       -0.0010589       0.0040314       0.0014253
  moments of inertia/u·Å² :        0.1225372E+03   0.4649139E+03   0.4867925E+03
rotational constants/cm⁻¹ :        0.1375716E+00   0.3625969E-01   0.3463001E-01

 * 18 selected distances

     #   Z          #   Z                                           value/Å
     1   6 C        2   6 C                                       1.5239007
     2   6 C        3   6 C                                       1.5334996 (max)
     4   6 C        5   8 O                                       1.2140618
     4   6 C        6   8 O                                       1.3268693
     6   8 O        7   6 C                                       1.4362792
     7   6 C        8   6 C                                       1.5210456
     1   6 C        9   1 H                                       1.0886060
     1   6 C       10   1 H                                       1.0866601
     1   6 C       11   1 H                                       1.0874933
     2   6 C       12   1 H                                       1.0907551
     2   6 C       13   1 H                                       1.0904730
     3   6 C       14   1 H                                       1.0906263
     3   6 C       15   1 H                                       1.0900090
     7   6 C       16   1 H                                       1.0904659
     7   6 C       17   1 H                                       1.0944414
     8   6 C       18   1 H                                       1.0866133
     8   6 C       19   1 H                                       1.0850707 (min)
     8   6 C       20   1 H                                       1.0878273

 * 3 distinct bonds (by element types)

   Z      Z             #   av. dist./Å        max./Å        min./Å
   1 H    6 C          12     1.0890868     1.0944414     1.0850707
   6 C    6 C           3     1.5261486     1.5334996     1.5210456
   6 C    8 O           3     1.3257367     1.4362792     1.2140618

           -------------------------------------------------
          |               Frequency Printout                |
           -------------------------------------------------
 projected vibrational frequencies (cm⁻¹)
eigval :       -0.00    -0.00    -0.00     0.00     0.00     0.00
eigval :       30.89    55.17    77.48   115.11   165.66   199.97
eigval :      236.75   293.70   357.41   423.01   444.58   597.93
eigval :      675.20   797.33   827.11   874.79   903.01   929.75
eigval :      956.86  1039.81  1074.13  1079.80  1096.39  1118.41
eigval :     1152.35  1184.48  1205.70  1244.55  1257.22  1302.62
eigval :     1315.73  1333.01  1394.23  1414.43  1430.39  1434.68
eigval :     1470.86  1477.10  1485.11  1496.12  1502.58  1698.84
eigval :     2945.04  2986.60  2988.15  2990.49  2999.00  3009.89
eigval :     3020.82  3036.04  3038.98  3045.24  3049.57  3062.70
 reduced masses (amu)
   1: 10.62   2: 11.81   3: 11.36   4: 10.55   5: 11.26   6: 11.34   7: 10.80   8:  9.73
   9: 10.61  10:  8.56  11:  7.16  12:  2.89  13:  4.45  14:  8.63  15:  8.03  16: 10.95
  17: 10.26  18: 11.34  19:  9.82  20:  5.02  21:  3.35  22:  7.77  23:  8.53  24:  6.35
  25:  8.00  26:  6.26  27:  8.79  28:  5.61  29:  7.58  30:  8.50  31:  6.50  32:  5.56
  33:  8.60  34:  3.30  35:  3.84  36:  4.29  37:  3.44  38:  4.55  39:  3.11  40:  3.15
  41:  2.01  42:  2.08  43:  1.51  44:  1.94  45:  1.57  46:  1.52  47:  1.58  48: 13.29
  49:  1.72  50:  1.83  51:  1.86  52:  1.74  53:  1.48  54:  1.77  55:  1.88  56:  1.82
  57:  1.80  58:  1.45  59:  1.63  60:  1.75
 IR intensities (km·mol⁻¹)
   1:  1.29   2:  0.01   3:  0.19   4:  0.26   5:  1.30   6:  0.97   7:  1.21   8:  2.52
   9:  0.39  10:  2.56  11:  1.79  12:  2.93  13:  0.25  14: 14.25  15:  3.03  16: 11.25
  17:  5.68  18: 11.36  19: 20.73  20: 14.97  21: 22.27  22:  8.12  23: 12.26  24:  1.87
  25:  2.70  26: 16.02  27:104.30  28: 32.14  29: 27.34  30: 37.83  31: 31.76  32: 41.44
  33:334.14  34:  1.25  35: 61.97  36:  6.92  37:  4.62  38:  8.30  39:  5.65  40:  1.57
  41:  3.79  42:  7.09  43:  6.15  44:  0.57  45:  2.14  46:  2.46  47:  0.50  48:683.37
  49: 31.96  50: 22.36  51: 13.40  52: 15.48  53: 30.96  54: 40.59  55: 96.22  56: 70.52
  57: 40.33  58: 39.11  59: 25.95  60: 23.19
 Raman intensities (Ä⁴*amu⁻¹)
   1:  0.00   2:  0.00   3:  0.00   4:  0.00   5:  0.00   6:  0.00   7:  0.00   8:  0.00
   9:  0.00  10:  0.00  11:  0.00  12:  0.00  13:  0.00  14:  0.00  15:  0.00  16:  0.00
  17:  0.00  18:  0.00  19:  0.00  20:  0.00  21:  0.00  22:  0.00  23:  0.00  24:  0.00
  25:  0.00  26:  0.00  27:  0.00  28:  0.00  29:  0.00  30:  0.00  31:  0.00  32:  0.00
  33:  0.00  34:  0.00  35:  0.00  36:  0.00  37:  0.00  38:  0.00  39:  0.00  40:  0.00
  41:  0.00  42:  0.00  43:  0.00  44:  0.00  45:  0.00  46:  0.00  47:  0.00  48:  0.00
  49:  0.00  50:  0.00  51:  0.00  52:  0.00  53:  0.00  54:  0.00  55:  0.00  56:  0.00
  57:  0.00  58:  0.00  59:  0.00  60:  0.00
 output can be read by thermo (or use thermo option).
 writing <g98.out> molden fake output.
 recommended (thermochemical) frequency scaling factor: 1.0
           -------------------------------------------------
          |             Thermodynamic Functions             |
           -------------------------------------------------

Molecule has no symmetry elements
It seems to be the C1 point group
c1  symmetry found (for desy threshold:  0.10E+00) used in thermo

          ...................................................
          :                      SETUP                      :
          :.................................................:
          :  # frequencies                          54      :
          :  # imaginary freq.                       0      :
          :  linear?                             false      :
          :  only rotor calc.                    false      :
          :  symmetry                               c1      :
          :  rotational number                       1      :
          :  scaling factor                  1.0000000      :
          :  rotor cutoff                    0.0000000 cm⁻¹ :
          :  imag. cutoff                 -100.0000000 cm⁻¹ :
          :.................................................:

    mode    ω/cm⁻¹     T·S(HO)/kcal·mol⁻¹    T·S(FR)/kcal·mol⁻¹   T·S(vib)
   ------------------------------------------------------------------------
       1     30.89    -1.72066 (100.00%)    -1.19872 (  0.00%)    -1.72066
       2     55.17    -1.37832 (100.00%)    -1.02715 (  0.00%)    -1.37832
       3     77.48    -1.17882 (100.00%)    -0.92663 (  0.00%)    -1.17882
       4    115.11    -0.94837 (100.00%)    -0.80940 (  0.00%)    -0.94837
       5    165.66    -0.74065 (100.00%)    -0.70159 (  0.00%)    -0.74065
       6    199.97    -0.63605 (100.00%)    -0.64584 (  0.00%)    -0.63605
       7    236.75    -0.54477 (100.00%)    -0.59584 (  0.00%)    -0.54477
       8    293.70    -0.43308 (100.00%)    -0.53200 (  0.00%)    -0.43308
   ------------------------------------------------------------------------

   temp. (K)  partition function   enthalpy   heat capacity  entropy
                                   cal/mol     cal/K/mol   cal/K/mol   J/K/mol
 298.15  VIB  0.267E+04             4484.798     28.240     30.718
         ROT  0.402E+06              888.752      2.981     28.626
         INT  0.107E+10             5373.551     31.221     59.344
         TR   0.121E+28             1481.254      4.968     40.146
         TOT                        6854.8045    36.1889    99.4905   416.2682

       T/K    H(0)-H(T)+PV         H(T)/Eh          T*S/Eh         G(T)/Eh
   ------------------------------------------------------------------------
    298.15    0.109238E-01    0.182567E+00    0.472711E-01    0.135296E+00
   ------------------------------------------------------------------------

         :::::::::::::::::::::::::::::::::::::::::::::::::::::
         ::                  THERMODYNAMIC                  ::
         :::::::::::::::::::::::::::::::::::::::::::::::::::::
         :: total free energy         -26.988352915048 Eh   ::
         ::.................................................::
         :: total energy              -27.123649024112 Eh   ::
         :: zero point energy           0.171643421748 Eh   ::
         :: G(RRHO) w/o ZPVE           -0.036347312684 Eh   ::
         :: G(RRHO) contrib.            0.135296109064 Eh   ::
         :::::::::::::::::::::::::::::::::::::::::::::::::::::

optimized geometry written to: xtbopt.coord


           -------------------------------------------------
          | TOTAL ENERGY              -27.123649024112 Eh   |
          | TOTAL ENTHALPY            -26.941081776021 Eh   |
          | TOTAL FREE ENERGY         -26.988352915048 Eh   |
          | GRADIENT NORM               0.000051966012 Eh/α |
          | HOMO-LUMO GAP               4.891817225481 eV   |
           -------------------------------------------------

------------------------------------------------------------------------
 * finished run on 2025/04/11 at 16:44:08.522     
------------------------------------------------------------------------
 total:
 * wall-time:     0 d,  0 h,  0 min,  3.366 sec
 *  cpu-time:     0 d,  0 h,  0 min,  3.180 sec
 * ratio c/w:     0.945 speedup
 SCF:
 * wall-time:     0 d,  0 h,  0 min,  0.022 sec
 *  cpu-time:     0 d,  0 h,  0 min,  0.015 sec
 * ratio c/w:     0.696 speedup
 analytical hessian:
 * wall-time:     0 d,  0 h,  0 min,  1.226 sec
 *  cpu-time:     0 d,  0 h,  0 min,  1.214 sec
 * ratio c/w:     0.991 speedup

