      -----------------------------------------------------------      
     |                   =====================                   |     
     |                           x T B                           |     
     |                   =====================                   |     
     |                         S. Grimme                         |     
     |          Mulliken Center for Theoretical Chemistry        |     
     |                    University of Bonn                     |     
      -----------------------------------------------------------      

   * xtb version 6.7.1 (edcfbbe) compiled by 'albert@albert-system' on 2024-07-22

   xtb is free software: you can redistribute it and/or modify it under
   the terms of the GNU Lesser General Public License as published by
   the Free Software Foundation, either version 3 of the License, or
   (at your option) any later version.
   
   xtb is distributed in the hope that it will be useful,
   but WITHOUT ANY WARRANTY; without even the implied warranty of
   MERCHANTABILITY or FITNESS FOR A PARTICULAR PURPOSE.  See the
   GNU Lesser General Public License for more details.
   
   Cite this work as:
   * C. Bannwarth, E. Caldeweyher, S. Ehlert, A. Hansen, P. Pracht,
     J. Seibert, S. Spicher, S. Grimme, WIREs Comput. Mol. Sci., 2020, 11,
     e01493. DOI: 10.1002/wcms.1493
   
   for GFN2-xTB:
   * C. Bannwarth, S. Ehlert and S. Grimme., J. Chem. Theory Comput., 2019,
     15, 1652-1671. DOI: 10.1021/acs.jctc.8b01176
   for GFN1-xTB:
   * S. Grimme, C. Bannwarth, P. Shushkov, J. Chem. Theory Comput., 2017,
     13, 1989-2009. DOI: 10.1021/acs.jctc.7b00118
   for GFN0-xTB:
   * P. Pracht, E. Caldeweyher, S. Ehlert, S. Grimme, ChemRxiv, 2019, preprint.
     DOI: 10.26434/chemrxiv.8326202.v1
   for GFN-FF:
   * S. Spicher and S. Grimme, Angew. Chem. Int. Ed., 2020, 59, 15665-15673.
     DOI: 10.1002/anie.202004239
   
   for ALPB and GBSA implicit solvation:
   * S. Ehlert, M. Stahn, S. Spicher, S. Grimme, J. Chem. Theory Comput.,
     2021, 17, 4250-4261. DOI: 10.1021/acs.jctc.1c00471
   
   for ddCOSMO and CPCM-X implicit solvation:
   * M. Stahn, S. Ehlert, S. Grimme, J. Phys. Chem. A,
     2023, XX, XXXX-XXXX. DOI: 10.1021/acs.jpca.3c04382
   
   for DFT-D4:
   * E. Caldeweyher, C. Bannwarth and S. Grimme, J. Chem. Phys., 2017,
     147, 034112. DOI: 10.1063/1.4993215
   * E. Caldeweyher, S. Ehlert, A. Hansen, H. Neugebauer, S. Spicher,
     C. Bannwarth and S. Grimme, J. Chem. Phys., 2019, 150, 154122.
     DOI: 10.1063/1.5090222
   * E. Caldeweyher, J.-M. Mewes, S. Ehlert and S. Grimme, Phys. Chem. Chem. Phys.
     2020, 22, 8499-8512. DOI: 10.1039/D0CP00502A
   
   for sTDA-xTB:
   * S. Grimme and C. Bannwarth, J. Chem. Phys., 2016, 145, 054103.
     DOI: 10.1063/1.4959605
   
   in the mass-spec context:
   * V. Asgeirsson, C. Bauer and S. Grimme, Chem. Sci., 2017, 8, 4879.
     DOI: 10.1039/c7sc00601b
   * J. Koopman and S. Grimme, ACS Omega 2019, 4, 12, 15120-15133.
     DOI: 10.1021/acsomega.9b02011
   
   for metadynamics refer to:
   * S. Grimme, J. Chem. Theory Comput., 2019, 155, 2847-2862
     DOI: 10.1021/acs.jctc.9b00143
   
   for SPH calculations refer to:
   * S. Spicher and S. Grimme, J. Chem. Theory Comput., 2021, 17, 1701-1714
     DOI: 10.1021/acs.jctc.0c01306
   
   for ONIOM refer to:
   * C. Plett, A. Katbashev, S. Ehlert, S. Grimme, M. Bursch,
     Phys. Chem. Chem. Phys., 2023, 25, 17860-17868. DOI: 10.1039/D3CP02178E
   
   for DIPRO refer to:
   * J. Kohn, N. Gildemeister, S. Grimme, D. Fazzi, A. Hansen,
     J. Chem. Phys., 2023, just accepted.
   
   for PTB refer to:
   * S. Grimme, M. Mueller, A. Hansen, J. Chem. Phys., 2023, 158, 124111.
     DOI: 10.1063/5.0137838
   
   with help from (in alphabetical order)
   P. Atkinson, C. Bannwarth, F. Bohle, G. Brandenburg, E. Caldeweyher
   M. Checinski, S. Dohm, S. Ehlert, S. Ehrlich, I. Gerasimov, C. Hölzer
   A. Katbashev, J. Kohn, J. Koopman, C. Lavigne, S. Lehtola, F. März, M. Müller,
   F. Musil, H. Neugebauer, J. Pisarek, C. Plett, P. Pracht, F. Pultar,
   J. Seibert, P. Shushkov, S. Spicher, M. Stahn, M. Steiner, T. Strunk,
   J. Stückrath, T. Rose, and J. Unsleber
   
 * started run on 2025/04/11 at 18:21:53.802     
   ID    Z sym.   atoms
    1    6 C      1-7, 9-15, 18, 19
    2    8 O      8, 16, 20
    3    7 N      17
    4    1 H      21-33

           -------------------------------------------------
          |                Calculation Setup                |
           -------------------------------------------------

          program call               : /srv/scratch/z5358697/.xtb/bin/xtb xtb_rrho.coord --gfn2 --ohess vtight --chrg 0 --enso --norestart -I rrho-xcontrol-inp --parallel 1 --alpb water
          hostname                   : k030
          coordinate file            : xtb_rrho.coord
          omp threads                :                     1


           -------------------------------------------------
          |                 G F N 2 - x T B                 |
           -------------------------------------------------

        Reference                      10.1021/acs.jctc.8b01176
      * Hamiltonian:
        H0-scaling (s, p, d)           1.850000    2.230000    2.230000
        zeta-weighting                 0.500000
      * Dispersion:
        s8                             2.700000
        a1                             0.520000
        a2                             5.000000
        s9                             5.000000
      * Repulsion:
        kExp                           1.500000    1.000000
        rExp                           1.000000
      * Coulomb:
        alpha                          2.000000
        third order                    shell-resolved
        anisotropic                    true
        a3                             3.000000
        a5                             4.000000
        cn-shift                       1.200000
        cn-exp                         4.000000
        max-rad                        5.000000

      * Solvation model:               ALPB
        Solvent                        water
        Parameter file                 internal GFN2-xTB/ALPB
        Dielectric constant                8.0200E+01
        Reference state                gsolv [1 M gas/solution]
        Free energy shift                  1.0808E-03 Eh       6.7819E-01 kcal/mol
        Temperature                        2.9815E+02 K
        Density                            1.0000E+00 kg/L
        Solvent mass                       1.8000E+01 g/mol
        Interaction kernel             P16
        Born radius scaling (c1)           1.4744E+00
        Born radii integrator          GBOBC
        Born offset                        0.0000E+00 a0       0.0000E+00 AA
        H-bond correction              true
        Ion screening                  false
        Surface tension                    1.0000E-05 Eh       1.5569E+01 dyn/cm
        Grid points                               974 per atom

          ...................................................
          :                      SETUP                      :
          :.................................................:
          :  # basis functions                  93          :
          :  # atomic orbitals                  93          :
          :  # shells                           53          :
          :  # electrons                       100          :
          :  max. iterations                   250          :
          :  Hamiltonian                  GFN2-xTB          :
          :  restarted?                      false          :
          :  GBSA solvation                   true          :
          :  PC potential                    false          :
          :  electronic temp.          300.0000000     K    :
          :  accuracy                    1.0000000          :
          :  -> integral cutoff          0.2500000E+02      :
          :  -> integral neglect         0.1000000E-07      :
          :  -> SCF convergence          0.1000000E-05 Eh   :
          :  -> wf. convergence          0.1000000E-03 e    :
          :  Broyden damping             0.4000000          :
          :  net charge                          0          :
          :  unpaired electrons                  0          :
          ...................................................

 iter      E             dE          RMSdq      gap      omega  full diag
   1    -56.6961524 -0.566962E+02  0.530E+00    1.03       0.0  T
   2    -56.7829913 -0.868390E-01  0.303E+00    1.57       1.0  T
   3    -56.7722407  0.107506E-01  0.160E+00    1.30       1.0  T
   4    -56.7985490 -0.263082E-01  0.503E-01    1.42       1.0  T
   5    -56.8050635 -0.651457E-02  0.126E-01    1.34       1.0  T
   6    -56.8052516 -0.188050E-03  0.590E-02    1.36       1.0  T
   7    -56.8052712 -0.195831E-04  0.244E-02    1.36       1.0  T
   8    -56.8052737 -0.253824E-05  0.955E-03    1.36       1.8  T
   9    -56.8052744 -0.737675E-06  0.446E-03    1.36       3.9  T
  10    -56.8052746 -0.164816E-06  0.160E-03    1.36      10.9  T
  11    -56.8052746 -0.835254E-08  0.848E-04    1.36      20.5  T
  12    -56.8052746 -0.353876E-08  0.333E-04    1.36      52.3  T

   *** convergence criteria satisfied after 12 iterations ***

         #    Occupation            Energy/Eh            Energy/eV
      -------------------------------------------------------------
         1        2.0000           -0.7116183             -19.3641
       ...           ...                  ...                  ...
        44        2.0000           -0.4261295             -11.5956
        45        2.0000           -0.4216330             -11.4732
        46        2.0000           -0.4189466             -11.4001
        47        2.0000           -0.4153018             -11.3009
        48        2.0000           -0.4070692             -11.0769
        49        2.0000           -0.3879132             -10.5557
        50        2.0000           -0.3727701             -10.1436 (HOMO)
        51                         -0.3229142              -8.7869 (LUMO)
        52                         -0.2719419              -7.3999
        53                         -0.2429537              -6.6111
        54                         -0.2314759              -6.2988
        55                         -0.1864321              -5.0731
       ...                                ...                  ...
        93                          0.6919052              18.8277
      -------------------------------------------------------------
                  HL-Gap            0.0498559 Eh            1.3566 eV
             Fermi-level           -0.3478421 Eh           -9.4653 eV

 SCC (total)                   0 d,  0 h,  0 min,  0.057 sec
 SCC setup                      ...        0 min,  0.002 sec (  4.276%)
 Dispersion                     ...        0 min,  0.000 sec (  0.682%)
 classical contributions        ...        0 min,  0.000 sec (  0.094%)
 integral evaluation            ...        0 min,  0.006 sec ( 10.425%)
 iterations                     ...        0 min,  0.031 sec ( 55.016%)
 molecular gradient             ...        0 min,  0.017 sec ( 29.096%)
 printout                       ...        0 min,  0.000 sec (  0.379%)

         :::::::::::::::::::::::::::::::::::::::::::::::::::::
         ::                     SUMMARY                     ::
         :::::::::::::::::::::::::::::::::::::::::::::::::::::
         :: total energy             -56.016707929824 Eh    ::
         :: total w/o Gsasa/hb       -56.009651270224 Eh    ::
         :: gradient norm              0.036020415217 Eh/a0 ::
         :: HOMO-LUMO gap              1.356649024769 eV    ::
         ::.................................................::
         :: SCC energy               -56.805255720895 Eh    ::
         :: -> isotropic ES            0.114121074221 Eh    ::
         :: -> anisotropic ES         -0.002182804237 Eh    ::
         :: -> anisotropic XC          0.020155189829 Eh    ::
         :: -> dispersion             -0.036467331304 Eh    ::
         :: -> Gsolv                  -0.026680755526 Eh    ::
         ::    -> Gelec               -0.019624095925 Eh    ::
         ::    -> Gsasa                0.001086771465 Eh    ::
         ::    -> Ghb                 -0.009224190763 Eh    ::
         ::    -> Gshift               0.001080759698 Eh    ::
         :: repulsion energy           0.788547791071 Eh    ::
         :: add. restraining           0.000000000000 Eh    ::
         :: total charge               0.000000000000 e     ::
         :::::::::::::::::::::::::::::::::::::::::::::::::::::

      ----------------------------------------------------------- 
     |                   =====================                   |
     |                        A N C O P T                        |
     |                   =====================                   |
     |               Approximate Normal Coordinate               |
     |                Rational Function Optimizer                |
      ----------------------------------------------------------- 
      ----------------------------------------------------------- 
     |                   =====================                   |
     |                        A N C O P T                        |
     |                   =====================                   |
     |               Approximate Normal Coordinate               |
     |                Rational Function Optimizer                |
      ----------------------------------------------------------- 

          ...................................................
          :                      SETUP                      :
          :.................................................:
          :   optimization level         verytight          :
          :   max. optcycles                   660          :
          :   ANC micro-cycles                  20          :
          :   degrees of freedom                93          :
          :.................................................:
          :   RF solver                   davidson          :
          :   write xtbopt.log                true          :
          :   linear?                        false          :
          :   energy convergence         0.1000000E-06 Eh   :
          :   grad. convergence          0.2000000E-03 Eh/α :
          :   maxmium RF displ.          1.0000000          :
          :   Hlow (freq-cutoff)         0.1000000E-01      :
          :   Hmax (freq-cutoff)         5.0000000          :
          :   S6 in model hess.         20.0000000          :
          ...................................................

generating ANC from exact Hessian ...
Using Lindh-Hessian (1995)
 Shifting diagonal of input Hessian by   9.389746005337447E-003
 Lowest  eigenvalues of input Hessian
    0.000000    0.000000    0.000000    0.000000    0.000000    0.000000
    0.010000    0.010476    0.011481    0.011803    0.013322    0.015934
    0.017948    0.018898    0.020815    0.024461    0.026517    0.027949
 Highest eigenvalues
    1.922683    1.942474    2.018975    2.057229    2.084742    2.194762
 

........................................................................
.............................. CYCLE    1 ..............................
........................................................................

 iter      E             dE          RMSdq      gap      omega  full diag
   1    -56.8052746 -0.568053E+02  0.117E-04    1.36       0.0  T
   2    -56.8052746 -0.448921E-10  0.771E-05    1.36     225.7  T
   3    -56.8052746 -0.100826E-10  0.535E-05    1.36     325.5  T
     SCC iter.                  ...        0 min,  0.005 sec
     gradient                   ...        0 min,  0.017 sec
 * total energy  :   -56.0167079 Eh     change       -0.1376478E-08 Eh
   gradient norm :     0.0360237 Eh/α   predicted     0.0000000E+00 (-100.00%)
   displ. norm   :     0.1666293 α      lambda       -0.2657440E-02
   maximum displ.:     0.0766297 α      in ANC's #16, #18, #7, ...

........................................................................
.............................. CYCLE    2 ..............................
........................................................................

 iter      E             dE          RMSdq      gap      omega  full diag
   1    -56.8281569 -0.568282E+02  0.102E-01    1.36       0.0  T
   2    -56.8281777 -0.207720E-04  0.593E-02    1.36       1.0  T
   3    -56.8281744  0.325766E-05  0.227E-02    1.37       1.0  T
   4    -56.8281808 -0.638573E-05  0.469E-03    1.36       3.7  T
   5    -56.8281812 -0.335234E-06  0.224E-03    1.36       7.8  T
   6    -56.8281812 -0.418632E-07  0.120E-03    1.36      14.5  T
   7    -56.8281812 -0.132928E-07  0.508E-04    1.36      34.2  T
   8    -56.8281812 -0.173094E-08  0.210E-04    1.36      83.0  T
     SCC iter.                  ...        0 min,  0.012 sec
     gradient                   ...        0 min,  0.017 sec
 * total energy  :   -56.0184773 Eh     change       -0.1769329E-02 Eh
   gradient norm :     0.0151633 Eh/α   predicted    -0.1365672E-02 ( -22.81%)
   displ. norm   :     0.1240473 α      lambda       -0.6618908E-03
   maximum displ.:     0.0596353 α      in ANC's #7, #18, #11, ...

........................................................................
.............................. CYCLE    3 ..............................
........................................................................

 iter      E             dE          RMSdq      gap      omega  full diag
   1    -56.8378258 -0.568378E+02  0.595E-02    1.36       0.0  T
   2    -56.8378343 -0.850500E-05  0.340E-02    1.36       1.0  T
   3    -56.8378336  0.705124E-06  0.138E-02    1.36       1.3  T
   4    -56.8378353 -0.169099E-05  0.297E-03    1.36       5.9  T
   5    -56.8378355 -0.194167E-06  0.125E-03    1.36      13.9  T
   6    -56.8378355 -0.132108E-07  0.803E-04    1.36      21.7  T
   7    -56.8378355 -0.671215E-08  0.332E-04    1.36      52.4  T
     SCC iter.                  ...        0 min,  0.010 sec
     gradient                   ...        0 min,  0.017 sec
 * total energy  :   -56.0188564 Eh     change       -0.3791688E-03 Eh
   gradient norm :     0.0041915 Eh/α   predicted    -0.3360857E-03 ( -11.36%)
   displ. norm   :     0.0495534 α      lambda       -0.7359173E-04
   maximum displ.:     0.0313455 α      in ANC's #7, #11, #6, ...

........................................................................
.............................. CYCLE    4 ..............................
........................................................................

 iter      E             dE          RMSdq      gap      omega  full diag
   1    -56.8373613 -0.568374E+02  0.205E-02    1.35       0.0  T
   2    -56.8373618 -0.437649E-06  0.118E-02    1.36       1.5  T
   3    -56.8373613  0.435113E-06  0.519E-03    1.36       3.4  T
   4    -56.8373619 -0.540274E-06  0.127E-03    1.36      13.7  T
   5    -56.8373619 -0.438143E-07  0.418E-04    1.36      41.7  T
   6    -56.8373619 -0.700147E-09  0.240E-04    1.36      72.6  T
     SCC iter.                  ...        0 min,  0.008 sec
     gradient                   ...        0 min,  0.017 sec
 * total energy  :   -56.0189061 Eh     change       -0.4969536E-04 Eh
   gradient norm :     0.0019838 Eh/α   predicted    -0.3688684E-04 ( -25.77%)
   displ. norm   :     0.0707869 α      lambda       -0.3324916E-04
   maximum displ.:     0.0447247 α      in ANC's #7, #6, #11, ...

........................................................................
.............................. CYCLE    5 ..............................
........................................................................

 iter      E             dE          RMSdq      gap      omega  full diag
   1    -56.8352303 -0.568352E+02  0.247E-02    1.35       0.0  T
   2    -56.8352307 -0.412832E-06  0.144E-02    1.35       1.2  T
   3    -56.8352298  0.940896E-06  0.666E-03    1.35       2.6  T
   4    -56.8352309 -0.114803E-05  0.114E-03    1.35      15.3  T
   5    -56.8352309 -0.276629E-07  0.451E-04    1.35      38.6  T
   6    -56.8352309 -0.862343E-09  0.237E-04    1.35      73.3  T
     SCC iter.                  ...        0 min,  0.009 sec
     gradient                   ...        0 min,  0.017 sec
 * total energy  :   -56.0189274 Eh     change       -0.2123244E-04 Eh
   gradient norm :     0.0019302 Eh/α   predicted    -0.1667195E-04 ( -21.48%)
   displ. norm   :     0.0298090 α      lambda       -0.1032952E-04
   maximum displ.:     0.0168586 α      in ANC's #4, #6, #7, ...

........................................................................
.............................. CYCLE    6 ..............................
........................................................................

 iter      E             dE          RMSdq      gap      omega  full diag
   1    -56.8352626 -0.568353E+02  0.107E-02    1.35       0.0  T
   2    -56.8352626 -0.476407E-07  0.633E-03    1.35       2.8  T
   3    -56.8352626  0.636725E-08  0.782E-04    1.35      22.3  T
   4    -56.8352626 -0.109558E-07  0.262E-04    1.35      66.4  T
     SCC iter.                  ...        0 min,  0.006 sec
     gradient                   ...        0 min,  0.017 sec
 * total energy  :   -56.0189385 Eh     change       -0.1116247E-04 Eh
   gradient norm :     0.0011250 Eh/α   predicted    -0.5191890E-05 ( -53.49%)
   displ. norm   :     0.0756900 α      lambda       -0.1513409E-04
   maximum displ.:     0.0447736 α      in ANC's #4, #5, #6, ...

........................................................................
.............................. CYCLE    7 ..............................
........................................................................

 iter      E             dE          RMSdq      gap      omega  full diag
   1    -56.8359486 -0.568359E+02  0.227E-02    1.35       0.0  T
   2    -56.8359487 -0.118490E-06  0.135E-02    1.35       1.3  T
   3    -56.8359487  0.170834E-07  0.122E-03    1.35      14.3  T
   4    -56.8359487 -0.307326E-07  0.422E-04    1.35      41.3  T
   5    -56.8359487 -0.308857E-08  0.205E-04    1.35      84.8  T
     SCC iter.                  ...        0 min,  0.007 sec
     gradient                   ...        0 min,  0.017 sec
 * total energy  :   -56.0189519 Eh     change       -0.1334124E-04 Eh
   gradient norm :     0.0010874 Eh/α   predicted    -0.7587501E-05 ( -43.13%)
   displ. norm   :     0.0570329 α      lambda       -0.5501897E-05
   maximum displ.:     0.0338544 α      in ANC's #4, #5, #7, ...

........................................................................
.............................. CYCLE    8 ..............................
........................................................................

 iter      E             dE          RMSdq      gap      omega  full diag
   1    -56.8359535 -0.568360E+02  0.167E-02    1.35       0.0  T
   2    -56.8359536 -0.889498E-08  0.998E-03    1.35       1.7  T
   3    -56.8359535  0.202967E-07  0.917E-04    1.35      19.0  T
   4    -56.8359536 -0.261955E-07  0.210E-04    1.35      82.7  T
     SCC iter.                  ...        0 min,  0.006 sec
     gradient                   ...        0 min,  0.017 sec
 * total energy  :   -56.0189575 Eh     change       -0.5660600E-05 Eh
   gradient norm :     0.0008344 Eh/α   predicted    -0.2761192E-05 ( -51.22%)
   displ. norm   :     0.0458313 α      lambda       -0.3672773E-05
   maximum displ.:     0.0290511 α      in ANC's #4, #5, #7, ...

........................................................................
.............................. CYCLE    9 ..............................
........................................................................

 iter      E             dE          RMSdq      gap      omega  full diag
   1    -56.8358812 -0.568359E+02  0.144E-02    1.35       0.0  T
   2    -56.8358812 -0.206603E-07  0.861E-03    1.35       2.0  T
   3    -56.8358812  0.133944E-07  0.788E-04    1.35      22.1  T
   4    -56.8358812 -0.180576E-07  0.251E-04    1.35      69.5  T
     SCC iter.                  ...        0 min,  0.006 sec
     gradient                   ...        0 min,  0.017 sec
 * total energy  :   -56.0189612 Eh     change       -0.3686211E-05 Eh
   gradient norm :     0.0004512 Eh/α   predicted    -0.1838495E-05 ( -50.13%)
   displ. norm   :     0.0296971 α      lambda       -0.1650933E-05
   maximum displ.:     0.0195996 α      in ANC's #4, #5, #7, ...

........................................................................
.............................. CYCLE   10 ..............................
........................................................................

 iter      E             dE          RMSdq      gap      omega  full diag
   1    -56.8358977 -0.568359E+02  0.991E-03    1.35       0.0  T
   2    -56.8358977 -0.166397E-07  0.593E-03    1.35       2.9  T
   3    -56.8358977  0.486232E-07  0.129E-03    1.35      13.5  T
   4    -56.8358977 -0.556852E-07  0.243E-04    1.35      71.7  T
   5    -56.8358977 -0.918817E-09  0.122E-04    1.35     143.0  T
     SCC iter.                  ...        0 min,  0.007 sec
     gradient                   ...        0 min,  0.017 sec
 * total energy  :   -56.0189627 Eh     change       -0.1532232E-05 Eh
   gradient norm :     0.0004076 Eh/α   predicted    -0.8265911E-06 ( -46.05%)
   displ. norm   :     0.0207348 α      lambda       -0.9879922E-06
   maximum displ.:     0.0138179 α      in ANC's #4, #5, #6, ...

........................................................................
.............................. CYCLE   11 ..............................
........................................................................

 iter      E             dE          RMSdq      gap      omega  full diag
   1    -56.8358881 -0.568359E+02  0.749E-03    1.35       0.0  T
   2    -56.8358882 -0.111078E-07  0.447E-03    1.35       3.9  T
   3    -56.8358881  0.275633E-07  0.100E-03    1.35      17.4  T
   4    -56.8358882 -0.324861E-07  0.205E-04    1.35      84.7  T
     SCC iter.                  ...        0 min,  0.006 sec
     gradient                   ...        0 min,  0.017 sec
 * total energy  :   -56.0189636 Eh     change       -0.8223391E-06 Eh
   gradient norm :     0.0003021 Eh/α   predicted    -0.4973087E-06 ( -39.53%)
   displ. norm   :     0.0115574 α      lambda       -0.3921962E-06
   maximum displ.:     0.0074508 α      in ANC's #4, #5, #2, ...

........................................................................
.............................. CYCLE   12 ..............................
........................................................................

 iter      E             dE          RMSdq      gap      omega  full diag
   1    -56.8358613 -0.568359E+02  0.448E-03    1.35       0.0  T
   2    -56.8358613 -0.320849E-08  0.269E-03    1.35       6.5  T
   3    -56.8358613  0.649103E-08  0.503E-04    1.35      34.6  T
   4    -56.8358613 -0.798648E-08  0.126E-04    1.35     138.0  T
     SCC iter.                  ...        0 min,  0.006 sec
     gradient                   ...        0 min,  0.017 sec
 * total energy  :   -56.0189640 Eh     change       -0.4480297E-06 Eh
   gradient norm :     0.0001734 Eh/α   predicted    -0.2006219E-06 ( -55.22%)
   displ. norm   :     0.0144020 α      lambda       -0.3819414E-06
   maximum displ.:     0.0086233 α      in ANC's #4, #2, #1, ...

........................................................................
.............................. CYCLE   13 ..............................
........................................................................

 iter      E             dE          RMSdq      gap      omega  full diag
   1    -56.8358985 -0.568359E+02  0.563E-03    1.35       0.0  T
   2    -56.8358985 -0.411578E-08  0.339E-03    1.35       5.1  T
   3    -56.8358985 -0.931898E-09  0.244E-04    1.35      71.4  T
   4    -56.8358985 -0.685311E-09  0.133E-04    1.35     130.7  T
     SCC iter.                  ...        0 min,  0.006 sec
     gradient                   ...        0 min,  0.017 sec
 * total energy  :   -56.0189644 Eh     change       -0.4302721E-06 Eh
   gradient norm :     0.0001902 Eh/α   predicted    -0.1948810E-06 ( -54.71%)
   displ. norm   :     0.0168779 α      lambda       -0.3321829E-06
   maximum displ.:     0.0092441 α      in ANC's #4, #2, #1, ...

........................................................................
.............................. CYCLE   14 ..............................
........................................................................

 iter      E             dE          RMSdq      gap      omega  full diag
   1    -56.8359085 -0.568359E+02  0.632E-03    1.35       0.0  T
   2    -56.8359085 -0.526817E-08  0.381E-03    1.35       4.6  T
   3    -56.8359085  0.125330E-08  0.397E-04    1.35      43.8  T
   4    -56.8359085 -0.378406E-08  0.158E-04    1.35     109.8  T
     SCC iter.                  ...        0 min,  0.006 sec
     gradient                   ...        0 min,  0.018 sec
 * total energy  :   -56.0189648 Eh     change       -0.3723950E-06 Eh
   gradient norm :     0.0002346 Eh/α   predicted    -0.1683894E-06 ( -54.78%)
   displ. norm   :     0.0158131 α      lambda       -0.2498844E-06
   maximum displ.:     0.0088076 α      in ANC's #2, #4, #1, ...

........................................................................
.............................. CYCLE   15 ..............................
........................................................................

 iter      E             dE          RMSdq      gap      omega  full diag
   1    -56.8358972 -0.568359E+02  0.557E-03    1.35       0.0  T
   2    -56.8358972 -0.499651E-08  0.335E-03    1.35       5.2  T
   3    -56.8358972  0.919448E-08  0.608E-04    1.35      28.6  T
   4    -56.8358972 -0.119606E-07  0.160E-04    1.35     108.7  T
     SCC iter.                  ...        0 min,  0.006 sec
     gradient                   ...        0 min,  0.018 sec
 * total energy  :   -56.0189651 Eh     change       -0.2601967E-06 Eh
   gradient norm :     0.0001452 Eh/α   predicted    -0.1257759E-06 ( -51.66%)
   displ. norm   :     0.0090448 α      lambda       -0.1157809E-06
   maximum displ.:     0.0054964 α      in ANC's #2, #1, #4, ...

........................................................................
.............................. CYCLE   16 ..............................
........................................................................

 iter      E             dE          RMSdq      gap      omega  full diag
   1    -56.8358957 -0.568359E+02  0.290E-03    1.35       0.0  T
   2    -56.8358957 -0.213174E-08  0.173E-03    1.35      10.1  T
   3    -56.8358957  0.472724E-08  0.426E-04    1.35      40.8  T
   4    -56.8358957 -0.563315E-08  0.970E-05    1.35     179.5  T
     SCC iter.                  ...        0 min,  0.006 sec
     gradient                   ...        0 min,  0.018 sec
 * total energy  :   -56.0189652 Eh     change       -0.1228709E-06 Eh
   gradient norm :     0.0000701 Eh/α   predicted    -0.5923301E-07 ( -51.79%)
   displ. norm   :     0.0063188 α      lambda       -0.5321272E-07
   maximum displ.:     0.0040630 α      in ANC's #1, #2, #4, ...

........................................................................
.............................. CYCLE   17 ..............................
........................................................................

 iter      E             dE          RMSdq      gap      omega  full diag
   1    -56.8358815 -0.568359E+02  0.198E-03    1.35       0.0  T
   2    -56.8358815 -0.757041E-09  0.117E-03    1.35      14.9  T
   3    -56.8358815  0.177365E-08  0.254E-04    1.35      68.4  T
   4    -56.8358815 -0.208475E-08  0.558E-05    1.35     312.1  T
     SCC iter.                  ...        0 min,  0.006 sec
     gradient                   ...        0 min,  0.018 sec
 * total energy  :   -56.0189653 Eh     change       -0.7238375E-07 Eh
   gradient norm :     0.0000710 Eh/α   predicted    -0.3132521E-07 ( -56.72%)
   displ. norm   :     0.0063081 α      lambda       -0.6182134E-07
   maximum displ.:     0.0041779 α      in ANC's #1, #2, #8, ...

   *** GEOMETRY OPTIMIZATION CONVERGED AFTER 17 ITERATIONS ***

------------------------------------------------------------------------
 total energy gain   :        -0.0022573 Eh       -1.4165 kcal/mol
 total RMSD          :         0.0877936 a0        0.0465 Å
 total power (kW/mol):        -0.3486259 (step)  -10.5381 (real)
------------------------------------------------------------------------

 ANCopt (total)                0 d,  0 h,  0 min,  0.562 sec
 optimizer setup                ...        0 min,  0.000 sec (  0.061%)
 model hessian                  ...        0 min,  0.007 sec (  1.306%)
 ANC generation                 ...        0 min,  0.001 sec (  0.157%)
 coordinate transformation      ...        0 min,  0.000 sec (  0.040%)
 single point calculation       ...        0 min,  0.544 sec ( 96.667%)
 optimization log               ...        0 min,  0.008 sec (  1.410%)
 hessian update                 ...        0 min,  0.000 sec (  0.038%)
 rational function              ...        0 min,  0.001 sec (  0.175%)

================
 final structure:
================
$coord
       -8.55026349790754       -2.10709781173314       -0.79723358287131      C
       -7.15824755659291       -4.30310824321381       -0.44997462129633      C
       -4.58412743779612       -4.16720593326088       -0.02419694849929      C
       -3.35396398191158       -1.84072957533350        0.05705867673463      C
       -4.76018210304143        0.37056342850656       -0.29470627757083      C
       -7.35543522181667        0.21356739258649       -0.71754326396419      C
       -3.53276344858112        2.85702065562905       -0.22221318974785      C
       -4.74793551615974        4.81919310838604       -0.49221931839502      O
       -0.77661854524134        2.88773891506045        0.17298697638967      C
        0.38917272541323        5.22959427283912        0.15443311567952      C
        2.99043713760996        5.42165269361494        0.49575424789862      C
        4.41591856821967        3.29267983941911        0.85262710820215      C
        3.30909901557045        0.85429624809631        0.90259013733402      C
        0.63817021277254        0.64964839978089        0.54664578148118      C
       -0.60313446006636       -1.78853425412989        0.53112145128427      C
        0.52107734964911       -3.81975834923644        0.88608788508423      O
        4.71590645645986       -1.20592369272502        1.33201411110018      N
        7.43357205761086       -1.30408961771904        1.43649041325345      C
        8.65073087205567       -1.19563076201997       -1.19462416348239      C
        8.08227065832557       -3.47076507508372       -2.47269494002559      O
      -10.55894334929521       -2.20780005133880       -1.12819742987571      H
       -8.08164817636056       -6.11945837017948       -0.50998089368595      H
       -3.46816365881389       -5.85310071782063        0.25431327829375      H
       -8.39011554005547        1.95315908493733       -0.97964266984387      H
       -0.76676118344334        6.88453725013206       -0.13430434754798      H
        3.87924474477601        7.25593929381558        0.47300400897094      H
        6.42655595735243        3.47260862411234        1.10820408669639      H
        3.78673702411657       -2.88097426555668        1.16561460133238      H
        7.94792609834044       -3.10227520683731        2.30125734160421      H
        8.17073120519283        0.23067896439068        2.59974080525584      H
       10.70126389093986       -0.98093267700697       -0.97330827631969      H
        7.90315729516366        0.42905987525128       -2.24480233925378      H
        8.82108391964617       -3.44148577365402       -4.14079298135488      H
$end
 
 Bond Distances (Angstroems)
 ---------------------------
C1-C2=1.3881         C1-C6=1.3819         C1-H21=1.0786        C2-C1=1.3881         C2-C3=1.3825         C2-H22=1.0787        
C3-C2=1.3825         C3-C4=1.3933         C3-H23=1.0800        C4-C3=1.3933         C4-C5=1.3992         C4-C15=1.4774        
C5-C4=1.3992         C5-C6=1.3939         C5-C7=1.4679         C6-C1=1.3819         C6-C5=1.3939         C6-H24=1.0800        
C7-C5=1.4679         C7-O8=1.2297         C7-C9=1.4735         O8-C7=1.2297         C9-C7=1.4735         C9-C10=1.3844        
C9-C14=1.4150        C10-C9=1.3844        C10-C11=1.3920       C10-H25=1.0791       C11-C10=1.3920       C11-C12=1.3689       
C11-H26=1.0787       C12-C11=1.3689       C12-C13=1.4173       C12-H27=1.0768       C13-C12=1.4173       C13-C14=1.4300       
C13-N17=1.3396       C14-C9=1.4150        C14-C13=1.4300       C14-C15=1.4478       C15-C4=1.4774        C15-C14=1.4478       
C15-O16=1.2428       O16-C15=1.2428       N17-C13=1.3396       N17-C18=1.4401       N17-H28=1.0175       C18-N17=1.4401       
C18-C19=1.5352       C18-H29=1.0904       C18-H30=1.0912       C19-C18=1.5352       C19-O20=1.4133       C19-H31=1.0973       
C19-H32=1.0975       O20-C19=1.4133       O20-H33=0.9655       H21-C1=1.0786        H22-C2=1.0787        H23-C3=1.0800        
H24-C6=1.0800        H25-C10=1.0791       H26-C11=1.0787       H27-C12=1.0768       H28-N17=1.0175       H29-C18=1.0904       
H30-C18=1.0912       H31-C19=1.0973       H32-C19=1.0975       H33-O20=0.9655       
 C  H  Rav=1.0844 sigma=0.0076  Rmin=1.0768  Rmax=1.0975    11
 C  C  Rav=1.4205 sigma=0.0440  Rmin=1.3689  Rmax=1.5352    17
 N  H  Rav=1.0175 sigma=0.0000  Rmin=1.0175  Rmax=1.0175     1
 N  C  Rav=1.3898 sigma=0.0503  Rmin=1.3396  Rmax=1.4401     2
 O  H  Rav=0.9655 sigma=0.0000  Rmin=0.9655  Rmax=0.9655     1
 O  C  Rav=1.2953 sigma=0.0836  Rmin=1.2297  Rmax=1.4133     3
 
 selected bond angles (degree)
 --------------------
C6-C1-C2=119.81                H21-C1-C2=120.21               H21-C1-C6=119.98               C3-C2-C1=120.06                
H22-C2-C1=120.11               H22-C2-C3=119.83               C4-C3-C2=120.75                H23-C3-C2=121.20               
H23-C3-C4=118.05               C5-C4-C3=119.10                C15-C4-C3=118.82               C15-C4-C5=122.07               
C6-C5-C4=119.70                C7-C5-C4=120.72                C7-C5-C6=119.58                C5-C6-C1=120.57                
H24-C6-C1=121.44               H24-C6-C5=117.99               O8-C7-C5=121.50                C9-C7-C5=116.85                
C9-C7-O8=121.65                C10-C9-C7=116.74               C14-C9-C7=122.30               C14-C9-C10=120.96              
C11-C10-C9=120.34              H25-C10-C9=118.35              H25-C10-C11=121.31             
 
 selected dihedral angles (degree)
 ---------------------------------
C3-C2-C1-C6=  0.04            C3-C2-C1-H21=180.05           H22-C2-C1-C6=179.99           H22-C2-C1-H21=  0.00          
C4-C3-C2-C1=359.86            C4-C3-C2-H22=179.91           H23-C3-C2-C1=179.87           H23-C3-C2-H22=359.92          
C5-C4-C3-C2=  0.11            C5-C4-C3-H23=180.09           C15-C4-C3-C2=179.68           C15-C4-C3-H23=359.66          
C6-C5-C4-C3=  0.03            C6-C5-C4-C15=180.47           C7-C5-C4-C3=180.00            C7-C5-C4-C15=  0.44           
C5-C6-C1-C2=  0.10            C5-C6-C1-H21=180.08           H24-C6-C1-C2=180.05           H24-C6-C1-H21=  0.04          
C1-C6-C5-C4=359.87            C1-C6-C5-C7=179.90            H24-C6-C5-C4=179.91           H24-C6-C5-C7=359.95           
O8-C7-C5-C4=181.05            O8-C7-C5-C6=  1.01            C9-C7-C5-C4=  1.42            C9-C7-C5-C6=181.39            
C10-C9-C7-C5=177.86           C10-C9-C7-O8=358.23           C14-C9-C7-C5=358.08           C14-C9-C7-O8=178.46           
C11-C10-C9-C7=180.46          C11-C10-C9-C14=  0.24         H25-C10-C9-C7=  0.32          H25-C10-C9-C14=180.09         
           -------------------------------------------------
          |                Final Singlepoint                |
           -------------------------------------------------

          ...................................................
          :                      SETUP                      :
          :.................................................:
          :  # basis functions                  93          :
          :  # atomic orbitals                  93          :
          :  # shells                           53          :
          :  # electrons                       100          :
          :  max. iterations                   250          :
          :  Hamiltonian                  GFN2-xTB          :
          :  restarted?                      false          :
          :  GBSA solvation                   true          :
          :  PC potential                    false          :
          :  electronic temp.          300.0000000     K    :
          :  accuracy                    1.0000000          :
          :  -> integral cutoff          0.2500000E+02      :
          :  -> integral neglect         0.1000000E-07      :
          :  -> SCF convergence          0.1000000E-05 Eh   :
          :  -> wf. convergence          0.1000000E-03 e    :
          :  Broyden damping             0.4000000          :
          :  net charge                          0          :
          :  unpaired electrons                  0          :
          ...................................................

 iter      E             dE          RMSdq      gap      omega  full diag
   1    -56.8358815 -0.568359E+02  0.264E-05    1.35       0.0  T
   2    -56.8358815 -0.145661E-11  0.166E-05    1.35    1051.6  T
   3    -56.8358815 -0.639488E-13  0.108E-05    1.35    1611.1  T

   *** convergence criteria satisfied after 3 iterations ***

         #    Occupation            Energy/Eh            Energy/eV
      -------------------------------------------------------------
         1        2.0000           -0.7128576             -19.3978
       ...           ...                  ...                  ...
        44        2.0000           -0.4272576             -11.6263
        45        2.0000           -0.4218674             -11.4796
        46        2.0000           -0.4195945             -11.4177
        47        2.0000           -0.4141519             -11.2696
        48        2.0000           -0.4069652             -11.0741
        49        2.0000           -0.3864611             -10.5161
        50        2.0000           -0.3721233             -10.1260 (HOMO)
        51                         -0.3223514              -8.7716 (LUMO)
        52                         -0.2702654              -7.3543
        53                         -0.2411246              -6.5613
        54                         -0.2295676              -6.2469
        55                         -0.1835966              -4.9959
       ...                                ...                  ...
        93                          0.7114777              19.3603
      -------------------------------------------------------------
                  HL-Gap            0.0497719 Eh            1.3544 eV
             Fermi-level           -0.3472373 Eh           -9.4488 eV

 SCC (total)                   0 d,  0 h,  0 min,  0.030 sec
 SCC setup                      ...        0 min,  0.002 sec (  7.972%)
 Dispersion                     ...        0 min,  0.000 sec (  0.675%)
 classical contributions        ...        0 min,  0.000 sec (  0.166%)
 integral evaluation            ...        0 min,  0.005 sec ( 17.824%)
 iterations                     ...        0 min,  0.005 sec ( 15.447%)
 molecular gradient             ...        0 min,  0.017 sec ( 57.331%)
 printout                       ...        0 min,  0.000 sec (  0.531%)

         :::::::::::::::::::::::::::::::::::::::::::::::::::::
         ::                     SUMMARY                     ::
         :::::::::::::::::::::::::::::::::::::::::::::::::::::
         :: total energy             -56.018965268067 Eh    ::
         :: total w/o Gsasa/hb       -56.011792386942 Eh    ::
         :: gradient norm              0.000071092460 Eh/a0 ::
         :: HOMO-LUMO gap              1.354363672449 eV    ::
         ::.................................................::
         :: SCC energy               -56.835863381766 Eh    ::
         :: -> isotropic ES            0.112267348839 Eh    ::
         :: -> anisotropic ES         -0.002483559590 Eh    ::
         :: -> anisotropic XC          0.018921625317 Eh    ::
         :: -> dispersion             -0.036679862495 Eh    ::
         :: -> Gsolv                  -0.026116646821 Eh    ::
         ::    -> Gelec               -0.018943765696 Eh    ::
         ::    -> Gsasa                0.001069136558 Eh    ::
         ::    -> Ghb                 -0.009322777381 Eh    ::
         ::    -> Gshift               0.001080759698 Eh    ::
         :: repulsion energy           0.816898113699 Eh    ::
         :: add. restraining           0.000000000000 Eh    ::
         :: total charge              -0.000000000000 e     ::
         :::::::::::::::::::::::::::::::::::::::::::::::::::::

           ------------------------------------------------- 
          |                Numerical Hessian                |
           ------------------------------------------------- 
step length          :   0.00500
SCC accuracy         :   0.30000
Hessian scale factor :   1.00000
frozen atoms in %    :   0.00000    0
RMS gradient         :   0.00007
estimated CPU  time      0.11 min
estimated wall time      0.11 min

writing file <hessian>.

 projected vibrational frequencies (cm⁻¹)
eigval :       -0.00    -0.00     0.00     0.00     0.00     0.00
eigval :       22.78    30.40    49.01    64.27    98.71   111.09
eigval :      148.72   168.75   183.92   221.48   255.15   260.85
eigval :      282.08   328.00   361.00   375.84   381.46   386.57
eigval :      410.71   447.59   455.67   463.14   494.84   512.36
eigval :      571.30   602.22   617.97   629.07   660.35   669.98
eigval :      676.64   693.87   761.99   764.88   780.91   803.90
eigval :      851.87   880.73   887.63   894.55   902.94   922.08
eigval :      925.49   928.33   930.61  1020.98  1047.53  1084.57
eigval :     1085.57  1093.93  1115.18  1130.26  1169.57  1170.57
eigval :     1181.53  1188.08  1206.16  1213.41  1233.63  1244.58
eigval :     1261.83  1270.33  1282.70  1315.82  1338.27  1350.41
eigval :     1355.10  1381.68  1417.48  1430.69  1446.39  1458.17
eigval :     1461.53  1493.30  1517.00  1558.39  1570.60  1574.21
eigval :     1588.05  1617.56  2882.26  2907.30  2977.15  3005.21
eigval :     3088.62  3090.04  3093.96  3097.45  3103.05  3106.69
eigval :     3124.77  3270.63  3519.34
           -------------------------------------------------
          |                Property Printout                |
           -------------------------------------------------

    * Orbital Energies and Occupations

         #    Occupation            Energy/Eh            Energy/eV
      -------------------------------------------------------------
         1        2.0000           -0.7128576             -19.3978
       ...           ...                  ...                  ...
        38        2.0000           -0.4632372             -12.6053
        39        2.0000           -0.4561542             -12.4126
        40        2.0000           -0.4509789             -12.2718
        41        2.0000           -0.4476519             -12.1812
        42        2.0000           -0.4430090             -12.0549
        43        2.0000           -0.4342943             -11.8177
        44        2.0000           -0.4272576             -11.6263
        45        2.0000           -0.4218674             -11.4796
        46        2.0000           -0.4195945             -11.4177
        47        2.0000           -0.4141519             -11.2696
        48        2.0000           -0.4069651             -11.0741
        49        2.0000           -0.3864611             -10.5161
        50        2.0000           -0.3721234             -10.1260 (HOMO)
        51                         -0.3223514              -8.7716 (LUMO)
        52                         -0.2702654              -7.3543
        53                         -0.2411246              -6.5613
        54                         -0.2295676              -6.2469
        55                         -0.1835966              -4.9959
        56                         -0.1817732              -4.9463
        57                         -0.1087998              -2.9606
        58                         -0.0598604              -1.6289
        59                          0.0126951               0.3455
        60                          0.0482666               1.3134
        61                          0.0767179               2.0876
       ...                                ...                  ...
        93                          0.7114777              19.3603
      -------------------------------------------------------------
                  HL-Gap            0.0497720 Eh            1.3544 eV
             Fermi-level           -0.3472374 Eh           -9.4488 eV

     #   Z          covCN         q      C6AA      α(0)
     1   6 C        2.917    -0.026    28.650     8.777
     2   6 C        2.918    -0.024    28.610     8.771
     3   6 C        2.924    -0.020    28.511     8.756
     4   6 C        2.976    -0.012    28.312     8.728
     5   6 C        2.976    -0.017    28.441     8.748
     6   6 C        2.923    -0.019    28.474     8.751
     7   6 C        2.836     0.225    23.283     7.907
     8   8 O        0.858    -0.451    22.722     6.391
     9   6 C        2.972    -0.018    28.445     8.748
    10   6 C        2.925    -0.030    28.756     8.794
    11   6 C        2.912    -0.026    28.640     8.776
    12   6 C        2.920    -0.051    29.264     8.871
    13   6 C        2.898     0.093    25.932     8.350
    14   6 C        2.970    -0.055    29.369     8.889
    15   6 C        2.830     0.212    23.512     7.946
    16   8 O        0.858    -0.479    23.335     6.477
    17   7 N        2.691    -0.134    23.906     7.262
    18   6 C        3.737    -0.016    20.938     6.530
    19   6 C        3.673     0.075    19.554     6.337
    20   8 O        1.655    -0.518    23.292     6.515
    21   1 H        0.926     0.067     2.117     2.275
    22   1 H        0.926     0.068     2.106     2.269
    23   1 H        0.926     0.067     2.114     2.273
    24   1 H        0.926     0.063     2.159     2.298
    25   1 H        0.926     0.059     2.209     2.324
    26   1 H        0.926     0.067     2.118     2.276
    27   1 H        0.926     0.070     2.080     2.255
    28   1 H        0.860     0.226     0.981     1.551
    29   1 H        0.924     0.086     1.920     2.167
    30   1 H        0.924     0.075     2.035     2.231
    31   1 H        0.924     0.043     2.411     2.428
    32   1 H        0.924     0.035     2.511     2.478
    33   1 H        0.805     0.363     0.558     1.173

 Mol. C6AA /au·bohr⁶  :      14312.953847
 Mol. C8AA /au·bohr⁸  :     352195.155989
 Mol. α(0) /au        :        188.323529


Wiberg/Mayer (AO) data.
largest (>0.10) Wiberg bond orders for each atom

 ---------------------------------------------------------------------------
     #   Z sym  total        # sym  WBO       # sym  WBO       # sym  WBO
 ---------------------------------------------------------------------------
     1   6 C    3.981 --     6 C    1.448     2 C    1.421    21 H    0.967
     2   6 C    3.982 --     3 C    1.444     1 C    1.421    22 H    0.967
     3   6 C    3.981 --     2 C    1.444     4 C    1.393    23 H    0.964
     4   6 C    3.988 --     3 C    1.393     5 C    1.327    15 C    1.038
     5   6 C    3.988 --     6 C    1.384     4 C    1.327     7 C    1.050
     6   6 C    3.983 --     1 C    1.448     5 C    1.384    24 H    0.965
     7   6 C    3.925 --     8 O    1.703     5 C    1.050     9 C    1.047
     8   8 O    1.980 --     7 C    1.703
     9   6 C    3.988 --    10 C    1.434    14 C    1.282     7 C    1.047
    10   6 C    3.981 --     9 C    1.434    11 C    1.354    25 H    0.965
    11   6 C    3.986 --    12 C    1.531    10 C    1.354    26 H    0.966
    12   6 C    3.982 --    11 C    1.531    13 C    1.250    27 H    0.960
    13   6 C    3.973 --    17 N    1.319    12 C    1.250    14 C    1.237
    14   6 C    3.979 --     9 C    1.282    13 C    1.237    15 C    1.143
    15   6 C    3.940 --    16 O    1.611    14 C    1.143     4 C    1.038
    16   8 O    1.982 --    15 C    1.611
    17   7 N    3.501 --    13 C    1.319    18 C    1.005    28 H    0.881
    18   6 C    3.967 --    17 N    1.005    19 C    0.986    29 H    0.968
                            30 H    0.961
    19   6 C    3.953 --    20 O    0.996    18 C    0.986    32 H    0.969
                            31 H    0.968
    20   8 O    1.902 --    19 C    0.996    33 H    0.855
    21   1 H    0.995 --     1 C    0.967
    22   1 H    0.994 --     2 C    0.967
    23   1 H    0.995 --     3 C    0.964
    24   1 H    0.996 --     6 C    0.965
    25   1 H    0.996 --    10 C    0.965
    26   1 H    0.994 --    11 C    0.966
    27   1 H    0.994 --    12 C    0.960
    28   1 H    0.948 --    17 N    0.881
    29   1 H    0.992 --    18 C    0.968
    30   1 H    0.994 --    18 C    0.961
    31   1 H    0.997 --    19 C    0.968
    32   1 H    0.999 --    19 C    0.969
    33   1 H    0.868 --    20 O    0.855
 ---------------------------------------------------------------------------

Topologies differ in total number of bonds
Writing topology from bond orders to xtbtopo.mol

molecular dipole:
                 x           y           z       tot (Debye)
 q only:        2.139      -0.281      -0.133
   full:        2.135      -0.173      -0.313       5.502
molecular quadrupole (traceless):
                xx          xy          yy          xz          yz          zz
 q only:       25.669      20.949     -19.622      -1.440       3.651      -6.047
  q+dip:       29.234      22.731     -19.186      -2.629       3.015     -10.048
   full:       26.145      22.595     -22.549      -4.305       3.994      -3.597

           -------------------------------------------------
          |                Geometry Summary                 |
           -------------------------------------------------

      molecular mass/u    :      267.2799221
   center of mass at/Å    :        0.0000189       0.0001452       0.0011421
  moments of inertia/u·Å² :        0.8222928E+03   0.2158952E+04   0.2837027E+04
rotational constants/cm⁻¹ :        0.2050077E-01   0.7808248E-02   0.5942005E-02

 * 31 selected distances

     #   Z          #   Z                                           value/Å
     1   6 C        2   6 C                                       1.3880955
     2   6 C        3   6 C                                       1.3825459
     3   6 C        4   6 C                                       1.3932944
     4   6 C        5   6 C                                       1.3991716
     1   6 C        6   6 C                                       1.3818978
     5   6 C        6   6 C                                       1.3939354
     7   6 C        8   8 O                                       1.2296589
     9   6 C       10   6 C                                       1.3843524
    10   6 C       11   6 C                                       1.3920443
    11   6 C       12   6 C                                       1.3689112
    12   6 C       13   6 C                                       1.4172924
     9   6 C       14   6 C                                       1.4150221
    13   6 C       14   6 C                                       1.4299969
    15   6 C       16   8 O                                       1.2428035
    13   6 C       17   7 N                                       1.3395627
    17   7 N       18   6 C                                       1.4401263
    18   6 C       19   6 C                                       1.5351616 (max)
    19   6 C       20   8 O                                       1.4132945
     1   6 C       21   1 H                                       1.0785968
     2   6 C       22   1 H                                       1.0787168
     3   6 C       23   1 H                                       1.0799864
     6   6 C       24   1 H                                       1.0800194
    10   6 C       25   1 H                                       1.0791050
    11   6 C       26   1 H                                       1.0786787
    12   6 C       27   1 H                                       1.0767628
    17   7 N       28   1 H                                       1.0174579
    18   6 C       29   1 H                                       1.0903945
    18   6 C       30   1 H                                       1.0911925
    19   6 C       31   1 H                                       1.0972949
    19   6 C       32   1 H                                       1.0974989
    20   8 O       33   1 H                                       0.9655496 (min)

 * 6 distinct bonds (by element types)

   Z      Z             #   av. dist./Å        max./Å        min./Å
   1 H    6 C          11     1.0843861     1.0974989     1.0767628
   6 C    6 C          13     1.4062863     1.5351616     1.3689112
   1 H    7 N           1     1.0174579     1.0174579     1.0174579
   6 C    7 N           2     1.3898445     1.4401263     1.3395627
   1 H    8 O           1     0.9655496     0.9655496     0.9655496
   6 C    8 O           3     1.2952523     1.4132945     1.2296589

           -------------------------------------------------
          |               Frequency Printout                |
           -------------------------------------------------
 projected vibrational frequencies (cm⁻¹)
eigval :       -0.00    -0.00     0.00     0.00     0.00     0.00
eigval :       22.78    30.40    49.01    64.27    98.71   111.09
eigval :      148.72   168.75   183.92   221.48   255.15   260.85
eigval :      282.08   328.00   361.00   375.84   381.46   386.57
eigval :      410.71   447.59   455.67   463.14   494.84   512.36
eigval :      571.30   602.22   617.97   629.07   660.35   669.98
eigval :      676.64   693.87   761.99   764.88   780.91   803.90
eigval :      851.87   880.73   887.63   894.55   902.94   922.08
eigval :      925.49   928.33   930.61  1020.98  1047.53  1084.57
eigval :     1085.57  1093.93  1115.18  1130.26  1169.57  1170.57
eigval :     1181.53  1188.08  1206.16  1213.41  1233.63  1244.58
eigval :     1261.83  1270.33  1282.70  1315.82  1338.27  1350.41
eigval :     1355.10  1381.68  1417.48  1430.69  1446.39  1458.17
eigval :     1461.53  1493.30  1517.00  1558.39  1570.60  1574.21
eigval :     1588.05  1617.56  2882.26  2907.30  2977.15  3005.21
eigval :     3088.62  3090.04  3093.96  3097.45  3103.05  3106.69
eigval :     3124.77  3270.63  3519.34
 reduced masses (amu)
   1: 12.01   2: 11.87   3: 12.08   4: 12.29   5: 12.19   6: 12.45   7: 12.79   8: 13.53
   9: 13.18  10: 12.11  11: 10.36  12: 11.14  13: 11.99  14: 10.88  15: 10.12  16: 10.60
  17:  2.77  18: 11.38  19: 11.72  20: 13.25  21: 11.37  22: 10.25  23:  9.80  24: 10.73
  25: 14.90  26:  9.80  27: 10.28  28: 12.81  29: 10.55  30: 10.52  31: 11.46  32: 11.18
  33:  9.16  34:  5.13  35: 11.16  36: 10.45  37: 11.29  38: 10.34  39: 10.65  40: 11.48
  41:  4.76  42:  5.41  43: 10.10  44:  4.09  45:  9.67  46:  3.61  47:  9.58  48:  3.61
  49:  8.75  50:  4.07  51:  3.55  52: 10.26  53:  7.25  54:  8.93  55:  7.62  56:  9.16
  57:  6.60  58:  6.67  59:  5.00  60:  2.51  61:  5.20  62:  2.70  63:  3.20  64:  6.66
  65:  4.29  66:  2.87  67:  8.07  68:  6.22  69:  8.23  70:  4.05  71: 12.01  72:  4.95
  73:  9.91  74: 10.09  75:  9.66  76:  9.16  77:  2.92  78:  9.63  79:  1.81  80: 11.13
  81: 11.26  82: 12.43  83: 11.74  84: 11.89  85: 11.99  86: 13.01  87:  1.99  88:  1.42
  89:  1.75  90:  1.72  91:  1.77  92:  1.80  93:  1.78  94:  1.85  95:  1.87  96:  1.92
  97:  1.85  98:  1.86  99:  1.88
 IR intensities (km·mol⁻¹)
   1:  0.37   2:  0.01   3:  0.17   4:  0.36   5:  0.10   6:  0.11   7:  9.09   8:  2.14
   9:  1.95  10:  1.14  11:  6.20  12:  9.82  13:  4.04  14:  2.74  15:  2.29  16: 11.53
  17:194.33  18:  9.78  19:  2.71  20:  2.96  21:  6.92  22:  7.37  23:  4.68  24:  1.46
  25: 45.35  26:  1.35  27:  9.87  28:  0.63  29: 12.73  30:  9.43  31: 14.70  32:  8.00
  33: 23.96  34:107.13  35:  8.64  36: 14.85  37:  7.67  38: 70.83  39:  0.06  40:  1.46
  41:  0.94  42: 19.53  43: 19.20  44:  0.34  45: 17.03  46:  0.01  47: 10.57  48:  0.05
  49:  1.61  50:  0.03  51:  0.03  52:112.74  53: 15.82  54: 38.93  55: 22.54  56: 28.29
  57: 23.25  58: 46.66  59:  3.76  60:  3.29  61: 75.01  62: 22.99  63: 29.67  64: 27.65
  65:  4.31  66: 44.21  67:188.51  68: 29.56  69:976.48  70: 51.08  71: 24.94  72: 14.44
  73:  4.72  74: 61.81  75: 36.65  76:232.56  77: 51.71  78: 21.29  79:  4.52  80:528.69
  81:185.14  82:414.68  83:408.20  84: 33.09  85:558.93  86:405.99  87: 93.09  88: 68.78
  89: 48.69  90: 24.54  91:  8.33  92:  0.74  93: 15.75  94: 46.99  95: 48.27  96: 84.20
  97: 28.45  98:163.43  99: 81.00
 Raman intensities (Ä⁴*amu⁻¹)
   1:  0.00   2:  0.00   3:  0.00   4:  0.00   5:  0.00   6:  0.00   7:  0.00   8:  0.00
   9:  0.00  10:  0.00  11:  0.00  12:  0.00  13:  0.00  14:  0.00  15:  0.00  16:  0.00
  17:  0.00  18:  0.00  19:  0.00  20:  0.00  21:  0.00  22:  0.00  23:  0.00  24:  0.00
  25:  0.00  26:  0.00  27:  0.00  28:  0.00  29:  0.00  30:  0.00  31:  0.00  32:  0.00
  33:  0.00  34:  0.00  35:  0.00  36:  0.00  37:  0.00  38:  0.00  39:  0.00  40:  0.00
  41:  0.00  42:  0.00  43:  0.00  44:  0.00  45:  0.00  46:  0.00  47:  0.00  48:  0.00
  49:  0.00  50:  0.00  51:  0.00  52:  0.00  53:  0.00  54:  0.00  55:  0.00  56:  0.00
  57:  0.00  58:  0.00  59:  0.00  60:  0.00  61:  0.00  62:  0.00  63:  0.00  64:  0.00
  65:  0.00  66:  0.00  67:  0.00  68:  0.00  69:  0.00  70:  0.00  71:  0.00  72:  0.00
  73:  0.00  74:  0.00  75:  0.00  76:  0.00  77:  0.00  78:  0.00  79:  0.00  80:  0.00
  81:  0.00  82:  0.00  83:  0.00  84:  0.00  85:  0.00  86:  0.00  87:  0.00  88:  0.00
  89:  0.00  90:  0.00  91:  0.00  92:  0.00  93:  0.00  94:  0.00  95:  0.00  96:  0.00
  97:  0.00  98:  0.00  99:  0.00
 output can be read by thermo (or use thermo option).
 writing <g98.out> molden fake output.
 recommended (thermochemical) frequency scaling factor: 1.0
           -------------------------------------------------
          |             Thermodynamic Functions             |
           -------------------------------------------------

Molecule has no symmetry elements
It seems to be the C1 point group
c1  symmetry found (for desy threshold:  0.10E+00) used in thermo

          ...................................................
          :                      SETUP                      :
          :.................................................:
          :  # frequencies                          93      :
          :  # imaginary freq.                       0      :
          :  linear?                             false      :
          :  only rotor calc.                    false      :
          :  symmetry                               c1      :
          :  rotational number                       1      :
          :  scaling factor                  1.0000000      :
          :  rotor cutoff                    0.0000000 cm⁻¹ :
          :  imag. cutoff                 -100.0000000 cm⁻¹ :
          :.................................................:

    mode    ω/cm⁻¹     T·S(HO)/kcal·mol⁻¹    T·S(FR)/kcal·mol⁻¹   T·S(vib)
   ------------------------------------------------------------------------
       1     22.78    -1.90090 (100.00%)    -1.28931 (  0.00%)    -1.90090
       2     30.40    -1.73019 (100.00%)    -1.20386 (  0.00%)    -1.73019
       3     49.01    -1.44814 (100.00%)    -1.06244 (  0.00%)    -1.44814
       4     64.27    -1.28844 (100.00%)    -0.98211 (  0.00%)    -1.28844
       5     98.71    -1.03748 (100.00%)    -0.85504 (  0.00%)    -1.03748
       6    111.09    -0.96894 (100.00%)    -0.82004 (  0.00%)    -0.96894
       7    148.72    -0.80157 (100.00%)    -0.73361 (  0.00%)    -0.80157
       8    168.75    -0.73027 (100.00%)    -0.69619 (  0.00%)    -0.73027
       9    183.92    -0.68223 (100.00%)    -0.67068 (  0.00%)    -0.68223
      10    221.48    -0.58048 (100.00%)    -0.61564 (  0.00%)    -0.58048
      11    255.15    -0.50528 (100.00%)    -0.57372 (  0.00%)    -0.50528
      12    260.85    -0.49376 (100.00%)    -0.56717 (  0.00%)    -0.49376
      13    282.08    -0.45349 (100.00%)    -0.54399 (  0.00%)    -0.45349
   ------------------------------------------------------------------------

   temp. (K)  partition function   enthalpy   heat capacity  entropy
                                   cal/mol     cal/K/mol   cal/K/mol   J/K/mol
 298.15  VIB  0.192E+07             8960.363     60.697     58.809
         ROT  0.542E+07              888.752      2.981     33.795
         INT  0.104E+14             9849.115     63.678     92.604
         TR   0.423E+28             1481.254      4.968     42.629
         TOT                       11330.3688    68.6463   135.2328   565.8139

       T/K    H(0)-H(T)+PV         H(T)/Eh          T*S/Eh         G(T)/Eh
   ------------------------------------------------------------------------
    298.15    0.180561E-01    0.266406E+00    0.642535E-01    0.202153E+00
   ------------------------------------------------------------------------

         :::::::::::::::::::::::::::::::::::::::::::::::::::::
         ::                  THERMODYNAMIC                  ::
         :::::::::::::::::::::::::::::::::::::::::::::::::::::
         :: total free energy         -55.816812304394 Eh   ::
         ::.................................................::
         :: total energy              -56.018965267928 Eh   ::
         :: zero point energy           0.248350325449 Eh   ::
         :: G(RRHO) w/o ZPVE           -0.046197361915 Eh   ::
         :: G(RRHO) contrib.            0.202152963534 Eh   ::
         :::::::::::::::::::::::::::::::::::::::::::::::::::::

optimized geometry written to: xtbopt.coord


           -------------------------------------------------
          | TOTAL ENERGY              -56.018965267928 Eh   |
          | TOTAL ENTHALPY            -55.752558850429 Eh   |
          | TOTAL FREE ENERGY         -55.816812304394 Eh   |
          | GRADIENT NORM               0.000071042534 Eh/α |
          | HOMO-LUMO GAP               1.354365256150 eV   |
           -------------------------------------------------

------------------------------------------------------------------------
 * finished run on 2025/04/11 at 18:22:01.171     
------------------------------------------------------------------------
 total:
 * wall-time:     0 d,  0 h,  0 min,  7.369 sec
 *  cpu-time:     0 d,  0 h,  0 min,  7.245 sec
 * ratio c/w:     0.983 speedup
 SCF:
 * wall-time:     0 d,  0 h,  0 min,  0.057 sec
 *  cpu-time:     0 d,  0 h,  0 min,  0.046 sec
 * ratio c/w:     0.804 speedup
 ANC optimizer:
 * wall-time:     0 d,  0 h,  0 min,  0.608 sec
 *  cpu-time:     0 d,  0 h,  0 min,  0.587 sec
 * ratio c/w:     0.965 speedup
 analytical hessian:
 * wall-time:     0 d,  0 h,  0 min,  6.624 sec
 *  cpu-time:     0 d,  0 h,  0 min,  6.591 sec
 * ratio c/w:     0.995 speedup

