      -----------------------------------------------------------      
     |                   =====================                   |     
     |                           x T B                           |     
     |                   =====================                   |     
     |                         S. Grimme                         |     
     |          Mulliken Center for Theoretical Chemistry        |     
     |                    University of Bonn                     |     
      -----------------------------------------------------------      

   * xtb version 6.7.1 (edcfbbe) compiled by 'albert@albert-system' on 2024-07-22

   xtb is free software: you can redistribute it and/or modify it under
   the terms of the GNU Lesser General Public License as published by
   the Free Software Foundation, either version 3 of the License, or
   (at your option) any later version.
   
   xtb is distributed in the hope that it will be useful,
   but WITHOUT ANY WARRANTY; without even the implied warranty of
   MERCHANTABILITY or FITNESS FOR A PARTICULAR PURPOSE.  See the
   GNU Lesser General Public License for more details.
   
   Cite this work as:
   * C. Bannwarth, E. Caldeweyher, S. Ehlert, A. Hansen, P. Pracht,
     J. Seibert, S. Spicher, S. Grimme, WIREs Comput. Mol. Sci., 2020, 11,
     e01493. DOI: 10.1002/wcms.1493
   
   for GFN2-xTB:
   * C. Bannwarth, S. Ehlert and S. Grimme., J. Chem. Theory Comput., 2019,
     15, 1652-1671. DOI: 10.1021/acs.jctc.8b01176
   for GFN1-xTB:
   * S. Grimme, C. Bannwarth, P. Shushkov, J. Chem. Theory Comput., 2017,
     13, 1989-2009. DOI: 10.1021/acs.jctc.7b00118
   for GFN0-xTB:
   * P. Pracht, E. Caldeweyher, S. Ehlert, S. Grimme, ChemRxiv, 2019, preprint.
     DOI: 10.26434/chemrxiv.8326202.v1
   for GFN-FF:
   * S. Spicher and S. Grimme, Angew. Chem. Int. Ed., 2020, 59, 15665-15673.
     DOI: 10.1002/anie.202004239
   
   for ALPB and GBSA implicit solvation:
   * S. Ehlert, M. Stahn, S. Spicher, S. Grimme, J. Chem. Theory Comput.,
     2021, 17, 4250-4261. DOI: 10.1021/acs.jctc.1c00471
   
   for ddCOSMO and CPCM-X implicit solvation:
   * M. Stahn, S. Ehlert, S. Grimme, J. Phys. Chem. A,
     2023, XX, XXXX-XXXX. DOI: 10.1021/acs.jpca.3c04382
   
   for DFT-D4:
   * E. Caldeweyher, C. Bannwarth and S. Grimme, J. Chem. Phys., 2017,
     147, 034112. DOI: 10.1063/1.4993215
   * E. Caldeweyher, S. Ehlert, A. Hansen, H. Neugebauer, S. Spicher,
     C. Bannwarth and S. Grimme, J. Chem. Phys., 2019, 150, 154122.
     DOI: 10.1063/1.5090222
   * E. Caldeweyher, J.-M. Mewes, S. Ehlert and S. Grimme, Phys. Chem. Chem. Phys.
     2020, 22, 8499-8512. DOI: 10.1039/D0CP00502A
   
   for sTDA-xTB:
   * S. Grimme and C. Bannwarth, J. Chem. Phys., 2016, 145, 054103.
     DOI: 10.1063/1.4959605
   
   in the mass-spec context:
   * V. Asgeirsson, C. Bauer and S. Grimme, Chem. Sci., 2017, 8, 4879.
     DOI: 10.1039/c7sc00601b
   * J. Koopman and S. Grimme, ACS Omega 2019, 4, 12, 15120-15133.
     DOI: 10.1021/acsomega.9b02011
   
   for metadynamics refer to:
   * S. Grimme, J. Chem. Theory Comput., 2019, 155, 2847-2862
     DOI: 10.1021/acs.jctc.9b00143
   
   for SPH calculations refer to:
   * S. Spicher and S. Grimme, J. Chem. Theory Comput., 2021, 17, 1701-1714
     DOI: 10.1021/acs.jctc.0c01306
   
   for ONIOM refer to:
   * C. Plett, A. Katbashev, S. Ehlert, S. Grimme, M. Bursch,
     Phys. Chem. Chem. Phys., 2023, 25, 17860-17868. DOI: 10.1039/D3CP02178E
   
   for DIPRO refer to:
   * J. Kohn, N. Gildemeister, S. Grimme, D. Fazzi, A. Hansen,
     J. Chem. Phys., 2023, just accepted.
   
   for PTB refer to:
   * S. Grimme, M. Mueller, A. Hansen, J. Chem. Phys., 2023, 158, 124111.
     DOI: 10.1063/5.0137838
   
   with help from (in alphabetical order)
   P. Atkinson, C. Bannwarth, F. Bohle, G. Brandenburg, E. Caldeweyher
   M. Checinski, S. Dohm, S. Ehlert, S. Ehrlich, I. Gerasimov, C. Hölzer
   A. Katbashev, J. Kohn, J. Koopman, C. Lavigne, S. Lehtola, F. März, M. Müller,
   F. Musil, H. Neugebauer, J. Pisarek, C. Plett, P. Pracht, F. Pultar,
   J. Seibert, P. Shushkov, S. Spicher, M. Stahn, M. Steiner, T. Strunk,
   J. Stückrath, T. Rose, and J. Unsleber
   
 * started run on 2025/04/11 at 12:29:37.906     
   ID    Z sym.   atoms
    1    6 C      1-4
    2    7 N      5
    3    1 H      6-16

           -------------------------------------------------
          |                Calculation Setup                |
           -------------------------------------------------

          program call               : /srv/scratch/z5358697/.xtb/bin/xtb gas.coord --gfn2 --sp --chrg 0 --norestart --parallel 1
          hostname                   : k077
          coordinate file            : gas.coord
          omp threads                :                     1


           -------------------------------------------------
          |                 G F N 2 - x T B                 |
           -------------------------------------------------

        Reference                      10.1021/acs.jctc.8b01176
      * Hamiltonian:
        H0-scaling (s, p, d)           1.850000    2.230000    2.230000
        zeta-weighting                 0.500000
      * Dispersion:
        s8                             2.700000
        a1                             0.520000
        a2                             5.000000
        s9                             5.000000
      * Repulsion:
        kExp                           1.500000    1.000000
        rExp                           1.000000
      * Coulomb:
        alpha                          2.000000
        third order                    shell-resolved
        anisotropic                    true
        a3                             3.000000
        a5                             4.000000
        cn-shift                       1.200000
        cn-exp                         4.000000
        max-rad                        5.000000


          ...................................................
          :                      SETUP                      :
          :.................................................:
          :  # basis functions                  31          :
          :  # atomic orbitals                  31          :
          :  # shells                           21          :
          :  # electrons                        32          :
          :  max. iterations                   250          :
          :  Hamiltonian                  GFN2-xTB          :
          :  restarted?                      false          :
          :  GBSA solvation                  false          :
          :  PC potential                    false          :
          :  electronic temp.          300.0000000     K    :
          :  accuracy                    1.0000000          :
          :  -> integral cutoff          0.2500000E+02      :
          :  -> integral neglect         0.1000000E-07      :
          :  -> SCF convergence          0.1000000E-05 Eh   :
          :  -> wf. convergence          0.1000000E-03 e    :
          :  Broyden damping             0.4000000          :
          :  net charge                          0          :
          :  unpaired electrons                  0          :
          ...................................................

 iter      E             dE          RMSdq      gap      omega  full diag
   1    -17.2855715 -0.172856E+02  0.287E+00   10.86       0.0  T
   2    -17.3203581 -0.347866E-01  0.157E+00   11.09       1.0  T
   3    -17.3214800 -0.112192E-02  0.714E-01   11.24       1.0  T
   4    -17.3215811 -0.101125E-03  0.102E-01   11.23       1.0  T
   5    -17.3215968 -0.156548E-04  0.462E-02   11.22       1.0  T
   6    -17.3215979 -0.115596E-05  0.153E-02   11.21       1.6  T
   7    -17.3215981 -0.143767E-06  0.153E-03   11.21      16.3  T
   8    -17.3215981 -0.273223E-08  0.671E-04   11.21      37.2  T
   9    -17.3215981 -0.817927E-09  0.128E-04   11.21     194.9  T

   *** convergence criteria satisfied after 9 iterations ***

         #    Occupation            Energy/Eh            Energy/eV
      -------------------------------------------------------------
         1        2.0000           -0.6299758             -17.1425
       ...           ...                  ...                  ...
        10        2.0000           -0.4687647             -12.7557
        11        2.0000           -0.4645788             -12.6418
        12        2.0000           -0.4532459             -12.3334
        13        2.0000           -0.4371401             -11.8952
        14        2.0000           -0.4360358             -11.8651
        15        2.0000           -0.4245489             -11.5526
        16        2.0000           -0.3657055              -9.9514 (HOMO)
        17                          0.0464356               1.2636 (LUMO)
        18                          0.0802773               2.1845
        19                          0.1127030               3.0668
        20                          0.1276629               3.4739
        21                          0.1483143               4.0358
       ...                                ...                  ...
        31                          0.3070121               8.3542
      -------------------------------------------------------------
                  HL-Gap            0.4121411 Eh           11.2149 eV
             Fermi-level           -0.1596350 Eh           -4.3439 eV

 SCC (total)                   0 d,  0 h,  0 min,  0.009 sec
 SCC setup                      ...        0 min,  0.000 sec (  1.863%)
 Dispersion                     ...        0 min,  0.000 sec (  0.785%)
 classical contributions        ...        0 min,  0.000 sec (  0.187%)
 integral evaluation            ...        0 min,  0.001 sec ( 10.145%)
 iterations                     ...        0 min,  0.005 sec ( 52.741%)
 molecular gradient             ...        0 min,  0.003 sec ( 32.328%)
 printout                       ...        0 min,  0.000 sec (  1.804%)

         :::::::::::::::::::::::::::::::::::::::::::::::::::::
         ::                     SUMMARY                     ::
         :::::::::::::::::::::::::::::::::::::::::::::::::::::
         :: total energy             -17.083450228146 Eh    ::
         :: gradient norm              0.003540608630 Eh/a0 ::
         :: HOMO-LUMO gap             11.214929303863 eV    ::
         ::.................................................::
         :: SCC energy               -17.321592045511 Eh    ::
         :: -> isotropic ES            0.013001004572 Eh    ::
         :: -> anisotropic ES          0.005776895496 Eh    ::
         :: -> anisotropic XC          0.013384978461 Eh    ::
         :: -> dispersion             -0.007672702673 Eh    ::
         :: repulsion energy           0.238141817364 Eh    ::
         :: add. restraining           0.000000000000 Eh    ::
         :: total charge               0.000000000000 e     ::
         :::::::::::::::::::::::::::::::::::::::::::::::::::::

           -------------------------------------------------
          |                Property Printout                |
           -------------------------------------------------

    * Orbital Energies and Occupations

         #    Occupation            Energy/Eh            Energy/eV
      -------------------------------------------------------------
         1        2.0000           -0.6299758             -17.1425
       ...           ...                  ...                  ...
         4        2.0000           -0.5668993             -15.4261
         5        2.0000           -0.5594987             -15.2247
         6        2.0000           -0.5319767             -14.4758
         7        2.0000           -0.5067008             -13.7880
         8        2.0000           -0.5049101             -13.7393
         9        2.0000           -0.4957521             -13.4901
        10        2.0000           -0.4687647             -12.7557
        11        2.0000           -0.4645788             -12.6418
        12        2.0000           -0.4532459             -12.3334
        13        2.0000           -0.4371401             -11.8952
        14        2.0000           -0.4360358             -11.8651
        15        2.0000           -0.4245489             -11.5526
        16        2.0000           -0.3657055              -9.9514 (HOMO)
        17                          0.0464356               1.2636 (LUMO)
        18                          0.0802773               2.1845
        19                          0.1127030               3.0668
        20                          0.1276629               3.4739
        21                          0.1483143               4.0358
        22                          0.1601829               4.3588
        23                          0.1690660               4.6005
        24                          0.1727259               4.7001
        25                          0.1869048               5.0859
        26                          0.2029552               5.5227
        27                          0.2290418               6.2325
       ...                                ...                  ...
        31                          0.3070121               8.3542
      -------------------------------------------------------------
                  HL-Gap            0.4121411 Eh           11.2149 eV
             Fermi-level           -0.1596350 Eh           -4.3439 eV

     #   Z          covCN         q      C6AA      α(0)
     1   6 C        3.752    -0.102    22.504     6.765
     2   6 C        3.801    -0.054    21.545     6.609
     3   6 C        3.801    -0.066    21.774     6.644
     4   6 C        3.732     0.014    20.425     6.451
     5   7 N        2.628    -0.343    28.834     7.975
     6   1 H        0.925     0.034     2.532     2.488
     7   1 H        0.925     0.034     2.529     2.487
     8   1 H        0.925     0.034     2.532     2.488
     9   1 H        0.924     0.029     2.595     2.519
    10   1 H        0.924     0.029     2.595     2.519
    11   1 H        0.924     0.026     2.639     2.540
    12   1 H        0.924     0.026     2.639     2.540
    13   1 H        0.924     0.033     2.550     2.497
    14   1 H        0.924     0.033     2.550     2.497
    15   1 H        0.860     0.136     1.499     1.918
    16   1 H        0.860     0.136     1.499     1.918

 Mol. C6AA /au·bohr⁶  :       1661.512868
 Mol. C8AA /au·bohr⁸  :      33686.917988
 Mol. α(0) /au        :         60.856180


Wiberg/Mayer (AO) data.
largest (>0.10) Wiberg bond orders for each atom

 ---------------------------------------------------------------------------
     #   Z sym  total        # sym  WBO       # sym  WBO       # sym  WBO
 ---------------------------------------------------------------------------
     1   6 C    3.997 --     2 C    1.019     8 H    0.988     6 H    0.988
                             7 H    0.987
     2   6 C    3.998 --     1 C    1.019     3 C    1.007     9 H    0.979
                            10 H    0.979
     3   6 C    3.997 --     2 C    1.007     4 C    0.993    12 H    0.978
                            11 H    0.978
     4   6 C    3.986 --     5 N    1.027     3 C    0.993    14 H    0.975
                            13 H    0.975
     5   7 N    3.009 --     4 C    1.027    15 H    0.968    16 H    0.968
     6   1 H    0.999 --     1 C    0.988
     7   1 H    0.998 --     1 C    0.987
     8   1 H    0.999 --     1 C    0.988
     9   1 H    0.999 --     2 C    0.979
    10   1 H    0.999 --     2 C    0.979
    11   1 H    0.999 --     3 C    0.978
    12   1 H    0.999 --     3 C    0.978
    13   1 H    0.999 --     4 C    0.975
    14   1 H    0.999 --     4 C    0.975
    15   1 H    0.981 --     5 N    0.968
    16   1 H    0.981 --     5 N    0.968
 ---------------------------------------------------------------------------

Topologies differ in total number of bonds
Writing topology from bond orders to xtbtopo.mol

molecular dipole:
                 x           y           z       tot (Debye)
 q only:        0.202      -0.139       0.000
   full:        0.461      -0.416       0.000       1.579
molecular quadrupole (traceless):
                xx          xy          yy          xz          yz          zz
 q only:       -1.713       1.434       1.019      -0.001       0.000       0.694
  q+dip:       -6.139       3.214       2.548      -0.001       0.000       3.591
   full:       -5.501       3.428       2.510      -0.001       0.000       2.991


           -------------------------------------------------
          | TOTAL ENERGY              -17.083450228146 Eh   |
          | GRADIENT NORM               0.003540608630 Eh/α |
          | HOMO-LUMO GAP              11.214929303863 eV   |
           -------------------------------------------------

------------------------------------------------------------------------
 * finished run on 2025/04/11 at 12:29:38.281     
------------------------------------------------------------------------
 total:
 * wall-time:     0 d,  0 h,  0 min,  0.374 sec
 *  cpu-time:     0 d,  0 h,  0 min,  0.016 sec
 * ratio c/w:     0.043 speedup
 SCF:
 * wall-time:     0 d,  0 h,  0 min,  0.009 sec
 *  cpu-time:     0 d,  0 h,  0 min,  0.009 sec
 * ratio c/w:     0.988 speedup

