
                                 *****************
                                 * O   R   C   A *
                                 *****************

                                            #,                                       
                                            ###                                      
                                            ####                                     
                                            #####                                    
                                            ######                                   
                                           ########,                                 
                                     ,,################,,,,,                         
                               ,,#################################,,                 
                          ,,##########################################,,             
                       ,#########################################, ''#####,          
                    ,#############################################,,   '####,        
                  ,##################################################,,,,####,       
                ,###########''''           ''''###############################       
              ,#####''   ,,,,##########,,,,          '''####'''          '####       
            ,##' ,,,,###########################,,,                        '##       
           ' ,,###''''                  '''############,,,                           
         ,,##''                                '''############,,,,        ,,,,,,###''
      ,#''                                            '''#######################'''  
     '                                                          ''''####''''         
             ,#######,   #######,   ,#######,      ##                                
            ,#'     '#,  ##    ##  ,#'     '#,    #''#        ,####,   ,####,        
            ##       ##  ##   ,#'  ##            #'  '#       #'       #'  '#        
            ##       ##  #######   ##           ,######,      #####,   #    #        
            '#,     ,#'  ##    ##  '#,     ,#' ,#      #,     #,   #   #,  ,#        
             '#######'   ##     ##  '#######'  #'      '#     '####' # '####'        



                #########################################################
                #                        -***-                          #
                #          Department of theory and spectroscopy        #
                #                                                       #
                #                      Frank Neese                      #
                #                                                       #
                #     Directorship, Architecture, Infrastructure        #
                #                    SHARK, DRIVERS                     #
                #        Core code/Algorithms in most modules           #
                #                                                       #
                #        Max Planck Institute fuer Kohlenforschung      #
                #                Kaiser Wilhelm Platz 1                 #
                #                 D-45470 Muelheim/Ruhr                 #
                #                      Germany                          #
                #                                                       #
                #                  All rights reserved                  #
                #                        -***-                          #
                #########################################################


                         Program Version 6.0.0  -   RELEASE  -


 With contributions from (in alphabetic order):
   Daniel Aravena         : Magnetic Suceptibility
   Michael Atanasov       : Ab Initio Ligand Field Theory (pilot matlab implementation)
   Alexander A. Auer      : GIAO ZORA, VPT2 properties, NMR spectrum
   Ute Becker             : All parallelization in ORCA, NUMFREQ, NUMCALC
   Giovanni Bistoni       : ED, misc. LED, open-shell LED, HFLD
   Martin Brehm           : Molecular dynamics
   Dmytro Bykov           : pre 5.0 version of the SCF Hessian
   Marcos Casanova-Páez   : Triplet and SCS-CIS(D). UHF-(DLPNO)-IP/EA/STEOM-CCSD. UHF-CVS-IP/STEOM-CCSD
   Vijay G. Chilkuri      : MRCI spin determinant printing, contributions to CSF-ICE
   Pauline Colinet        : FMM embedding
   Dipayan Datta          : RHF DLPNO-CCSD density
   Achintya Kumar Dutta   : EOM-CC, STEOM-CC
   Nicolas Foglia         : Exact transition moments, OPA infrastructure, MCD improvements
   Dmitry Ganyushin       : Spin-Orbit,Spin-Spin,Magnetic field MRCI
   Miquel Garcia          : C-PCM and meta-GGA Hessian, CCSD/C-PCM, Gaussian charge scheme
   Tiago L. C. Gouveia    : GS-ROHF, GS-ROCIS
   Yang Guo               : DLPNO-NEVPT2, F12-NEVPT2, CIM, IAO-localization
   Andreas Hansen         : Spin unrestricted coupled pair/coupled cluster methods
   Ingolf Harden          : AUTO-CI MPn and infrastructure 
   Benjamin Helmich-Paris : MC-RPA, TRAH-(SCF,CASSCF), AVAS, COSX integrals, SCF dyn. polar.
   Lee Huntington         : MR-EOM, pCC
   Robert Izsak           : Overlap fitted RIJCOSX, COSX-SCS-MP3, EOM
   Riya Kayal             : Wick's Theorem for AUTO-CI, AUTO-CI UHF-CCSDT
   Emily Kempfer          : AUTO-CI, RHF CISDT and CCSDT
   Christian Kollmar      : KDIIS, OOCD, Brueckner-CCSD(T), CCSD density, CASPT2, CASPT2-K, improved NEVPT2
   Axel Koslowski         : Symmetry handling
   Simone Kossmann        : Meta GGA functionals, TD-DFT gradient, OOMP2, (MP2 Hessian; deprecated post 5.0)
   Lucas Lang             : DCDCAS
   Marvin Lechner         : AUTO-CI (C++ implementation), FIC-MRCC
   Spencer Leger          : CASSCF response
   Dagmar Lenk            : GEPOL surface, SMD, ORCA-2-JSON
   Dimitrios Liakos       : Extrapolation schemes; Compound Job, initial MDCI parallelization
   Dimitrios Manganas     : Further ROCIS development; embedding schemes. LFT, Crystal Embedding
   Dimitrios Pantazis     : SARC Basis sets
   Anastasios Papadopoulos: AUTO-CI, single reference methods and gradients
   Taras Petrenko         : pre 6.0 DFT Hessian and TD-DFT gradient, (ASA, deprecated), ECA, 1-Electron XAS/XES, NRVS
   Peter Pinski           : DLPNO-MP2, DLPNO-MP2 Gradient
   Christoph Reimann      : Effective Core Potentials
   Marius Retegan         : Local ZFS, SOC
   Christoph Riplinger    : Optimizer, TS searches, QM/MM, DLPNO-CCSD(T), (RO)-DLPNO pert. Triples
   Michael Roemelt        : Original ROCIS implementation
   Masaaki Saitow         : Open-shell DLPNO-CCSD energy and density
   Barbara Sandhoefer     : DKH picture change effects
   Kantharuban Sivalingam : CASSCF convergence/infrastructure, NEVPT2 and variants, FIC-MRCI
   Bernardo de Souza      : ESD, SOC TD-DFT
   Georgi Stoychev        : AutoAux, RI-MP2 NMR, DLPNO-MP2 response, X2C
   Van Anh Tran           : RI-MP2 g-tensors
   Willem Van den Heuvel  : Paramagnetic NMR
   Zikuan Wang            : NOTCH, Electric field optimization 
   Frank Wennmohs         : Technical directorship and infrastructure
   Hang Xu                : AUTO-CI-Response properties 


 We gratefully acknowledge several colleagues who have allowed us to
 interface, adapt or use parts of their codes:
   Stefan Grimme, W. Hujo, H. Kruse, P. Pracht,  : VdW corrections, initial TS optimization,
                  C. Bannwarth, S. Ehlert,         DFT functionals, gCP, sTDA/sTD-DF
                  L. Wittmann, M. Mueller
   Ed Valeev, F. Pavosevic, A. Kumar             : LibInt (2-el integral package), F12 methods
   Garnet Chan, S. Sharma, J. Yang, R. Olivares  : DMRG
   Ulf Ekstrom                                   : XCFun DFT Library
   Mihaly Kallay                                 : mrcc  (arbitrary order and MRCC methods)
   Frank Weinhold                                : gennbo (NPA and NBO analysis)
   Simon Mueller                                 : openCOSMO-RS
   Christopher J. Cramer and Donald G. Truhlar   : smd solvation model
   Lars Goerigk                                  : TD-DFT with DH, B97 family of functionals
   V. Asgeirsson, H. Jonsson                     : NEB implementation
   FAccTs GmbH                                   : IRC, NEB, NEB-TS, DLPNO-Multilevel, CI-OPT
                                                   MM, QMMM, 2- and 3-layer-ONIOM, Crystal-QMMM,
                                                   LR-CPCM, SF, NACMEs, symmetry and pop. for TD-DFT,
                                                   nearIR, NL-DFT gradient (VV10), updates on ESD,
                                                   ML-optimized integration grids, MBIS, APM,
                                                   GOAT, DOCKER, SOLVATOR, interface openCOSMO-RS
   S Lehtola, MJT Oliveira, MAL Marques          : LibXC Library
   Liviu Ungur et al                             : ANISO software


 Your calculation uses the libint2 library for the computation of 2-el integrals
 For citations please refer to: http://libint.valeyev.net

 Your ORCA version has been built with support for libXC version: 6.2.2
 For citations please refer to: https://libxc.gitlab.io

 This ORCA versions uses:
   CBLAS   interface :  Fast vector & matrix operations
   LAPACKE interface :  Fast linear algebra routines
   SCALAPACK package :  Parallel linear algebra routines
   Shared memory     :  Shared parallel matrices
   BLAS/LAPACK       :  OpenBLAS 0.3.27  USE64BITINT DYNAMIC_ARCH NO_AFFINITY SkylakeX SINGLE_THREADED
        Core in use  :  SkylakeX
   Copyright (c) 2011-2014, The OpenBLAS Project


Your calculation utilizes the geometrical counterpoise correction gCP
Please cite in your paper:
H.Kruse, S. Grimme J.Chem.Phys., 136, (2012), 154101 
   

Your calculation utilizes the atom-pairwise dispersion correction
based on EEQ partial charges (D4)


Your calculation utilizes the SMD solvation module
Please cite in your paper:
A.V. Marenich, C.J. Cramer, D.G. Truhlar J. Phys. Chem. B, 113, (2009), 6378 

================================================================================

----- Orbital basis set information -----
Your calculation utilizes the basis: def2-mTZVPP
   Stefan Grimme, Andreas Hansen, Sebastian Ehlert, and Jan-Michael Mewes 
   J. Chem. Phys. 154, 064103 (2021). DOI: 10.1063/5.0040021

----- AuxJ basis set information -----
Your calculation utilizes the auxiliary basis: def2/J
   F. Weigend, Phys. Chem. Chem. Phys. 8, 1057 (2006).

================================================================================
                                        WARNINGS
                       Please study these warnings very carefully!
================================================================================

Using LibXC functional ID 497 : Re-regularized SCAN exchange by Furness et al
[ 1]  J. W. Furness, A. D. Kaplan, J. Ning, J. P. Perdew, and J. Sun.,  J. Phys. Chem. Lett. 11, 8208-8215 (2020)
[ 2]  J. W. Furness, A. D. Kaplan, J. Ning, J. P. Perdew, and J. Sun.,  J. Phys. Chem. Lett. 11, 9248-9248 (2020)
Using LibXC functional ID 498 : Re-regularized SCAN correlation by Furness et al
[ 1]  J. W. Furness, A. D. Kaplan, J. Ning, J. P. Perdew, and J. Sun.,  J. Phys. Chem. Lett. 11, 8208-8215 (2020)
[ 2]  J. W. Furness, A. D. Kaplan, J. Ning, J. P. Perdew, and J. Sun.,  J. Phys. Chem. Lett. 11, 9248-9248 (2020)
Using LibXC functional ID 497 : Re-regularized SCAN exchange by Furness et al
[ 1]  J. W. Furness, A. D. Kaplan, J. Ning, J. P. Perdew, and J. Sun.,  J. Phys. Chem. Lett. 11, 8208-8215 (2020)
[ 2]  J. W. Furness, A. D. Kaplan, J. Ning, J. P. Perdew, and J. Sun.,  J. Phys. Chem. Lett. 11, 9248-9248 (2020)
Using LibXC functional ID 498 : Re-regularized SCAN correlation by Furness et al
[ 1]  J. W. Furness, A. D. Kaplan, J. Ning, J. P. Perdew, and J. Sun.,  J. Phys. Chem. Lett. 11, 8208-8215 (2020)
[ 2]  J. W. Furness, A. D. Kaplan, J. Ning, J. P. Perdew, and J. Sun.,  J. Phys. Chem. Lett. 11, 9248-9248 (2020)

================================================================================
                                       INPUT FILE
================================================================================
NAME = sp_solv.inp
|  1> ! r2scan-3c def2/J RI DEFGRID2 scfconv6 printgap
|  2> %output
|  3>     printlevel normal
|  4> end
|  5> %cpcm
|  6>     smd true
|  7>     smdsolvent "water"
|  8> end
|  9> * xyz 0 1
| 10> C -3.3323392639 -0.6672264733 0.7692548919
| 11> C -2.8220634621 0.1543436497 -0.4095552945
| 12> C -1.4067629815 0.6894603316 -0.1967151635
| 13> C -0.3571647102 -0.4184600088 -0.116137991
| 14> C 1.0437577647 0.1297529641 -0.1951634657
| 15> O 1.3637333683 1.1598425678 -0.7497895035
| 16> O 1.9055966182 -0.6753652176 0.4180711304
| 17> C 3.2970913517 -0.3383146765 0.4145096438
| 18> H -2.752308638 -1.5775748647 0.8918208915
| 19> H -3.2703486324 -0.089934117 1.688858972
| 20> H -4.3708760338 -0.9460747892 0.6094774673
| 21> H -2.846632593 -0.4537421441 -1.3159572593
| 22> H -3.4887574263 1.0048568553 -0.5641218625
| 23> H -1.3744332948 1.2827056142 0.719326406
| 24> H -1.1399199248 1.3506472821 -1.0240639476
| 25> H -0.4770948888 -1.0978122922 -0.964399458
| 26> H -0.4436545331 -1.0026776906 0.7987460482
| 27> H 3.8166753818 -1.0328983987 -0.2440223811
| 28> H 3.6535521838 -0.4452808484 1.4362134978
| 29> H 3.4288015958 0.685073347 0.0616382115
| 30> *
| 31> 
| 32>                          ****END OF INPUT****
================================================================================

                       ****************************
                       * Single Point Calculation *
                       ****************************

---------------------------------
CARTESIAN COORDINATES (ANGSTROEM)
---------------------------------
  C     -3.332339   -0.667226    0.769255
  C     -2.822063    0.154344   -0.409555
  C     -1.406763    0.689460   -0.196715
  C     -0.357165   -0.418460   -0.116138
  C      1.043758    0.129753   -0.195163
  O      1.363733    1.159843   -0.749790
  O      1.905597   -0.675365    0.418071
  C      3.297091   -0.338315    0.414510
  H     -2.752309   -1.577575    0.891821
  H     -3.270349   -0.089934    1.688859
  H     -4.370876   -0.946075    0.609477
  H     -2.846633   -0.453742   -1.315957
  H     -3.488757    1.004857   -0.564122
  H     -1.374433    1.282706    0.719326
  H     -1.139920    1.350647   -1.024064
  H     -0.477095   -1.097812   -0.964399
  H     -0.443655   -1.002678    0.798746
  H      3.816675   -1.032898   -0.244022
  H      3.653552   -0.445281    1.436213
  H      3.428802    0.685073    0.061638

----------------------------
CARTESIAN COORDINATES (A.U.)
----------------------------
  NO LB      ZA    FRAG     MASS         X           Y           Z
   0 C     6.0000    0    12.011   -6.297209   -1.260875    1.453681
   1 C     6.0000    0    12.011   -5.332927    0.291667   -0.773947
   2 C     6.0000    0    12.011   -2.658397    1.302891   -0.371738
   3 C     6.0000    0    12.011   -0.674943   -0.790775   -0.219469
   4 C     6.0000    0    12.011    1.972416    0.245198   -0.368806
   5 O     8.0000    0    15.999    2.577083    2.191785   -1.416897
   6 O     8.0000    0    15.999    3.601056   -1.276255    0.790040
   7 C     6.0000    0    12.011    6.230600   -0.639322    0.783310
   8 H     1.0000    0     1.008   -5.201110   -2.981184    1.685297
   9 H     1.0000    0     1.008   -6.180063   -0.169951    3.191481
  10 H     1.0000    0     1.008   -8.259759   -1.787822    1.151745
  11 H     1.0000    0     1.008   -5.379356   -0.857448   -2.486799
  12 H     1.0000    0     1.008   -6.592796    1.898904   -1.066036
  13 H     1.0000    0     1.008   -2.597303    2.423962    1.359330
  14 H     1.0000    0     1.008   -2.154136    2.552353   -1.935200
  15 H     1.0000    0     1.008   -0.901579   -2.074565   -1.822451
  16 H     1.0000    0     1.008   -0.838386   -1.894786    1.509411
  17 H     1.0000    0     1.008    7.212471   -1.951895   -0.461135
  18 H     1.0000    0     1.008    6.904213   -0.841459    2.714050
  19 H     1.0000    0     1.008    6.479496    1.294601    0.116479

--------------------------------
INTERNAL COORDINATES (ANGSTROEM)
--------------------------------
 C      0   0   0     0.000000000000     0.00000000     0.00000000
 C      1   0   0     1.524779432072     0.00000000     0.00000000
 C      2   1   0     1.527981097723   113.01583349     0.00000000
 C      3   2   1     1.528278996949   112.92944353    65.32620414
 C      4   3   2     1.506441591960   111.84491402   168.12128571
 O      5   4   3     1.212880464166   125.33750996   332.86347883
 O      5   4   3     1.329299878041   110.99680317   153.47442264
 C      7   5   4     1.431737875730   119.10333571   178.22481605
 H      1   2   3     1.086366487409   111.10362760   294.60891213
 H      1   2   3     1.087557339717   110.40325750    55.16300870
 H      1   2   3     1.087126409911   110.13778452   174.78207258
 H      2   1   3     1.091758442426   109.52441058   122.19729841
 H      2   1   3     1.091670453362   108.95764699   239.67031923
 H      3   2   1     1.091841257245   109.54692632   303.34528621
 H      3   2   1     1.092190189927   109.43845979   185.81662908
 H      4   3   2     1.093366493495   109.52394641    50.04190628
 H      4   3   2     1.088946093421   112.25199881   290.03023152
 H      8   7   5     1.089072329691   108.36333627   251.47869864
 H      8   7   5     1.087375212165   107.04413527   132.37431536
 H      8   7   5     1.090499373121   109.82300158    11.89859021

---------------------------
INTERNAL COORDINATES (A.U.)
---------------------------
 C      0   0   0     0.000000000000     0.00000000     0.00000000
 C      1   0   0     2.881415541252     0.00000000     0.00000000
 C      2   1   0     2.887465812505   113.01583349     0.00000000
 C      3   2   1     2.888028760458   112.92944353    65.32620414
 C      4   3   2     2.846762045553   111.84491402   168.12128571
 O      5   4   3     2.292011910457   125.33750996   332.86347883
 O      5   4   3     2.512012719353   110.99680317   153.47442264
 C      7   5   4     2.705592480693   119.10333571   178.22481605
 H      1   2   3     2.052935142272   111.10362760   294.60891213
 H      1   2   3     2.055185527001   110.40325750    55.16300870
 H      1   2   3     2.054371187685   110.13778452   174.78207258
 H      2   1   3     2.063124460581   109.52441058   122.19729841
 H      2   1   3     2.062958185348   108.95764699   239.67031923
 H      3   2   1     2.063280957908   109.54692632   303.34528621
 H      3   2   1     2.063940345117   109.43845979   185.81662908
 H      4   3   2     2.066163236711   109.52394641    50.04190628
 H      4   3   2     2.057809891168   112.25199881   290.03023152
 H      8   7   5     2.058048443148   108.36333627   251.47869864
 H      8   7   5     2.054841355806   107.04413527   132.37431536
 H      8   7   5     2.060745164412   109.82300158    11.89859021

---------------------
BASIS SET INFORMATION
---------------------
There are 3 groups of distinct atoms

 Group   1 Type C   : 11s6p1d contracted to 5s3p1d pattern {62111/411/1}
 Group   2 Type O   : 11s6p2d contracted to 5s3p2d pattern {62111/411/11}
 Group   3 Type H   : 4s1p contracted to 2s1p pattern {31/1}

Atom   0C    basis set group =>   1
Atom   1C    basis set group =>   1
Atom   2C    basis set group =>   1
Atom   3C    basis set group =>   1
Atom   4C    basis set group =>   1
Atom   5O    basis set group =>   2
Atom   6O    basis set group =>   2
Atom   7C    basis set group =>   1
Atom   8H    basis set group =>   3
Atom   9H    basis set group =>   3
Atom  10H    basis set group =>   3
Atom  11H    basis set group =>   3
Atom  12H    basis set group =>   3
Atom  13H    basis set group =>   3
Atom  14H    basis set group =>   3
Atom  15H    basis set group =>   3
Atom  16H    basis set group =>   3
Atom  17H    basis set group =>   3
Atom  18H    basis set group =>   3
Atom  19H    basis set group =>   3
---------------------------------
AUXILIARY/J BASIS SET INFORMATION
---------------------------------
There are 3 groups of distinct atoms

 Group   1 Type C   : 12s5p4d2f1g contracted to 6s4p3d1f1g pattern {711111/2111/211/2/1}
 Group   2 Type O   : 12s5p4d2f1g contracted to 6s4p3d1f1g pattern {711111/2111/211/2/1}
 Group   3 Type H   : 5s2p1d contracted to 3s1p1d pattern {311/2/1}

Atom   0C    basis set group =>   1
Atom   1C    basis set group =>   1
Atom   2C    basis set group =>   1
Atom   3C    basis set group =>   1
Atom   4C    basis set group =>   1
Atom   5O    basis set group =>   2
Atom   6O    basis set group =>   2
Atom   7C    basis set group =>   1
Atom   8H    basis set group =>   3
Atom   9H    basis set group =>   3
Atom  10H    basis set group =>   3
Atom  11H    basis set group =>   3
Atom  12H    basis set group =>   3
Atom  13H    basis set group =>   3
Atom  14H    basis set group =>   3
Atom  15H    basis set group =>   3
Atom  16H    basis set group =>   3
Atom  17H    basis set group =>   3
Atom  18H    basis set group =>   3
Atom  19H    basis set group =>   3

Checking for AutoStart:
The File: sp_solv.gbw exists
Trying to determine its content:
     ... Fine, the file contains calculation information
     ... Fine, the calculation information was read
     ... Fine, the file contains a basis set
     ... Fine, the basis set was read
     ... Fine, the file contains a geometry
     ... Fine, the geometry was read
     ... Fine, the file contains a set of orbitals
     ... Fine, the orbitals can be read
     => possible old guess file was deleted
     => GBW file was renamed to GES file
     => GES file is set as startup file
     => Guess is set to MORead
     ... now leaving AutoStart

------------------------------------------------------------------------------
                             ORCA STARTUP CALCULATIONS
                           -- RI-GTO INTEGRALS CHOSEN --
------------------------------------------------------------------------------
------------------------------------------------------------------------------
                   ___                                                        
                  /   \      - P O W E R E D   B Y -                         
                 /     \                                                     
                 |  |  |   _    _      __       _____    __    __             
                 |  |  |  | |  | |    /  \     |  _  \  |  |  /  |          
                  \  \/   | |  | |   /    \    | | | |  |  | /  /          
                 / \  \   | |__| |  /  /\  \   | |_| |  |  |/  /          
                |  |  |   |  __  | /  /__\  \  |    /   |      \           
                |  |  |   | |  | | |   __   |  |    \   |  |\   \          
                \     /   | |  | | |  |  |  |  | |\  \  |  | \   \       
                 \___/    |_|  |_| |__|  |__|  |_| \__\ |__|  \__/        
                                                                              
                      - O R C A' S   B I G   F R I E N D -                    
                                      &                                       
                       - I N T E G R A L  F E E D E R -                       
                                                                              
 v1 FN, 2020, v2 2021, v3 2022-2024                                           
------------------------------------------------------------------------------


----------------------
SHARK INTEGRAL PACKAGE
----------------------

Number of atoms                             ...     20
Number of basis functions                   ...    222
Number of shells                            ...    110
Maximum angular momentum                    ...      2
Integral batch strategy                     ... SHARK/LIBINT Hybrid
RI-J (if used) integral strategy            ... SPLIT-RIJ (Revised 2003 algorithm where possible)
Printlevel                                  ...      1
Contraction scheme used                     ... SEGMENTED contraction
Prescreening option                         ... SCHWARTZ
   Thresh                                   ... 1.000e-10
   Tcut                                     ... 1.000e-11
   Tpresel                                  ... 1.000e-11 
Coulomb Range Separation                    ... NOT USED
Exchange Range Separation                   ... NOT USED
Multipole approximations                    ... NOT USED
Finite Nucleus Model                        ... NOT USED
CABS basis                                  ... NOT available
Auxiliary Coulomb fitting basis             ... AVAILABLE
   # of basis functions in Aux-J            ...    524
   # of shells in Aux-J                     ...    180
   Maximum angular momentum in Aux-J        ...      4
Auxiliary J/K fitting basis                 ... NOT available
Auxiliary Correlation fitting basis         ... NOT available
Auxiliary 'external' fitting basis          ... NOT available

Checking pre-screening integrals            ... done (  0.0 sec) Dimension = 110
Check shell pair data                       ... done (  0.0 sec)
Shell pair information
Shell pair cut-off parameter TPreSel        ...   1.0e-11
Total number of shell pairs                 ...      6105
Shell pairs after pre-screening             ...      5165
Total number of primitive shell pairs       ...     21533
Primitive shell pairs kept                  ...     12888
          la=0 lb=0:   1731 shell pairs
          la=1 lb=0:   1951 shell pairs
          la=1 lb=1:    572 shell pairs
          la=2 lb=0:    550 shell pairs
          la=2 lb=1:    313 shell pairs
          la=2 lb=2:     48 shell pairs

Calculating one electron integrals          ... done (  0.0 sec)
Calculating RI/J V-Matrix + Cholesky decomp.... done (  0.1 sec)
Calculating Nuclear repulsion               ... done (  0.0 sec) ENN=    384.149198646457 Eh

Diagonalization of the overlap matrix:
Smallest eigenvalue                        ... 1.150e-04
Time for diagonalization                   ...    0.005 sec
Threshold for overlap eigenvalues          ... 1.000e-07
Number of eigenvalues below threshold      ... 0
Time for construction of square roots      ...    0.020 sec
Total time needed                          ...    0.038 sec

-------------------
DFT GRID GENERATION
-------------------

General Integration Accuracy     IntAcc      ... 4.388
Radial Grid Type                 RadialGrid  ... OptM3 with GC (2021)
Angular Grid (max. ang.)         AngularGrid ... 4 (Lebedev-302)
Angular grid pruning method      GridPruning ... 4 (adaptive)
Weight generation scheme         WeightScheme... mBecke (2022)
Basis function cutoff            BFCut       ... 1.0000e-10
Integration weight cutoff        WCut        ... 1.0000e-14
Partially contracted basis set               ... off
Rotationally invariant grid construction     ... off
Angular grids for H and He will be reduced by one unit
Diffuse basis detected: some atoms will have their outermost
                        angular grid increased by 1.

Total number of grid points                  ...    87402
Total number of batches                      ...     1376
Average number of points per batch           ...       63
Average number of grid points per atom       ...     4370
Initializing property integral containers    ... done (  0.0 sec)

SHARK setup successfully completed in   1.2 seconds

Maximum memory used throughout the entire STARTUP-calculation: 39.1 MB
-------------------------------------------------------------------------------
                                 ORCA GUESS
                   Start orbitals & Density for SCF / CASSCF
-------------------------------------------------------------------------------

------------
SCF SETTINGS
------------
Hamiltonian:
 Density Functional     Method          .... DFT(GTOs)
  Functional kind                       .... Exchange
  Functional name                       .... Re-regularized SCAN exchange by Furness et al
  Functional family                     .... MGGA
  Functional refs                              
    [ 0] J. W. Furness, A. D. Kaplan, J. Ning, J. P. Perdew, and J. Sun.,  J. Phys. Chem. Lett. 11, 8208-8215 (2020), doi: 10.1021/acs.jpclett.0c02405
    [ 1] J. W. Furness, A. D. Kaplan, J. Ning, J. P. Perdew, and J. Sun.,  J. Phys. Chem. Lett. 11, 9248-9248 (2020), doi: 10.1021/acs.jpclett.0c03077
  Functional external parameters        .... 6
    Parameter  0 _c1        =  6.670000e-01 : c1 parameter        
    Parameter  1 _c2        =  8.000000e-01 : c2 parameter        
    Parameter  2 _d         =  1.240000e+00 : d parameter         
    Parameter  3 _k1        =  6.500000e-02 : k1 parameter        
    Parameter  4 _eta       =  1.000000e-03 : eta parameter       
    Parameter  5 _dp2       =  3.610000e-01 : dp2 parameter       
  Functional kind                       .... Correlation
  Functional name                       .... Re-regularized SCAN correlation by Furness et al
  Functional family                     .... MGGA
  Functional refs                              
    [ 0] J. W. Furness, A. D. Kaplan, J. Ning, J. P. Perdew, and J. Sun.,  J. Phys. Chem. Lett. 11, 8208-8215 (2020), doi: 10.1021/acs.jpclett.0c02405
    [ 1] J. W. Furness, A. D. Kaplan, J. Ning, J. P. Perdew, and J. Sun.,  J. Phys. Chem. Lett. 11, 9248-9248 (2020), doi: 10.1021/acs.jpclett.0c03077
  Functional external parameters        .... 1
    Parameter  0 _eta       =  1.000000e-03 : Regularization parameter
 Gradients option       PostSCFGGA      .... off
 RI-approximation to the Coulomb term is turned on
   Number of AuxJ basis functions       .... 524


General Settings:
 Integral files         IntName         .... sp_solv
 Hartree-Fock type      HFTyp           .... RHF
 Total Charge           Charge          ....    0
 Multiplicity           Mult            ....    1
 Number of Electrons    NEL             ....   64
 Basis Dimension        Dim             ....  222
 Nuclear Repulsion      ENuc            ....    384.1491986465 Eh

Convergence Acceleration:
 AO-DIIS                CNVDIIS         .... on
   Start iteration      DIISMaxIt       ....    12
   Startup error        DIISStart       ....  0.200000
   # of expansion vecs  DIISMaxEq       ....     5
   Bias factor          DIISBfac        ....   1.050
   Max. coefficient     DIISMaxC        ....  10.000
 MO-DIIS                CNVKDIIS        .... off
 Trust-Rad. Augm. Hess. CNVTRAH         .... auto
   Auto Start mean grad. ratio tolernc. ....  1.125000
   Auto Start start iteration           ....     1
   Auto Start num. interpolation iter.  ....    10
   Max. Number of Micro iterations      ....    24
   Max. Number of Macro iterations      .... Maxiter - #DIIS iter
   Number of Davidson start vectors     ....     2
   Converg. threshold    (grad. norm)   ....   3.330e-04
   Grad. Scal. Fac. for Micro threshold ....   0.100
   Minimum threshold for Micro iter.    ....   1.000e-02
   NR start threshold (gradient norm)   ....   1.000e-04
   Initial trust radius                 ....   0.400
   Minimum AH scaling param. (alpha)    ....   1.000
   Maximum AH scaling param. (alpha)    .... 1000.000
   Quad. conv. algorithm                .... NR
   White noise on init. David. guess    .... on
   Maximum white noise                  ....   0.010
   Pseudo random numbers                .... off
   Inactive MOs                         .... canonical
   Orbital update algorithm             .... Taylor
   Preconditioner                       .... Diag
   Full preconditioner red. dimension   ....   250
   COSX micro iterations for RIJONX calc.... off
 SOSCF                  CNVSOSCF        .... on
   Start iteration      SOSCFMaxIt      ....   150
   Startup grad/error   SOSCFStart      ....  0.003300
   Hessian update       SOSCFHessUp     .... L-BFGS
 Level Shifting         CNVShift        .... on
   Level shift para.    LevelShift      ....    0.2500
   Turn off err/grad.   ShiftErr        ....    0.0010
 Zerner damping         CNVZerner       .... off
 Static damping         CNVDamp         .... on
   Fraction old density DampFac         ....    0.7000
   Max. Damping (<1)    DampMax         ....    0.9800
   Min. Damping (>=0)   DampMin         ....    0.0000
   Turn off err/grad.   DampErr         ....    0.1000

SCF Procedure:
 Maximum # iterations   MaxIter         ....   125
 SCF integral mode      SCFMode         .... Direct
   Integral package                     .... SHARK and LIBINT hybrid scheme
 Reset frequency        DirectResetFreq ....    20
 Integral Threshold     Thresh          ....  1.000e-10 Eh
 Primitive CutOff       TCut            ....  1.000e-11 Eh

Convergence Tolerance:
 Convergence Check Mode ConvCheckMode   .... Total+1el-Energy
 Convergence forced     ConvForced      .... 0
 Energy Change          TolE            ....  1.000e-06 Eh
 1-El. energy change                    ....  1.000e-03 Eh
 Orbital Gradient       TolG            ....  3.330e-04
 Orbital Rotation angle TolX            ....  3.330e-04
 DIIS Error             TolErr          ....  1.000e-06

---------------------
INITIAL GUESS: MOREAD
---------------------
Guess MOs are being read from file: sp_solv.ges
Input Geometry matches current geometry (good)
Atom 0: N(Shells)= 9 and 6 - projection required
Input basis set needs projection
NBasis(read)= 136
NBasis(calc)= 222
Basis set overlap was calculated
Using GuessMode=FMatrix for the initial guess
C*T matrix was formed
Effective Fockian was calculated
Effective Fockian was diagonalized
Initial density was built
                      ------------------
                      INITIAL GUESS DONE (   0.0 sec)
                      ------------------
             **** ENERGY FILE WAS UPDATED (sp_solv.en.tmp) ****
Finished Guess after   0.3 sec
Maximum memory used throughout the entire GUESS-calculation: 14.8 MB

-------------------------------------------------------------------------------------------
                                      ORCA LEAN-SCF
                              memory conserving SCF solver
-------------------------------------------------------------------------------------------

--------------------
CPCM SOLVATION MODEL
--------------------
CPCM parameters:
  Epsilon                                         ...      78.3550
  Refrac                                          ...       1.3328
  Rsolv                                           ...       1.3000
  Surface type                                    ... GAUSSIAN VDW
  Discretization scheme                           ... Constant charge density
    Threshold for H atoms                         ...       5.0000 (charges/Ang^2)
    Threshold for non-H atoms                     ...       5.0000 (charges/Ang^2)
  Epsilon function type                           ...         CPCM
Solvent:                                          ... WATER
SMD-CDS solvent descriptors:
  Soln                                            ...       1.3328
  Soln25                                          ...       1.3323
  Sola                                            ...       0.0000
  Solb                                            ...       0.0000
  Solg                                            ...       0.0000
  Solc                                            ...       0.0000
  Solh                                            ...       0.0000
Radii:
  Scheme                                          ... Element-dependent radii
  Radius for C  used is    3.4960 Bohr (=   1.8500 Ang.)
  Radius for O  used is    2.8724 Bohr (=   1.5200 Ang.)
  Radius for H  used is    2.2677 Bohr (=   1.2000 Ang.)
Calculating surface                               ...        done! (  0.0s)
Cavity surface points                             ...         1493
Cavity Volume                                     ...     880.0712
Cavity Surface-area                               ...     584.4290
Calculating surface distance matrix               ...        done! (  0.0s)
Performing Cholesky decomposition & store         ...        done! (  0.1s)
Overall time for CPCM initialization              ...                 0.1s

----------------------------------------D-I-I-S--------------------------------------------
Iteration    Energy (Eh)           Delta-E    RMSDP     MaxDP     DIISErr   Damp  Time(sec)
-------------------------------------------------------------------------------------------
               ***  Starting incremental Fock matrix formation  ***
    1    -386.0505854788381725     0.00e+00  3.63e-03  1.21e-01  6.26e-01  0.700   3.3
    2    -386.1094112212130653    -5.88e-02  2.93e-03  8.90e-02  4.41e-01  0.700   3.1
    3    -386.1510145557379587    -4.16e-02  2.14e-03  6.28e-02  3.10e-01  0.700   3.0
    4    -386.1802493681039437    -2.92e-02  1.54e-03  4.42e-02  2.17e-01  0.700   3.0
                               ***Turning on AO-DIIS***
    5    -386.2007740431739080    -2.05e-02  1.11e-03  3.17e-02  1.52e-01  0.700   2.9
    6    -386.2151623758097116    -1.44e-02  7.90e-04  2.24e-02  1.06e-01  0.700   2.9
    7    -386.2252619258254640    -1.01e-02  5.57e-04  1.58e-02  7.42e-02  0.700   2.8
    8    -386.2323398666080152    -7.08e-03  1.31e-03  3.69e-02  5.21e-02  0.000   2.8
                              *** Initializing SOSCF ***
---------------------------------------S-O-S-C-F--------------------------------------
Iteration    Energy (Eh)           Delta-E    RMSDP     MaxDP     MaxGrad    Time(sec)
--------------------------------------------------------------------------------------
    9    -386.2488864204875085    -1.65e-02  1.17e-05  4.07e-04  1.87e-04     2.9
               *** Restarting incremental Fock matrix formation ***
   10    -386.2488865208225093    -1.00e-07  6.87e-06  1.76e-04  5.50e-05     3.3
                  *** Gradient check signals convergence ***

               *****************************************************
               *                     SUCCESS                       *
               *           SCF CONVERGED AFTER  10 CYCLES          *
               *****************************************************


SMD CDS free energy correction energy :                 5.49182     Kcal/mol
Total Energy after SMD CDS correction =              -386.240134743 Eh
             **** ENERGY FILE WAS UPDATED (sp_solv.en.tmp) ****

----------------
TOTAL SCF ENERGY
----------------

Total Energy       :       -386.24013474285834 Eh          -10510.12839 eV

Components:
Nuclear Repulsion  :        384.14919864645714 Eh           10453.23113 eV
Electronic Energy  :       -770.38262997688469 Eh          -20963.17711 eV
One Electron Energy:      -1285.63096987947392 Eh          -34983.79723 eV
Two Electron Energy:        515.24833990258924 Eh           14020.62012 eV
CPCM Dielectric    :         -0.01545519039497 Eh              -0.42056 eV
SMD CDS (Gcds)     :          0.00875177796418 Eh               0.23815 eV

Virial components:
Potential Energy   :       -770.88210770666979 Eh          -20976.76859 eV
Kinetic Energy     :        384.64197296381144 Eh           10466.64020 eV
Virial Ratio       :          2.00415493339620

DFT components:
N(Alpha)           :       31.999994412657 electrons
N(Beta)            :       31.999994412657 electrons
N(Total)           :       63.999988825313 electrons
E(X)               :      -52.084867645812 Eh       
E(C)               :       -2.038597486241 Eh       
E(XC)              :      -54.123465132053 Eh       

CPCM Solvation Model Properties:
Surface-charge          :         -0.04772593398434
Corrected charge        :         -0.00000000000000
Outlying charge corr.   :          0.00017018600141 Eh               0.00463 eV
Free-energy (cav+disp)  :          0.00875177796418 Eh               0.23815 eV

---------------
SCF CONVERGENCE
---------------

  Last Energy change         ...    1.0034e-07  Tolerance :   1.0000e-06
  Last MAX-Density change    ...    1.7599e-04  Tolerance :   1.0000e-05
  Last RMS-Density change    ...    6.8732e-06  Tolerance :   1.0000e-06
  Last DIIS Error            ...    1.8690e-04  Tolerance :   1.0000e-06
  Last Orbital Gradient      ...    5.5005e-05  Tolerance :   3.3300e-04
  Last Orbital Rotation      ...    1.2540e-04  Tolerance :   3.3300e-04


----------------
ORBITAL ENERGIES
----------------

  NO   OCC          E(Eh)            E(eV) 
   0   2.0000     -19.003555      -517.1130 
   1   2.0000     -18.943721      -515.4849 
   2   2.0000     -10.162994      -276.5491 
   3   2.0000     -10.074672      -274.1458 
   4   2.0000     -10.035200      -273.0717 
   5   2.0000     -10.022221      -272.7185 
   6   2.0000     -10.018411      -272.6148 
   7   2.0000     -10.007679      -272.3228 
   8   2.0000      -1.078269       -29.3412 
   9   2.0000      -0.989384       -26.9225 
  10   2.0000      -0.770371       -20.9629 
  11   2.0000      -0.722337       -19.6558 
  12   2.0000      -0.677935       -18.4476 
  13   2.0000      -0.614494       -16.7212 
  14   2.0000      -0.543754       -14.7963 
  15   2.0000      -0.522268       -14.2116 
  16   2.0000      -0.473507       -12.8848 
  17   2.0000      -0.459348       -12.4995 
  18   2.0000      -0.450984       -12.2719 
  19   2.0000      -0.423626       -11.5275 
  20   2.0000      -0.405873       -11.0444 
  21   2.0000      -0.396006       -10.7759 
  22   2.0000      -0.368960       -10.0399 
  23   2.0000      -0.360577        -9.8118 
  24   2.0000      -0.350050        -9.5253 
  25   2.0000      -0.324855        -8.8398 
  26   2.0000      -0.320693        -8.7265 
  27   2.0000      -0.293960        -7.9991 
  28   2.0000      -0.292169        -7.9503 
  29   2.0000      -0.288330        -7.8459 
  30   2.0000      -0.278340        -7.5740 
  31   2.0000      -0.254168        -6.9162 
  32   0.0000      -0.020669        -0.5624 
  33   0.0000       0.074450         2.0259 
  34   0.0000       0.097261         2.6466 
  35   0.0000       0.109328         2.9750 
  36   0.0000       0.127649         3.4735 
  37   0.0000       0.136396         3.7115 
  38   0.0000       0.146103         3.9757 
  39   0.0000       0.148725         4.0470 
  40   0.0000       0.156310         4.2534 
  41   0.0000       0.170963         4.6521 
  42   0.0000       0.173308         4.7159 
*Only the first 10 virtual orbitals were printed.

                    ********************************
                    * MULLIKEN POPULATION ANALYSIS *
                    ********************************

-----------------------
MULLIKEN ATOMIC CHARGES
-----------------------
   0 C :   -0.525000
   1 C :   -0.244834
   2 C :   -0.270961
   3 C :   -0.354878
   4 C :    0.435771
   5 O :   -0.521760
   6 O :   -0.213187
   7 C :   -0.321704
   8 H :    0.160857
   9 H :    0.156108
  10 H :    0.156897
  11 H :    0.146869
  12 H :    0.153583
  13 H :    0.157786
  14 H :    0.159784
  15 H :    0.203388
  16 H :    0.186674
  17 H :    0.175879
  18 H :    0.174319
  19 H :    0.184409
Sum of atomic charges:    0.0000000

--------------------------------
MULLIKEN REDUCED ORBITAL CHARGES
--------------------------------
  0 C s       :     3.339036  s :     3.339036
      pz      :     0.998187  p :     3.158898
      px      :     1.104305
      py      :     1.056406
      dz2     :     0.007322  d :     0.027066
      dxz     :     0.002615
      dyz     :     0.006908
      dx2y2   :     0.004821
      dxy     :     0.005401

  1 C s       :     3.222889  s :     3.222889
      pz      :     0.981031  p :     2.984789
      px      :     0.959090
      py      :     1.044668
      dz2     :     0.008058  d :     0.037156
      dxz     :     0.005244
      dyz     :     0.008635
      dx2y2   :     0.005829
      dxy     :     0.009389

  2 C s       :     3.221571  s :     3.221571
      pz      :     1.112010  p :     3.012905
      px      :     0.926461
      py      :     0.974434
      dz2     :     0.005661  d :     0.036485
      dxz     :     0.004431
      dyz     :     0.009570
      dx2y2   :     0.006923
      dxy     :     0.009900

  3 C s       :     3.238315  s :     3.238315
      pz      :     1.124154  p :     3.081573
      px      :     0.947211
      py      :     1.010208
      dz2     :     0.005946  d :     0.034990
      dxz     :     0.002869
      dyz     :     0.009322
      dx2y2   :     0.008749
      dxy     :     0.008104

  4 C s       :     3.127114  s :     3.127114
      pz      :     0.729775  p :     2.312196
      px      :     0.836454
      py      :     0.745966
      dz2     :     0.018717  d :     0.124919
      dxz     :     0.018331
      dyz     :     0.020991
      dx2y2   :     0.027955
      dxy     :     0.038926

  5 O s       :     3.836353  s :     3.836353
      pz      :     1.487600  p :     4.660904
      px      :     1.792436
      py      :     1.380869
      dz2     :     0.004314  d :     0.024503
      dxz     :     0.003411
      dyz     :     0.008013
      dx2y2   :     0.006351
      dxy     :     0.002413

  6 O s       :     3.703431  s :     3.703431
      pz      :     1.674040  p :     4.478236
      px      :     1.165117
      py      :     1.639079
      dz2     :     0.006837  d :     0.031519
      dxz     :     0.007826
      dyz     :     0.006968
      dx2y2   :     0.008120
      dxy     :     0.001768

  7 C s       :     3.340801  s :     3.340801
      pz      :     1.127393  p :     2.938812
      px      :     0.699106
      py      :     1.112314
      dz2     :     0.007241  d :     0.042091
      dxz     :     0.009990
      dyz     :     0.003644
      dx2y2   :     0.012362
      dxy     :     0.008854

  8 H s       :     0.820747  s :     0.820747
      pz      :     0.003746  p :     0.018396
      px      :     0.005847
      py      :     0.008803

  9 H s       :     0.825646  s :     0.825646
      pz      :     0.008951  p :     0.018246
      px      :     0.003680
      py      :     0.005615

 10 H s       :     0.824760  s :     0.824760
      pz      :     0.003773  p :     0.018343
      px      :     0.010354
      py      :     0.004216

 11 H s       :     0.835227  s :     0.835227
      pz      :     0.008691  p :     0.017904
      px      :     0.003388
      py      :     0.005824

 12 H s       :     0.828523  s :     0.828523
      pz      :     0.003666  p :     0.017894
      px      :     0.006281
      py      :     0.007948

 13 H s       :     0.824313  s :     0.824313
      pz      :     0.008805  p :     0.017901
      px      :     0.003349
      py      :     0.005746

 14 H s       :     0.822147  s :     0.822147
      pz      :     0.007748  p :     0.018070
      px      :     0.003972
      py      :     0.006350

 15 H s       :     0.778386  s :     0.778386
      pz      :     0.008080  p :     0.018226
      px      :     0.003514
      py      :     0.006631

 16 H s       :     0.795152  s :     0.795152
      pz      :     0.009082  p :     0.018174
      px      :     0.003304
      py      :     0.005789

 17 H s       :     0.806294  s :     0.806294
      pz      :     0.006626  p :     0.017827
      px      :     0.004486
      py      :     0.006715

 18 H s       :     0.807791  s :     0.807791
      pz      :     0.010883  p :     0.017890
      px      :     0.003336
      py      :     0.003671

 19 H s       :     0.796977  s :     0.796977
      pz      :     0.004631  p :     0.018614
      px      :     0.002597
      py      :     0.011387


------------------------
MULLIKEN OVERLAP CHARGES
------------------------
B(  0-C ,  1-C ) :   0.4071 B(  0-C ,  2-C ) :  -0.1951 B(  0-C ,  8-H ) :   0.8521 
B(  0-C ,  9-H ) :   0.8444 B(  0-C , 10-H ) :   0.7930 B(  0-C , 11-H ) :  -0.0753 
B(  0-C , 12-H ) :  -0.0607 B(  1-C ,  2-C ) :   0.4428 B(  1-C ,  3-C ) :  -0.1730 
B(  1-C ,  8-H ) :  -0.0887 B(  1-C ,  9-H ) :  -0.0892 B(  1-C , 10-H ) :  -0.0726 
B(  1-C , 11-H ) :   0.8915 B(  1-C , 12-H ) :   0.8476 B(  1-C , 13-H ) :  -0.0562 
B(  1-C , 14-H ) :  -0.0831 B(  2-C ,  3-C ) :   0.2955 B(  2-C ,  4-C ) :  -0.0545 
B(  2-C ,  5-O ) :   0.0602 B(  2-C , 11-H ) :  -0.1221 B(  2-C , 12-H ) :  -0.1091 
B(  2-C , 13-H ) :   0.8251 B(  2-C , 14-H ) :   0.8350 B(  2-C , 15-H ) :  -0.0933 
B(  2-C , 16-H ) :  -0.0550 B(  3-C ,  4-C ) :   0.5451 B(  3-C ,  5-O ) :  -0.2154 
B(  3-C ,  6-O ) :  -0.1305 B(  3-C , 13-H ) :  -0.0545 B(  3-C , 14-H ) :  -0.0520 
B(  3-C , 15-H ) :   0.8220 B(  3-C , 16-H ) :   0.8123 B(  4-C ,  5-O ) :   1.0010 
B(  4-C ,  6-O ) :   0.4991 B(  4-C ,  7-C ) :  -0.2046 B(  4-C , 16-H ) :  -0.0525 
B(  4-C , 19-H ) :  -0.0519 B(  5-O ,  6-O ) :  -0.2128 B(  6-O ,  7-C ) :   0.3437 
B(  6-O , 17-H ) :  -0.0694 B(  6-O , 18-H ) :  -0.0747 B(  6-O , 19-H ) :  -0.0571 
B(  7-C , 17-H ) :   0.7930 B(  7-C , 18-H ) :   0.7961 B(  7-C , 19-H ) :   0.8441 



                     *******************************
                     * LOEWDIN POPULATION ANALYSIS *
                     *******************************

----------------------
LOEWDIN ATOMIC CHARGES
----------------------
   0 C :   -0.432701
   1 C :   -0.315179
   2 C :   -0.292252
   3 C :   -0.225941
   4 C :    0.373840
   5 O :   -0.503900
   6 O :   -0.607006
   7 C :   -0.041733
   8 H :    0.152553
   9 H :    0.153409
  10 H :    0.152978
  11 H :    0.155201
  12 H :    0.155635
  13 H :    0.162611
  14 H :    0.168300
  15 H :    0.195583
  16 H :    0.188610
  17 H :    0.183252
  18 H :    0.185386
  19 H :    0.191356

-------------------------------
LOEWDIN REDUCED ORBITAL CHARGES
-------------------------------
  0 C s       :     2.973105  s :     2.973105
      pz      :     1.112449  p :     3.396584
      px      :     1.146333
      py      :     1.137801
      dz2     :     0.016676  d :     0.063012
      dxz     :     0.005479
      dyz     :     0.016559
      dx2y2   :     0.011376
      dxy     :     0.012922

  1 C s       :     2.937716  s :     2.937716
      pz      :     1.104068  p :     3.297346
      px      :     1.073113
      py      :     1.120165
      dz2     :     0.017335  d :     0.080118
      dxz     :     0.010063
      dyz     :     0.019888
      dx2y2   :     0.011950
      dxy     :     0.020882

  2 C s       :     2.931830  s :     2.931830
      pz      :     1.147520  p :     3.281327
      px      :     1.043839
      py      :     1.089967
      dz2     :     0.013228  d :     0.079095
      dxz     :     0.008020
      dyz     :     0.021894
      dx2y2   :     0.014266
      dxy     :     0.021686

  3 C s       :     2.918789  s :     2.918789
      pz      :     1.141063  p :     3.233589
      px      :     0.995626
      py      :     1.096899
      dz2     :     0.013261  d :     0.073564
      dxz     :     0.004744
      dyz     :     0.020713
      dx2y2   :     0.016677
      dxy     :     0.018168

  4 C s       :     2.738323  s :     2.738323
      pz      :     0.757702  p :     2.616556
      px      :     0.954612
      py      :     0.904243
      dz2     :     0.036192  d :     0.271281
      dxz     :     0.037635
      dyz     :     0.050848
      dx2y2   :     0.060402
      dxy     :     0.086204

  5 O s       :     3.544057  s :     3.544057
      pz      :     1.495328  p :     4.731285
      px      :     1.743677
      py      :     1.492280
      dz2     :     0.031657  d :     0.228558
      dxz     :     0.024568
      dyz     :     0.053150
      dx2y2   :     0.057144
      dxy     :     0.062040

  6 O s       :     3.468228  s :     3.468228
      pz      :     1.668334  p :     4.670482
      px      :     1.356845
      py      :     1.645303
      dz2     :     0.055846  d :     0.468296
      dxz     :     0.119187
      dyz     :     0.042324
      dx2y2   :     0.132848
      dxy     :     0.118092

  7 C s       :     2.907844  s :     2.907844
      pz      :     1.119072  p :     3.032591
      px      :     0.805465
      py      :     1.108053
      dz2     :     0.017712  d :     0.101298
      dxz     :     0.023756
      dyz     :     0.008745
      dx2y2   :     0.029738
      dxy     :     0.021347

  8 H s       :     0.803169  s :     0.803169
      pz      :     0.008433  p :     0.044279
      px      :     0.014013
      py      :     0.021832

  9 H s       :     0.802873  s :     0.802873
      pz      :     0.022046  p :     0.043718
      px      :     0.008154
      py      :     0.013518

 10 H s       :     0.803135  s :     0.803135
      pz      :     0.008588  p :     0.043887
      px      :     0.025726
      py      :     0.009572

 11 H s       :     0.801513  s :     0.801513
      pz      :     0.021284  p :     0.043287
      px      :     0.007868
      py      :     0.014134

 12 H s       :     0.801082  s :     0.801082
      pz      :     0.008432  p :     0.043283
      px      :     0.015213
      py      :     0.019638

 13 H s       :     0.793831  s :     0.793831
      pz      :     0.021956  p :     0.043558
      px      :     0.007885
      py      :     0.013717

 14 H s       :     0.787554  s :     0.787554
      pz      :     0.019377  p :     0.044146
      px      :     0.009420
      py      :     0.015349

 15 H s       :     0.759344  s :     0.759344
      pz      :     0.020512  p :     0.045073
      px      :     0.008217
      py      :     0.016344

 16 H s       :     0.766365  s :     0.766365
      pz      :     0.023039  p :     0.045025
      px      :     0.007528
      py      :     0.014458

 17 H s       :     0.775424  s :     0.775424
      pz      :     0.015653  p :     0.041324
      px      :     0.009101
      py      :     0.016570

 18 H s       :     0.773429  s :     0.773429
      pz      :     0.026506  p :     0.041186
      px      :     0.006345
      py      :     0.008334

 19 H s       :     0.763625  s :     0.763625
      pz      :     0.010804  p :     0.045019
      px      :     0.005927
      py      :     0.028289


---------------------------------
LOEWDIN BOND ORDERS (THRESH 0.050000)
---------------------------------
B(  0-C ,  1-C ) :   1.1409 B(  0-C ,  2-C ) :   0.0653 B(  0-C ,  8-H ) :   0.9272 
B(  0-C ,  9-H ) :   0.9292 B(  0-C , 10-H ) :   0.9298 B(  1-C ,  2-C ) :   1.1120 
B(  1-C ,  3-C ) :   0.0678 B(  1-C , 11-H ) :   0.8946 B(  1-C , 12-H ) :   0.8934 
B(  2-C ,  3-C ) :   1.0757 B(  2-C ,  4-C ) :   0.0749 B(  2-C ,  5-O ) :   0.0536 
B(  2-C , 13-H ) :   0.8876 B(  2-C , 14-H ) :   0.8764 B(  3-C ,  4-C ) :   0.9288 
B(  3-C ,  5-O ) :   0.1789 B(  3-C ,  6-O ) :   0.1912 B(  3-C , 15-H ) :   0.8503 
B(  3-C , 16-H ) :   0.8567 B(  4-C ,  5-O ) :   2.1385 B(  4-C ,  6-O ) :   1.4681 
B(  4-C ,  7-C ) :   0.0873 B(  5-O ,  6-O ) :   0.4545 B(  5-O ,  7-C ) :   0.0743 
B(  6-O ,  7-C ) :   1.3500 B(  6-O , 17-H ) :   0.0997 B(  6-O , 18-H ) :   0.1002 
B(  6-O , 19-H ) :   0.0948 B(  7-C , 17-H ) :   0.8614 B(  7-C , 18-H ) :   0.8614 
B(  7-C , 19-H ) :   0.8404 

------------------------------------------
LOEWDIN REDUCED ORBITAL POPULATIONS PER MO
-------------------------------------------
THRESHOLD FOR PRINTING IS 0.1%%
                      0         1         2         3         4         5   
                 -19.00355 -18.94372 -10.16299 -10.07467 -10.03520 -10.02222
                   2.00000   2.00000   2.00000   2.00000   2.00000   2.00000
                  --------  --------  --------  --------  --------  --------
 2 C  s               0.0       0.0       0.0       0.0       0.0      99.6
 3 C  s               0.0       0.0       0.0       0.0      99.7       0.0
 4 C  s               0.0       0.0      98.9       0.0       0.0       0.0
 5 O  s               0.0      99.9       0.0       0.0       0.0       0.0
 5 O  py              0.0       0.0       0.2       0.0       0.0       0.0
 5 O  dyz             0.0       0.0       0.2       0.0       0.0       0.0
 5 O  dx2y2           0.0       0.0       0.1       0.0       0.0       0.0
 6 O  s              99.9       0.0       0.0       0.0       0.0       0.0
 6 O  px              0.0       0.0       0.1       0.1       0.0       0.0
 6 O  dx2y2           0.0       0.0       0.0       0.2       0.0       0.0
 6 O  dxy             0.0       0.0       0.1       0.0       0.0       0.0
 7 C  s               0.0       0.0       0.0      99.4       0.0       0.0

                      6         7         8         9        10        11   
                 -10.01841 -10.00768  -1.07827  -0.98938  -0.77037  -0.72234
                   2.00000   2.00000   2.00000   2.00000   2.00000   2.00000
                  --------  --------  --------  --------  --------  --------
 0 C  s               0.0      99.7       0.0       0.0       5.4      10.7
 0 C  pz              0.1       0.0       0.0       0.0       0.9       0.7
 0 C  px              0.0       0.0       0.0       0.0       0.5       0.1
 0 C  py              0.0       0.0       0.0       0.0       0.5       0.4
 1 C  s              99.7       0.0       0.0       0.0      13.7      12.6
 1 C  pz              0.0       0.1       0.0       0.0       0.4       0.6
 1 C  px              0.0       0.0       0.0       0.0       1.7       0.1
 1 C  py              0.0       0.0       0.0       0.0       0.0       0.1
 2 C  s               0.0       0.0       0.1       0.0      20.3       1.2
 2 C  px              0.1       0.0       0.2       0.2       0.0       4.7
 2 C  py              0.0       0.0       0.0       0.0       1.9       0.0
 3 C  s               0.0       0.0       1.0       0.1      18.6       5.5
 3 C  px              0.0       0.0       1.9       0.1       0.7       3.0
 3 C  py              0.0       0.0       0.2       0.3       0.9       0.2
 4 C  s               0.0       0.0      17.1       3.0       2.1       4.0
 4 C  pz              0.0       0.0       0.1       6.3       0.2       0.7
 4 C  px              0.0       0.0       4.6       0.4       5.5       2.4
 4 C  py              0.0       0.0       0.0      17.1       1.6       3.6
 4 C  dz2             0.0       0.0       0.1       0.0       0.0       0.0
 4 C  dxz             0.0       0.0       0.1       0.3       0.0       0.0
 4 C  dyz             0.0       0.0       0.7       0.3       0.0       0.0
 4 C  dx2y2           0.0       0.0       0.1       0.5       0.1       0.0
 4 C  dxy             0.0       0.0       0.1       0.8       0.0       0.0
 5 O  s               0.0       0.0      14.9      40.3       1.0       1.3
 5 O  pz              0.0       0.0       0.8       0.6       0.0       0.1
 5 O  px              0.0       0.0       0.1       0.4       0.3       0.2
 5 O  py              0.0       0.0       2.5       2.2       0.2       0.4
 5 O  dyz             0.0       0.0       0.9       0.1       0.1       0.1
 5 O  dx2y2           0.0       0.0       0.5       0.1       0.0       0.2
 5 O  dxy             0.0       0.0       0.0       0.2       0.3       0.3
 6 O  s               0.0       0.0      39.5      19.5       0.1       0.0
 6 O  pz              0.0       0.0       0.8       0.2       0.1       0.6
 6 O  px              0.0       0.0       0.1       0.5       2.7      14.5
 6 O  py              0.0       0.0       2.0       0.3       0.0       0.2
 6 O  dz2             0.0       0.0       0.1       0.0       0.0       0.0
 6 O  dxz             0.0       0.0       0.2       0.1       0.1       0.2
 6 O  dyz             0.0       0.0       0.4       0.5       0.0       0.0
 6 O  dx2y2           0.0       0.0       0.0       0.5       0.1       0.0
 6 O  dxy             0.0       0.0       0.2       0.3       0.1       0.5
 7 C  s               0.0       0.0       4.0       2.0       1.2      10.6
 7 C  px              0.0       0.0       5.0       1.7       0.1       0.2
 7 C  py              0.0       0.0       0.1       0.3       0.0       0.1
 7 C  dz2             0.0       0.0       0.1       0.1       0.0       0.0
 7 C  dx2y2           0.0       0.0       0.3       0.2       0.0       0.0
 8 H  s               0.0       0.0       0.0       0.0       0.7       1.6
 8 H  py              0.0       0.0       0.0       0.0       0.0       0.1
 9 H  s               0.0       0.0       0.0       0.0       0.7       1.7
 9 H  pz              0.0       0.0       0.0       0.0       0.0       0.1
10 H  s               0.0       0.0       0.0       0.0       0.7       1.7
10 H  px              0.0       0.0       0.0       0.0       0.0       0.1
11 H  s               0.0       0.0       0.0       0.0       1.7       1.9
11 H  pz              0.0       0.0       0.0       0.0       0.1       0.1
12 H  s               0.0       0.0       0.0       0.0       1.7       2.0
12 H  py              0.0       0.0       0.0       0.0       0.1       0.1
13 H  s               0.0       0.0       0.0       0.0       2.5       0.2
13 H  pz              0.0       0.0       0.0       0.0       0.2       0.0
14 H  s               0.0       0.0       0.0       0.0       2.6       0.2
14 H  pz              0.0       0.0       0.0       0.0       0.1       0.0
15 H  s               0.0       0.0       0.0       0.0       2.6       0.9
15 H  pz              0.0       0.0       0.0       0.0       0.2       0.1
15 H  py              0.0       0.0       0.0       0.0       0.1       0.0
16 H  s               0.0       0.0       0.1       0.0       2.6       1.2
16 H  pz              0.0       0.0       0.0       0.0       0.2       0.1
17 H  s               0.0       0.0       0.2       0.2       0.2       2.0
18 H  s               0.0       0.0       0.2       0.2       0.2       2.1
18 H  pz              0.0       0.0       0.0       0.0       0.0       0.2
19 H  s               0.0       0.0       0.4       0.1       0.2       1.8
19 H  py              0.0       0.0       0.0       0.0       0.0       0.1

                     12        13        14        15        16        17   
                  -0.67794  -0.61449  -0.54375  -0.52227  -0.47351  -0.45935
                   2.00000   2.00000   2.00000   2.00000   2.00000   2.00000
                  --------  --------  --------  --------  --------  --------
 0 C  s              12.2      14.0       4.0       1.1       0.0       0.1
 0 C  pz              0.1       1.0       4.5       2.2       0.0       0.1
 0 C  px              0.1       0.3       0.1       0.1       1.4       0.0
 0 C  py              0.0       0.9       1.3       0.2       0.3       0.4
 1 C  s               3.4       2.8       9.8       2.9       0.2       0.2
 1 C  pz              0.8       2.3       4.1       2.1       0.1       0.2
 1 C  px              2.9       3.4       1.5       0.9       2.4       0.4
 1 C  py              1.0       4.1       0.1       0.5       1.1       0.2
 2 C  s               4.5      10.1       3.8       4.4       0.0       0.1
 2 C  pz              0.0       0.3       0.9       0.8       0.5       2.7
 2 C  px              3.4       2.4       3.8       0.3       0.2       0.1
 2 C  py              0.1       1.9       0.6       4.5       5.4       0.1
 3 C  s               7.4       5.9       0.0       2.9       1.8       0.0
 3 C  pz              0.1       0.0       0.1       0.4       0.8      10.9
 3 C  px              0.9       2.6       3.2       0.1      10.9       0.4
 3 C  py              0.5       1.9       1.3       4.8       8.4       0.0
 3 C  dz2             0.0       0.0       0.0       0.1       0.1       0.0
 3 C  dxy             0.0       0.1       0.1       0.0       0.2       0.0
 4 C  s               0.6       0.9       2.5       1.9       2.6       0.3
 4 C  pz              0.5       0.1       0.0       1.3       0.6      12.5
 4 C  px              3.2       3.9       0.2       2.0      11.2       1.4
 4 C  py              0.7       0.4       1.2       0.4       0.5       1.2
 4 C  dxy             0.1       0.1       0.0       0.1       0.0       0.0
 5 O  s               0.0       0.2       1.0       2.3       2.8       3.5
 5 O  pz              0.0       0.0       0.3       1.7       0.5       0.4
 5 O  px              0.1       0.2       0.1       0.2      13.5       0.0
 5 O  py              0.1       0.2       1.5       1.8       3.6      14.2
 5 O  dz2             0.0       0.0       0.0       0.0       0.0       0.5
 5 O  dxz             0.0       0.0       0.0       0.0       0.3       0.1
 5 O  dyz             0.0       0.0       0.1       0.3       0.0       0.1
 5 O  dx2y2           0.3       0.0       0.1       0.0       0.0       0.2
 5 O  dxy             0.0       0.2       0.0       0.1       0.9       0.0
 6 O  s               0.7       1.2       3.1       3.0       0.5       0.3
 6 O  pz              0.7       0.0       2.0       2.9       2.2      19.9
 6 O  px             11.4       0.3       3.9       6.6       0.4       4.8
 6 O  py              0.4       0.1       2.2       8.6       4.8       0.1
 6 O  dz2             0.4       0.3       0.2       0.1       0.0       0.5
 6 O  dxz             0.0       0.1       0.1       0.0       0.4       0.0
 6 O  dyz             0.0       0.0       0.0       0.1       0.0       0.2
 6 O  dx2y2           1.3       1.2       0.5       0.0       0.3       0.1
 6 O  dxy             0.3       0.0       0.0       0.1       0.9       0.0
 7 C  s              15.5       4.6       4.0       2.5       0.0       0.2
 7 C  pz              0.0       0.0       0.2       0.5       1.7       9.9
 7 C  px              0.3       1.1       5.9       5.8       0.0       1.0
 7 C  py              0.1       0.0       1.5       4.0       4.5       0.7
 7 C  dx2y2           0.0       0.0       0.2       0.2       0.0       0.0
 7 C  dxy             0.0       0.0       0.1       0.2       0.0       0.0
 8 H  s               2.2       4.2       2.3       0.5       0.2       0.2
 8 H  px              0.1       0.1       0.1       0.0       0.0       0.0
 8 H  py              0.1       0.2       0.1       0.0       0.0       0.0
 9 H  s               2.3       3.7       2.4       1.1       0.0       0.0
 9 H  pz              0.1       0.2       0.1       0.0       0.0       0.0
 9 H  py              0.1       0.1       0.1       0.0       0.0       0.0
10 H  s               2.5       4.2       1.5       0.4       0.3       0.1
10 H  px              0.2       0.3       0.1       0.0       0.0       0.0
11 H  s               0.6       0.7       5.1       2.7       0.0       0.0
11 H  pz              0.0       0.0       0.2       0.1       0.0       0.0
11 H  py              0.0       0.0       0.2       0.1       0.0       0.0
12 H  s               0.7       1.0       4.9       1.2       1.1       0.4
12 H  px              0.0       0.1       0.1       0.0       0.0       0.0
12 H  py              0.1       0.0       0.2       0.1       0.0       0.0
13 H  s               0.8       2.6       2.4       4.0       0.1       0.4
13 H  pz              0.1       0.2       0.1       0.2       0.0       0.0
14 H  s               1.1       3.1       1.5       2.1       1.1       0.5
14 H  pz              0.1       0.2       0.1       0.1       0.0       0.0
15 H  s               1.5       2.0       0.1       3.3       2.5       2.2
15 H  pz              0.1       0.1       0.0       0.1       0.2       0.0
16 H  s               1.1       2.1       0.0       1.5       4.5       2.3
16 H  pz              0.1       0.1       0.0       0.1       0.2       0.0
17 H  s               3.6       1.6       2.2       1.2       0.1       0.7
17 H  pz              0.1       0.0       0.0       0.0       0.0       0.0
17 H  py              0.1       0.1       0.1       0.1       0.0       0.0
18 H  s               3.8       1.6       1.6       0.8       0.7       4.0
18 H  pz              0.3       0.1       0.1       0.1       0.0       0.1
19 H  s               3.0       1.3       3.4       4.3       2.1       0.1
19 H  py              0.2       0.1       0.2       0.2       0.0       0.0

                     18        19        20        21        22        23   
                  -0.45098  -0.42363  -0.40587  -0.39601  -0.36896  -0.36058
                   2.00000   2.00000   2.00000   2.00000   2.00000   2.00000
                  --------  --------  --------  --------  --------  --------
 0 C  s               0.0       0.3       0.0       0.0       0.1       0.0
 0 C  pz              0.4       0.2       1.0       5.4       0.3      10.8
 0 C  px              0.1       1.7       9.3       2.5      15.6       3.1
 0 C  py              0.1       7.0       6.4       2.9       0.6       2.8
 1 C  s               0.1       0.2       0.0       0.0       0.5       0.0
 1 C  pz              0.2       7.5       0.3       3.4       3.4       0.0
 1 C  px              0.0       0.3       8.1       3.2       1.3       2.3
 1 C  py              1.1       3.1      11.5       3.6       2.9       1.9
 2 C  s               0.3       0.2       0.1       0.0       0.2       0.2
 2 C  pz              0.1      18.9       0.1       0.3       1.7       7.9
 2 C  px              0.3       2.1       0.3       5.9       0.2       1.0
 2 C  py              2.3       0.0       4.0       0.1       0.9       1.4
 3 C  s               0.3       0.1       0.9       0.1       0.3       0.0
 3 C  pz              0.2      11.2       1.1       6.4       1.0       1.6
 3 C  px              1.3       0.0       1.4       0.1       4.0       0.0
 3 C  py              0.4       0.6       0.6       5.3       5.7       0.0
 3 C  dz2             0.0       0.0       0.0       0.0       0.1       0.0
 3 C  dx2y2           0.0       0.0       0.0       0.0       0.2       0.0
 4 C  s               0.8       0.1       0.3       0.1       0.3       0.0
 4 C  pz              2.0       0.6       0.2       2.7       1.0       6.1
 4 C  px              0.3       0.0       0.3       1.1       6.2       0.7
 4 C  py              8.0       0.8       0.6       0.9       2.2       2.0
 4 C  dz2             0.0       0.0       0.0       0.1       0.0       0.1
 4 C  dxz             0.0       0.2       0.0       0.0       0.0       0.1
 4 C  dx2y2           0.1       0.0       0.2       0.0       0.2       0.1
 5 O  s               7.7       0.7       0.3       0.2       0.4       0.0
 5 O  pz             14.1       0.6       1.0       1.0       7.0      12.0
 5 O  px              0.7       0.1       0.8       0.1       1.2       1.2
 5 O  py             11.1       4.0       2.0       5.3       2.3       6.0
 5 O  dz2             0.2       0.0       0.1       0.0       0.2       0.1
 5 O  dyz             0.3       0.0       0.0       0.1       0.1       0.1
 5 O  dx2y2           0.1       0.1       0.1       0.2       0.0       0.1
 5 O  dxy             0.0       0.0       0.0       0.0       0.2       0.0
 6 O  s               0.6       0.1       0.3       0.0       0.0       0.0
 6 O  pz              3.9       2.4       0.1       2.1       0.1       0.7
 6 O  px              6.3       1.7       3.2       1.2       1.0       0.0
 6 O  py             14.8       1.4       3.9       0.1       0.3       0.2
 6 O  dz2             0.0       0.0       0.0       0.3       0.0       0.4
 6 O  dxz             0.0       0.2       0.0       1.9       0.1       1.0
 6 O  dx2y2           0.6       0.1       0.0       0.0       0.0       0.0
 6 O  dxy             0.0       0.2       0.7       0.1       0.4       0.4
 7 C  s               0.5       0.0       0.1       0.0       0.0       0.0
 7 C  pz              2.5       3.5       0.4      17.5       0.4       8.3
 7 C  px              6.5       0.1       4.9       0.6       2.7       0.1
 7 C  py              3.6       3.2       8.1       0.0       9.7       1.2
 7 C  dz2             0.0       0.0       0.1       0.1       0.1       0.0
 7 C  dxz             0.0       0.0       0.0       0.0       0.0       0.1
 7 C  dx2y2           0.1       0.0       0.0       0.0       0.0       0.0
 8 H  s               0.0       1.2       4.3       0.0       0.6       0.0
 8 H  py              0.0       0.0       0.1       0.0       0.1       0.0
 9 H  s               0.2       0.5       1.6       3.4       0.0       6.9
 9 H  px              0.0       0.0       0.1       0.0       0.1       0.0
10 H  s               0.0       1.9       1.8       1.9       7.2       3.1
10 H  px              0.0       0.1       0.0       0.1       0.1       0.1
11 H  s               0.4       2.5       1.9       2.7       0.0       0.2
12 H  s               0.1       1.1       6.4       0.0       1.4       0.0
13 H  s               0.4       3.1       0.1       0.1       0.0       5.4
13 H  py              0.0       0.1       0.0       0.0       0.0       0.1
14 H  s               0.8       5.8       0.6       0.0       1.6       0.3
14 H  py              0.0       0.2       0.0       0.0       0.0       0.0
15 H  s               0.0       1.2       1.7       4.2       0.9       0.4
16 H  s               0.1       4.1       0.0       0.4       3.7       0.5
16 H  pz              0.0       0.1       0.0       0.0       0.1       0.0
17 H  s               5.2       1.5       3.2       2.1       3.0       3.8
17 H  pz              0.1       0.0       0.1       0.0       0.1       0.0
18 H  s               0.0       1.2       1.4       8.2       1.0       3.7
18 H  pz              0.0       0.0       0.1       0.2       0.0       0.0
19 H  s               0.0       0.6       2.3       0.5       3.9       0.0

                     24        25        26        27        28        29   
                  -0.35005  -0.32486  -0.32069  -0.29396  -0.29217  -0.28833
                   2.00000   2.00000   2.00000   2.00000   2.00000   2.00000
                  --------  --------  --------  --------  --------  --------
 0 C  s               0.1       0.1       0.0       0.0       0.4       0.2
 0 C  pz              3.0      12.3       1.2       0.2       9.4       1.8
 0 C  px              4.2       1.2       1.8      11.1       2.9       1.1
 0 C  py             15.5       2.1       0.0       4.4       0.1      11.0
 0 C  dz2             0.1       0.1       0.0       0.4       0.1       0.1
 0 C  dyz             0.0       0.2       0.0       0.0       0.3       0.0
 0 C  dx2y2           0.0       0.0       0.0       0.2       0.0       0.1
 0 C  dxy             0.2       0.0       0.0       0.1       0.0       0.2
 1 C  s               0.1       0.0       0.0       0.2       0.1       0.1
 1 C  pz              5.0       7.2       0.8       0.9      14.2       1.2
 1 C  px              0.9       0.5       0.4      16.2       2.1       4.6
 1 C  py              3.5       0.1       0.0       5.2       1.8      13.7
 1 C  dz2             0.0       0.0       0.0       0.3       0.1       0.2
 1 C  dxz             0.0       0.0       0.0       0.0       0.1       0.2
 1 C  dyz             0.0       0.1       0.0       0.0       0.7       0.0
 1 C  dx2y2           0.1       0.1       0.0       0.2       0.0       0.0
 1 C  dxy             0.0       0.0       0.0       0.1       0.0       0.6
 2 C  s               0.2       0.1       0.1       0.6       0.0       0.0
 2 C  pz              1.1       2.6       0.0       0.0      14.5       3.7
 2 C  px              4.7       1.1       0.6      16.7       1.2       2.8
 2 C  py             10.4       6.9       0.0       7.8       0.3       5.5
 2 C  dz2             0.1       0.0       0.0       0.1       0.1       0.1
 2 C  dxz             0.0       0.1       0.0       0.0       0.1       0.0
 2 C  dyz             0.0       0.1       0.0       0.0       0.7       0.1
 2 C  dx2y2           0.0       0.0       0.0       0.2       0.0       0.0
 2 C  dxy             0.1       0.0       0.0       0.0       0.0       0.5
 3 C  s               0.2       0.1       0.2       0.1       0.1       0.4
 3 C  pz              5.5      11.1       0.4       0.1       2.7       2.7
 3 C  px              5.5       1.3       0.7       0.8       1.0       3.8
 3 C  py              7.2       5.8       1.1       0.4       0.4       6.1
 3 C  dyz             0.1       0.4       0.0       0.0       0.3       0.1
 3 C  dx2y2           0.0       0.0       0.0       0.3       0.0       0.0
 3 C  dxy             0.2       0.1       0.0       0.0       0.0       0.1
 4 C  s               0.1       0.0       0.3       0.4       0.1       0.1
 4 C  pz              0.3       1.2       0.8       0.1       0.0       0.0
 4 C  px              0.6       0.0       0.1       1.6       0.3       0.1
 4 C  py              0.2       0.2       2.7       0.3       0.0       0.0
 4 C  dxz             0.1       0.2       0.0       0.0       0.0       0.0
 4 C  dyz             0.0       0.2       0.2       0.0       0.1       0.0
 4 C  dx2y2           0.0       0.0       0.7       0.0       0.0       0.0
 4 C  dxy             0.1       0.0       0.0       0.0       0.0       0.0
 5 O  s               0.1       0.0       0.5       0.1       0.0       0.0
 5 O  pz              0.1       7.4       2.0       1.2       2.1       0.1
 5 O  px              0.2       0.0       1.4       0.6       0.1       0.3
 5 O  py              0.7       3.8       3.4       0.5       1.1       0.0
 5 O  dyz             0.0       0.0       0.1       0.1       0.0       0.0
 5 O  dx2y2           0.0       0.0       0.4       0.2       0.1       0.0
 5 O  dxy             0.0       0.0       0.0       0.1       0.0       0.1
 6 O  s               0.1       0.1       3.5       0.2       0.0       0.4
 6 O  pz              0.1       0.1       7.7       0.1       0.3       0.0
 6 O  px              1.3       0.1       4.7       0.5       0.1       0.8
 6 O  py              0.1       1.5      22.1       2.3       0.2       0.9
 6 O  dxz             0.0       0.0       0.6       0.0       0.1       0.0
 6 O  dx2y2           0.1       0.0       0.8       0.3       0.0       0.3
 6 O  dxy             0.2       0.1       1.0       0.1       0.0       0.0
 7 C  s               0.0       0.0       0.2       0.0       0.0       0.0
 7 C  pz              0.3       0.2       4.5       0.1       0.0       0.0
 7 C  px              1.2       0.0       1.1       0.4       0.1       0.4
 7 C  py              1.4       1.5      12.8       0.2       0.0       0.1
 7 C  dxz             0.0       0.0       0.2       0.0       0.0       0.0
 7 C  dx2y2           0.0       0.0       0.4       0.0       0.0       0.0
 7 C  dxy             0.0       0.0       0.2       0.0       0.0       0.0
 8 H  s              11.2       1.3       0.5       0.1       0.8       8.0
 8 H  pz              0.0       0.1       0.0       0.0       0.1       0.0
 8 H  px              0.1       0.0       0.0       0.1       0.0       0.1
 8 H  py              0.1       0.0       0.0       0.1       0.0       0.0
 9 H  s               0.1       7.2       0.5       2.9       4.2       0.7
10 H  s               0.7       0.0       1.3       9.8       0.5       0.4
10 H  pz              0.0       0.1       0.0       0.0       0.1       0.0
10 H  py              0.2       0.0       0.0       0.0       0.0       0.1
11 H  s               0.3       2.3       0.3       3.1      12.1       1.1
11 H  px              0.0       0.0       0.0       0.2       0.0       0.0
12 H  s               0.8       0.0       0.3       0.3       1.6      14.8
12 H  pz              0.0       0.1       0.0       0.0       0.2       0.0
12 H  px              0.1       0.0       0.0       0.1       0.0       0.1
13 H  s               0.2       4.2       0.1       1.3      10.6       0.0
13 H  px              0.0       0.0       0.0       0.2       0.0       0.0
14 H  s               2.3       0.0       0.0       3.6       6.4       5.6
14 H  pz              0.0       0.0       0.0       0.1       0.0       0.0
14 H  px              0.1       0.0       0.0       0.1       0.0       0.1
[...]
 3 C  px              2.5       0.0       0.1       0.0       0.0       0.0
 3 C  py              0.1       0.0       0.0       0.0       0.0       0.0
 3 C  dz2             0.4       0.0       0.0       0.0       0.0       0.0
 3 C  dyz             0.0       0.0       0.2       0.1       0.0       0.0
 3 C  dx2y2           1.6       0.0       0.1       0.0       0.0       0.0
 3 C  dxy             2.0       0.1       0.2       0.0       0.0       0.0
 4 C  s               1.0       0.2       2.7       5.4       0.0       0.1
 4 C  pz              0.2       0.3       1.4       1.7       0.0       0.0
 4 C  px              0.2       0.4       3.4       0.4       0.0       0.0
 4 C  py              0.5       0.7       2.3       5.8       0.0       0.0
 4 C  dz2             1.7       0.0       0.1       0.3       0.0       0.0
 4 C  dxz             0.1       0.4       3.3       0.3       0.0       0.0
 4 C  dyz             1.2       0.3       2.3       3.0       0.0       0.0
 4 C  dx2y2           8.2       0.0       0.0       2.1       0.0       0.0
 4 C  dxy             3.3       1.1       7.0       1.1       0.0       0.0
 5 O  s               1.8       1.1       0.4      18.6       0.0       0.0
 5 O  pz              1.0       0.3       0.0       4.7       0.0       0.0
 5 O  px              7.2       0.1       0.4       1.6       0.0       0.0
 5 O  py              0.9       0.7       0.2      15.5       0.0       0.0
 5 O  dz2             0.1       0.0       0.5       1.0       0.0       0.0
 5 O  dxz             5.7       0.0       0.1       1.5       0.0       0.0
 5 O  dyz             2.2       1.0       0.0      15.3       0.0       0.0
 5 O  dx2y2           0.5       1.0       0.5      11.1       0.0       0.0
 5 O  dxy            13.6       0.0       1.2       5.0       0.0       0.0
 6 O  s               4.1      23.0       6.6       0.8       0.0       0.0
 6 O  pz              1.5       0.4       3.9       0.0       0.0       0.0
 6 O  px              0.2      10.4      21.7       0.7       0.0       0.0
 6 O  py              5.3       3.3       4.5       0.1       0.0       0.0
 6 O  dz2             0.0       8.5       0.0       0.6       0.0       0.0
 6 O  dxz             0.2       1.3       7.1       0.0       0.0       0.0
 6 O  dyz             3.7       1.1       5.4       0.0       0.0       0.0
 6 O  dx2y2           4.3      16.4       0.7       1.2       0.0       0.0
 6 O  dxy             0.5       0.2      17.1       0.3       0.0       0.0
 7 C  s               0.1       1.7       0.5       0.2       4.4      37.5
 7 C  px              0.0       7.9       1.6       0.3       0.0       0.0
 7 C  py              0.1       0.1       0.3       0.0       0.0       0.0
 7 C  dz2             0.2       4.1       0.4       0.1       0.0       0.0
 7 C  dxz             0.4       0.0       0.0       0.0       0.0       0.0
 7 C  dyz             0.2       0.1       0.1       0.0       0.0       0.0
 7 C  dx2y2           0.4       7.2       2.1       0.4       0.0       0.0
 7 C  dxy             1.4       2.7       0.2       0.1       0.0       0.0
12 H  s               0.1       0.0       0.0       0.0       0.0       0.0
12 H  px              0.2       0.0       0.0       0.0       0.0       0.0
12 H  py              0.1       0.0       0.0       0.0       0.0       0.0
13 H  s               0.3       0.0       0.0       0.0       0.0       0.0
13 H  pz              0.2       0.0       0.0       0.0       0.0       0.0
13 H  py              0.7       0.0       0.0       0.0       0.0       0.0
14 H  s               2.0       0.0       0.0       0.0       0.0       0.0
14 H  pz              3.1       0.0       0.0       0.0       0.0       0.0
14 H  px              0.4       0.0       0.1       0.0       0.0       0.0
14 H  py              1.5       0.0       0.0       0.0       0.0       0.0
15 H  s               0.2       0.0       0.0       0.0       0.0       0.0
15 H  pz              0.2       0.0       0.0       0.0       0.0       0.0
15 H  py              0.2       0.0       0.0       0.0       0.0       0.0
16 H  pz              0.2       0.0       0.1       0.0       0.0       0.0
17 H  s               0.0       0.5       0.0       0.0       0.0       0.0
17 H  pz              0.2       0.5       0.0       0.0       0.0       0.0
17 H  py              0.0       0.7       0.0       0.0       0.0       0.0
18 H  s               0.1       0.4       0.0       0.0       0.0       0.0
18 H  pz              0.3       0.9       0.1       0.0       0.0       0.0
18 H  px              0.0       0.2       0.0       0.0       0.0       0.0
19 H  s               0.2       0.1       0.2       0.0       0.0       0.0
19 H  pz              0.2       0.0       0.0       0.0       0.0       0.0
19 H  px              1.0       0.1       0.0       0.0       0.0       0.0
19 H  py              0.4       0.2       0.3       0.0       0.0       0.0

                    216       217       218       219       220       221   
                  22.00344  22.03427  22.04940  22.24041  43.62545  43.71121
                   0.00000   0.00000   0.00000   0.00000   0.00000   0.00000
                  --------  --------  --------  --------  --------  --------
 0 C  s               4.5       5.3       0.4       0.1       0.0       0.0
 1 C  s               3.8      31.2      50.9       0.4       0.0       0.0
 2 C  s              13.9      56.7      13.7       0.0       0.0       0.0
 3 C  s              22.0       3.3      32.6       2.7       0.0       0.0
 4 C  s               1.7       0.0       2.0      95.2       0.0       0.0
 5 O  s               0.0       0.0       0.0       0.2      70.4      29.5
 5 O  py              0.0       0.0       0.0       0.1       0.0       0.0
 6 O  s               0.1       0.0       0.0       0.1      29.6      70.4
 7 C  s              53.6       3.4       0.0       0.8       0.0       0.0



                      *****************************
                      * MAYER POPULATION ANALYSIS *
                      *****************************

  NA   - Mulliken gross atomic population
  ZA   - Total nuclear charge
  QA   - Mulliken gross atomic charge
  VA   - Mayer's total valence
  BVA  - Mayer's bonded valence
  FA   - Mayer's free valence

  ATOM       NA         ZA         QA         VA         BVA        FA
  0 C      6.5250     6.0000    -0.5250     3.7856     3.7856    -0.0000
  1 C      6.2448     6.0000    -0.2448     3.6148     3.6148     0.0000
  2 C      6.2710     6.0000    -0.2710     3.6344     3.6344     0.0000
  3 C      6.3549     6.0000    -0.3549     3.8126     3.8126     0.0000
  4 C      5.5642     6.0000     0.4358     3.8350     3.8350    -0.0000
  5 O      8.5218     8.0000    -0.5218     1.8995     1.8995     0.0000
  6 O      8.2132     8.0000    -0.2132     1.9748     1.9748     0.0000
  7 C      6.3217     6.0000    -0.3217     3.7174     3.7174     0.0000
  8 H      0.8391     1.0000     0.1609     0.9583     0.9583    -0.0000
  9 H      0.8439     1.0000     0.1561     0.9609     0.9609    -0.0000
 10 H      0.8431     1.0000     0.1569     0.9588     0.9588    -0.0000
 11 H      0.8531     1.0000     0.1469     0.9634     0.9634     0.0000
 12 H      0.8464     1.0000     0.1536     0.9573     0.9573     0.0000
 13 H      0.8422     1.0000     0.1578     0.9603     0.9603     0.0000
 14 H      0.8402     1.0000     0.1598     0.9578     0.9578     0.0000
 15 H      0.7966     1.0000     0.2034     0.9457     0.9457    -0.0000
 16 H      0.8133     1.0000     0.1867     0.9530     0.9530     0.0000
 17 H      0.8241     1.0000     0.1759     0.9502     0.9502     0.0000
 18 H      0.8257     1.0000     0.1743     0.9515     0.9515     0.0000
 19 H      0.8156     1.0000     0.1844     0.9569     0.9569     0.0000

  Mayer bond orders larger than 0.100000
B(  0-C ,  1-C ) :   0.8828 B(  0-C ,  8-H ) :   0.9782 B(  0-C ,  9-H ) :   0.9786 
B(  0-C , 10-H ) :   0.9680 B(  1-C ,  2-C ) :   0.8847 B(  1-C , 11-H ) :   0.9895 
B(  1-C , 12-H ) :   0.9735 B(  2-C ,  3-C ) :   0.9159 B(  2-C , 13-H ) :   0.9690 
B(  2-C , 14-H ) :   0.9655 B(  3-C ,  4-C ) :   1.0122 B(  3-C , 15-H ) :   0.9310 
B(  3-C , 16-H ) :   0.9481 B(  4-C ,  5-O ) :   1.7756 B(  4-C ,  6-O ) :   1.0934 
B(  6-O ,  7-C ) :   0.8253 B(  7-C , 17-H ) :   0.9531 B(  7-C , 18-H ) :   0.9579 
B(  7-C , 19-H ) :   0.9651 

-------
TIMINGS
-------

Total SCF time: 0 days 0 hours 0 min 30 sec 

Total time                  ....      30.567 sec
Sum of individual times     ....      30.060 sec  ( 98.3%)

SCF preparation             ....       0.379 sec  (  1.2%)
Fock matrix formation       ....      28.679 sec  ( 93.8%)
  Startup                   ....       0.058 sec  (  0.2% of F)
  Split-RI-J                ....       4.579 sec  ( 16.0% of F)
  XC integration            ....      18.415 sec  ( 64.2% of F)
    Basis function eval.    ....       3.337 sec  ( 18.1% of XC)
    Density eval.           ....       5.600 sec  ( 30.4% of XC)
    XC-Functional eval.     ....       2.467 sec  ( 13.4% of XC)
    XC-Potential eval.      ....       5.993 sec  ( 32.5% of XC)
  CPCM terms                ....       5.039 sec  ( 17.6% of F)
Diagonalization             ....       0.000 sec  (  0.0%)
Density matrix formation    ....       0.290 sec  (  0.9%)
Total Energy calculation    ....       0.050 sec  (  0.2%)
Population analysis         ....       0.123 sec  (  0.4%)
Orbital Transformation      ....       0.058 sec  (  0.2%)
Orbital Orthonormalization  ....       0.000 sec  (  0.0%)
DIIS solution               ....       0.429 sec  (  1.4%)
  MO trafo                  ....       0.000 sec  (  0.0 % of DIIS)
  Orb grad                  ....       0.000 sec  (  0.0 % of DIIS)
  Energy W gradient         ....       0.000 sec  (  0.0 % of DIIS)
  DIIS error                ....       0.016 sec  (  3.8 % of DIIS)
  DIIS work                 ....       0.359 sec  ( 83.7 % of DIIS)
  Form Q                    ....       0.000 sec  (  0.0 % of DIIS)
  Form QpQm                 ....       0.000 sec  (  0.0 % of DIIS)
  Exp/Cayley                ....       0.000 sec  (  0.0 % of DIIS)
  Orb update                ....       0.000 sec  (  0.0 % of DIIS)
  Wake-sleep                ....       0.023 sec  (  5.4 % of DIIS)
SOSCF solution              ....       0.052 sec  (  0.2%)
  MO trafo                  ....       0.040 sec  ( 77.1 % of SOSCF)
  Orb grad                  ....       0.001 sec  (  1.1 % of SOSCF)
  Rot update                ....       0.000 sec  (  0.1 % of SOSCF)
  Step                      ....       0.011 sec  ( 21.5 % of SOSCF)
Finished LeanSCF after  30.7 sec

Maximum memory used throughout the entire LEANSCF-calculation: 30.0 MB


-------------------------------------------------------------------------------
                          DFT DISPERSION CORRECTION                            
                                                                               
                                DFTD4 V3.4.0                                   
-------------------------------------------------------------------------------
The R2SCAN3C composite method is recognized
Using three-body term ABC
Active option DFTDOPT                   ...         5   

-------------------------   ----------------
Dispersion correction           -0.004980224
-------------------------   ----------------

------------------   -----------------
gCP correction             0.012173199
------------------   -----------------

-------------------------   --------------------
FINAL SINGLE POINT ENERGY      -386.232941768332
-------------------------   --------------------


------------------------------------------------------------------------------
                              ORCA PROPERTY CALCULATIONS
------------------------------------------------------------------------------

GBWName                                 ... sp_solv.gbw
Number of atoms                         ...     20
Number of basis functions               ...    222
Max core memory                         ...   1024 MB

Electric properties:
Dipole moment                           ... YES
Quadrupole moment                       ...  NO
Static polarizability (Dipole/Dipole)   ...  NO
Static polarizability (Dipole/Quad.)    ...  NO
Static polarizability (Quad./Quad.)     ...  NO
Static polarizability (Velocity)        ...  NO

Atomic electric properties:
Dipole moment                           ...  NO
Quadrupole moment                       ...  NO
Static polarizability                   ...  NO

Choice of electric origin               ... Center of mass
Position of electric origin             ...    -0.000036    -0.000007     0.000006

General magnetic properties:
Magnetizability                         ...  NO

EPR properties:
g-Tensor (aka g-matrix)                 ...  NO
Zero-Field splitting spin-orbit         ...  NO
Zero-field splitting spin-spin          ...  NO
Hyperfine couplings                     ...  NO (   0 nuclei)
Quadrupole couplings                    ...  NO (   0 nuclei)
Contact density                         ...  NO (   0 nuclei)

NMR properties:
Chemical shifts                         ...  NO (   0 nuclei)
Spin-rotation constants                 ...  NO (   0 nuclei)
Spin-spin couplings                     ...  NO (   0 nuclei,    0 pairs)

Choice of magnetic origin               ... GIAO
Position of magnetic origin             ...     0.000000     0.000000     0.000000

Properties with geometric perturbations:
SCF Hessian                             ...  NO
IR spectrum                             ...  NO
VCD spectrum                            ...  NO
X-ray spectroscopy properties:
SCF XES/XAS/RIXS spectra                ...  NO


-------------
DIPOLE MOMENT
-------------

Method             : SCF
Type of density    : Electron Density
Multiplicity       :   1
Irrep              :   0
Energy             :  -386.2401347428583449 Eh
Relativity type    : 
Basis              : AO
                                X                 Y                 Z
Electronic contribution:      8.668443789       1.237357016      -1.448794155
Nuclear contribution   :     -8.643633295      -2.171907182       1.959148769
                        -----------------------------------------
Total Dipole Moment    :      0.024810494      -0.934550166       0.510354614
                        -----------------------------------------
Magnitude (a.u.)       :      1.065110983
Magnitude (Debye)      :      2.707296966



--------------------
Rotational spectrum 
--------------------
 
Rotational constants in cm-1:             0.184508             0.028065             0.025311 
Rotational constants in MHz :          5531.417654           841.358103           758.814482 

Dipole components along the rotational axes: 
x,y,z [a.u.] :     0.011754    -1.056535    -0.134377 
x,y,z [Debye]:     0.029876    -2.685498    -0.341560 

 

Dipole moment calculation done in   0.0 sec 

Maximum memory used throughout the entire PROP-calculation: 13.5 MB

--------------------------------
SUGGESTED CITATIONS FOR THIS RUN
--------------------------------

Below you find a list of papers that are relevant to this ORCA run
We neither can nor want to force you to cite these papers, but we appreciate if you do
You receive ORCA, which is the product of decades of hard work by many enthusiastic individuals, for free
The only thing we kindly ask in return is that you cite our papers,
We deeply appreciate it, if you show your appreciation for ORCA by not just citing the generic ORCA reference.

Please note that relegating all ORCA citations to the supporting information does *not* help us.
SI sections are not indexed - citations you put there will not count into any citation statistics
But we need these citations in order to attract the funding resources that allow us to do what we are doing

Therefore, if you are a happy ORCA user, please consider citing a few of the papers listed below in the main body of your paper

In addition to the list printed below, the program has created the file sp_solv.bibtex that contains the list in bibtex format
You can import this file easily into all common literature databanks and citation aid programs


List of essential papers. We consider these as the minimum necessary citations

  1. Neese,F.
     Software update: the ORCA program system, version 5.0
     WIRES Comput. Molec. Sci., 2022 12(1)e1606
     doi.org/10.1002/wcms.1606
  2. Grimme,S.; Hansen,A.; Ehlert,S.; Mewes,J.
     r2SCAN-3c: A 'Swiss army knife' composite electronic-structure method
     J. Chem. Phys., 2021 154 064103
     doi.org/10.1063/5.0040021

List of papers to cite with high priority. The work reported in these papers was absolutely
necessary for this run to complete.
Our perspective: the developers of density functionals and basis sets usually get cited in chemistry papers
Good! But without the algorithms to do something with them, the functionals or basis sets would not do anything.
Hence, in our opinion, the algorithm design and method developments papers are equally worthy of getting cited

  1. Neese,F.
     An improvement of the resolution of the identity approximation for the formation of the Coulomb matrix
     J. Comp. Chem., 2003 24(14)1740-1747
     doi.org/10.1002/jcc.10318
  2. Garcia-Rates,M.; Neese,F.
     Effect of the Solute Cavity on the Solvation Energy and its Derivatives within the Framework of the Gaussian Charge Scheme
     J. Comput. Chem., 2020 41 922-939
     doi.org/10.1002/jcc.26139
  3. Neese,F.
     The SHARK Integral Generation and Digestion System
     J. Comp. Chem., 2022  1-16
     doi.org/10.1002/jcc.26942
  4. Lehtola,S.; Steigemann,C.; Oliveira,M.; Marques,M.
     Recent developments in Libxc - A comprehensive library of functionals for density functional theory
     Software X, 2018 7 
     doi.org/10.1016/j.softx.2017.11.002
  5. Caldeweyher,E.; Bannwarth,C.; Grimme,S.
     Extension of the D3 dispersion coefficient model
     J. Chem. Phys., 2017 147 034112-XXXX
     doi.org/10.1063/1.4993215
  6. Caldeweyher,E.; Ehlert,S.; Hansen,A.; Neugebauer,H.; Spicher,S.; Bannwarth,C.; Grimme,S.
     A generally applicable atomic-charge dependent London dispersion correction
     J. Chem. Phys., 2019 150 154122-XXXX
     doi.org/10.1063/1.5090222
  7. Caldeweyher,E.; Mewes,J.; Ehlert,S.; Grimme,S.
     Extension and evaluation of the D4 London-dispersion model for periodic systems
     Phys. Chem. Chem. Phys., 2020 22(16)8499-8512
     doi.org/10.1039/D0CP00502A

List of suggested additional citations. These are papers that are important in the 'surrounding' of 
of this run, or papers that preceded the highly important papers. If you like your results we are grateful for a citation.

  1. Neese,F.
     The ORCA program system
     WIRES Comput. Molec. Sci., 2012 2(1)73-78
     doi.org/10.1002/wcms.81
  2. Neese,F.
     Software update: the ORCA program system, version 4.0
     WIRES Comput. Molec. Sci., 2018 8(1)1-6
     doi.org/10.1002/wcms.1327
  3. Neese,F.; Wennmohs,F.; Becker,U.; Riplinger,C.
     The ORCA quantum chemistry program package
     J. Chem. Phys., 2020 152 Art. No. L224108
     doi.org/10.1063/5.0004608

List of optional additional citations

  1. Neese,F.
     Approximate second-order SCF convergence for spin unrestricted wavefunctions
     Chem. Phys. Lett., 2000 325(1-3)93-98
     doi.org/10.1016/s0009-2614(00)00662-x

Timings for individual modules:

Sum of individual times          ...       32.371 sec (=   0.540 min)
Startup calculation              ...        1.231 sec (=   0.021 min)   3.8 %
SCF iterations                   ...       31.031 sec (=   0.517 min)  95.9 %
Property calculations            ...        0.108 sec (=   0.002 min)   0.3 %
                             ****ORCA TERMINATED NORMALLY****
TOTAL RUN TIME: 0 days 0 hours 0 minutes 33 seconds 113 msec
