      -----------------------------------------------------------      
     |                   =====================                   |     
     |                           x T B                           |     
     |                   =====================                   |     
     |                         S. Grimme                         |     
     |          Mulliken Center for Theoretical Chemistry        |     
     |                    University of Bonn                     |     
      -----------------------------------------------------------      

   * xtb version 6.7.1 (edcfbbe) compiled by 'albert@albert-system' on 2024-07-22

   xtb is free software: you can redistribute it and/or modify it under
   the terms of the GNU Lesser General Public License as published by
   the Free Software Foundation, either version 3 of the License, or
   (at your option) any later version.
   
   xtb is distributed in the hope that it will be useful,
   but WITHOUT ANY WARRANTY; without even the implied warranty of
   MERCHANTABILITY or FITNESS FOR A PARTICULAR PURPOSE.  See the
   GNU Lesser General Public License for more details.
   
   Cite this work as:
   * C. Bannwarth, E. Caldeweyher, S. Ehlert, A. Hansen, P. Pracht,
     J. Seibert, S. Spicher, S. Grimme, WIREs Comput. Mol. Sci., 2020, 11,
     e01493. DOI: 10.1002/wcms.1493
   
   for GFN2-xTB:
   * C. Bannwarth, S. Ehlert and S. Grimme., J. Chem. Theory Comput., 2019,
     15, 1652-1671. DOI: 10.1021/acs.jctc.8b01176
   for GFN1-xTB:
   * S. Grimme, C. Bannwarth, P. Shushkov, J. Chem. Theory Comput., 2017,
     13, 1989-2009. DOI: 10.1021/acs.jctc.7b00118
   for GFN0-xTB:
   * P. Pracht, E. Caldeweyher, S. Ehlert, S. Grimme, ChemRxiv, 2019, preprint.
     DOI: 10.26434/chemrxiv.8326202.v1
   for GFN-FF:
   * S. Spicher and S. Grimme, Angew. Chem. Int. Ed., 2020, 59, 15665-15673.
     DOI: 10.1002/anie.202004239
   
   for ALPB and GBSA implicit solvation:
   * S. Ehlert, M. Stahn, S. Spicher, S. Grimme, J. Chem. Theory Comput.,
     2021, 17, 4250-4261. DOI: 10.1021/acs.jctc.1c00471
   
   for ddCOSMO and CPCM-X implicit solvation:
   * M. Stahn, S. Ehlert, S. Grimme, J. Phys. Chem. A,
     2023, XX, XXXX-XXXX. DOI: 10.1021/acs.jpca.3c04382
   
   for DFT-D4:
   * E. Caldeweyher, C. Bannwarth and S. Grimme, J. Chem. Phys., 2017,
     147, 034112. DOI: 10.1063/1.4993215
   * E. Caldeweyher, S. Ehlert, A. Hansen, H. Neugebauer, S. Spicher,
     C. Bannwarth and S. Grimme, J. Chem. Phys., 2019, 150, 154122.
     DOI: 10.1063/1.5090222
   * E. Caldeweyher, J.-M. Mewes, S. Ehlert and S. Grimme, Phys. Chem. Chem. Phys.
     2020, 22, 8499-8512. DOI: 10.1039/D0CP00502A
   
   for sTDA-xTB:
   * S. Grimme and C. Bannwarth, J. Chem. Phys., 2016, 145, 054103.
     DOI: 10.1063/1.4959605
   
   in the mass-spec context:
   * V. Asgeirsson, C. Bauer and S. Grimme, Chem. Sci., 2017, 8, 4879.
     DOI: 10.1039/c7sc00601b
   * J. Koopman and S. Grimme, ACS Omega 2019, 4, 12, 15120-15133.
     DOI: 10.1021/acsomega.9b02011
   
   for metadynamics refer to:
   * S. Grimme, J. Chem. Theory Comput., 2019, 155, 2847-2862
     DOI: 10.1021/acs.jctc.9b00143
   
   for SPH calculations refer to:
   * S. Spicher and S. Grimme, J. Chem. Theory Comput., 2021, 17, 1701-1714
     DOI: 10.1021/acs.jctc.0c01306
   
   for ONIOM refer to:
   * C. Plett, A. Katbashev, S. Ehlert, S. Grimme, M. Bursch,
     Phys. Chem. Chem. Phys., 2023, 25, 17860-17868. DOI: 10.1039/D3CP02178E
   
   for DIPRO refer to:
   * J. Kohn, N. Gildemeister, S. Grimme, D. Fazzi, A. Hansen,
     J. Chem. Phys., 2023, just accepted.
   
   for PTB refer to:
   * S. Grimme, M. Mueller, A. Hansen, J. Chem. Phys., 2023, 158, 124111.
     DOI: 10.1063/5.0137838
   
   with help from (in alphabetical order)
   P. Atkinson, C. Bannwarth, F. Bohle, G. Brandenburg, E. Caldeweyher
   M. Checinski, S. Dohm, S. Ehlert, S. Ehrlich, I. Gerasimov, C. Hölzer
   A. Katbashev, J. Kohn, J. Koopman, C. Lavigne, S. Lehtola, F. März, M. Müller,
   F. Musil, H. Neugebauer, J. Pisarek, C. Plett, P. Pracht, F. Pultar,
   J. Seibert, P. Shushkov, S. Spicher, M. Stahn, M. Steiner, T. Strunk,
   J. Stückrath, T. Rose, and J. Unsleber
   
 * started run on 2025/04/11 at 15:56:47.689     
   ID    Z sym.   atoms
    1    6 C      1-7, 9-15, 18, 19
    2    8 O      8, 16, 20
    3    7 N      17
    4    1 H      21-33

           -------------------------------------------------
          |                Calculation Setup                |
           -------------------------------------------------

          program call               : /srv/scratch/z5358697/.xtb/bin/xtb solv.coord --gfn2 --sp --chrg 0 --norestart --parallel 1 --alpb water reference -I xtb_sp-xcontrol-inp
          hostname                   : k030
          coordinate file            : solv.coord
          omp threads                :                     1


           -------------------------------------------------
          |                 G F N 2 - x T B                 |
           -------------------------------------------------

        Reference                      10.1021/acs.jctc.8b01176
      * Hamiltonian:
        H0-scaling (s, p, d)           1.850000    2.230000    2.230000
        zeta-weighting                 0.500000
      * Dispersion:
        s8                             2.700000
        a1                             0.520000
        a2                             5.000000
        s9                             5.000000
      * Repulsion:
        kExp                           1.500000    1.000000
        rExp                           1.000000
      * Coulomb:
        alpha                          2.000000
        third order                    shell-resolved
        anisotropic                    true
        a3                             3.000000
        a5                             4.000000
        cn-shift                       1.200000
        cn-exp                         4.000000
        max-rad                        5.000000

      * Solvation model:               ALPB
        Solvent                        water
        Parameter file                 internal GFN2-xTB/ALPB
        Dielectric constant                8.0200E+01
        Reference state                gsolv=reference [X=1]
        Free energy shift                  2.8945E-03 Eh       1.8164E+00 kcal/mol
        Temperature                        2.9815E+02 K
        Density                            1.0000E+00 kg/L
        Solvent mass                       1.8000E+01 g/mol
        Interaction kernel             P16
        Born radius scaling (c1)           1.4744E+00
        Born radii integrator          GBOBC
        Born offset                        0.0000E+00 a0       0.0000E+00 AA
        H-bond correction              true
        Ion screening                  false
        Surface tension                    1.0000E-05 Eh       1.5569E+01 dyn/cm
        Grid points                               974 per atom

          ...................................................
          :                      SETUP                      :
          :.................................................:
          :  # basis functions                  93          :
          :  # atomic orbitals                  93          :
          :  # shells                           53          :
          :  # electrons                       100          :
          :  max. iterations                   250          :
          :  Hamiltonian                  GFN2-xTB          :
          :  restarted?                      false          :
          :  GBSA solvation                   true          :
          :  PC potential                    false          :
          :  electronic temp.          300.0000000     K    :
          :  accuracy                    1.0000000          :
          :  -> integral cutoff          0.2500000E+02      :
          :  -> integral neglect         0.1000000E-07      :
          :  -> SCF convergence          0.1000000E-05 Eh   :
          :  -> wf. convergence          0.1000000E-03 e    :
          :  Broyden damping             0.4000000          :
          :  net charge                          0          :
          :  unpaired electrons                  0          :
          ...................................................

 iter      E             dE          RMSdq      gap      omega  full diag
   1    -56.7252434 -0.567252E+02  0.524E+00    0.98       0.0  T
   2    -56.8121857 -0.869422E-01  0.303E+00    1.56       1.0  T
   3    -56.8040088  0.817690E-02  0.159E+00    1.27       1.0  T
   4    -56.8262769 -0.222681E-01  0.507E-01    1.39       1.0  T
   5    -56.8332802 -0.700331E-02  0.126E-01    1.32       1.0  T
   6    -56.8334689 -0.188761E-03  0.591E-02    1.34       1.0  T
   7    -56.8334885 -0.196046E-04  0.253E-02    1.33       1.0  T
   8    -56.8334905 -0.196042E-05  0.893E-03    1.33       2.0  T
   9    -56.8334914 -0.865251E-06  0.409E-03    1.33       4.3  T
  10    -56.8334915 -0.117703E-06  0.163E-03    1.33      10.6  T
  11    -56.8334915 -0.931374E-08  0.795E-04    1.33      21.9  T
  12    -56.8334915 -0.364842E-08  0.325E-04    1.33      53.6  T

   *** convergence criteria satisfied after 12 iterations ***

         #    Occupation            Energy/Eh            Energy/eV
      -------------------------------------------------------------
         1        2.0000           -0.7121408             -19.3783
       ...           ...                  ...                  ...
        44        2.0000           -0.4267889             -11.6135
        45        2.0000           -0.4221395             -11.4870
        46        2.0000           -0.4217835             -11.4773
        47        2.0000           -0.4181641             -11.3788
        48        2.0000           -0.4066325             -11.0650
        49        2.0000           -0.3867034             -10.5227
        50        2.0000           -0.3711029             -10.0982 (HOMO)
        51                         -0.3221437              -8.7660 (LUMO)
        52                         -0.2702268              -7.3532
        53                         -0.2403754              -6.5409
        54                         -0.2290037              -6.2315
        55                         -0.1828984              -4.9769
       ...                                ...                  ...
        93                          0.7112781              19.3549
      -------------------------------------------------------------
                  HL-Gap            0.0489592 Eh            1.3322 eV
             Fermi-level           -0.3466233 Eh           -9.4321 eV

 SCC (total)                   0 d,  0 h,  0 min,  0.069 sec
 SCC setup                      ...        0 min,  0.003 sec (  3.892%)
 Dispersion                     ...        0 min,  0.000 sec (  0.610%)
 classical contributions        ...        0 min,  0.000 sec (  0.087%)
 integral evaluation            ...        0 min,  0.006 sec (  8.808%)
 iterations                     ...        0 min,  0.041 sec ( 58.908%)
 molecular gradient             ...        0 min,  0.019 sec ( 27.264%)
 printout                       ...        0 min,  0.000 sec (  0.392%)

         :::::::::::::::::::::::::::::::::::::::::::::::::::::
         ::                     SUMMARY                     ::
         :::::::::::::::::::::::::::::::::::::::::::::::::::::
         :: total energy             -56.017296375145 Eh    ::
         :: total w/o Gsasa/hb       -56.012374154733 Eh    ::
         :: gradient norm              0.000175038590 Eh/a0 ::
         :: HOMO-LUMO gap              1.332247440244 eV    ::
         ::.................................................::
         :: SCC energy               -56.833556050453 Eh    ::
         :: -> isotropic ES            0.111568937120 Eh    ::
         :: -> anisotropic ES         -0.003835374088 Eh    ::
         :: -> anisotropic XC          0.019110086097 Eh    ::
         :: -> dispersion             -0.036845025855 Eh    ::
         :: -> Gsolv                  -0.023843477159 Eh    ::
         ::    -> Gelec               -0.018921256747 Eh    ::
         ::    -> Gsasa                0.001021112615 Eh    ::
         ::    -> Ghb                 -0.008837882187 Eh    ::
         ::    -> Gshift               0.002894549160 Eh    ::
         :: repulsion energy           0.816259675308 Eh    ::
         :: add. restraining           0.000000000000 Eh    ::
         :: total charge              -0.000000000000 e     ::
         :::::::::::::::::::::::::::::::::::::::::::::::::::::

           -------------------------------------------------
          |                Property Printout                |
           -------------------------------------------------

    * Orbital Energies and Occupations

         #    Occupation            Energy/Eh            Energy/eV
      -------------------------------------------------------------
         1        2.0000           -0.7121408             -19.3783
       ...           ...                  ...                  ...
        38        2.0000           -0.4559841             -12.4080
        39        2.0000           -0.4530092             -12.3270
        40        2.0000           -0.4517787             -12.2935
        41        2.0000           -0.4451045             -12.1119
        42        2.0000           -0.4433046             -12.0629
        43        2.0000           -0.4340151             -11.8102
        44        2.0000           -0.4267889             -11.6135
        45        2.0000           -0.4221395             -11.4870
        46        2.0000           -0.4217835             -11.4773
        47        2.0000           -0.4181641             -11.3788
        48        2.0000           -0.4066325             -11.0650
        49        2.0000           -0.3867034             -10.5227
        50        2.0000           -0.3711029             -10.0982 (HOMO)
        51                         -0.3221437              -8.7660 (LUMO)
        52                         -0.2702268              -7.3532
        53                         -0.2403754              -6.5409
        54                         -0.2290037              -6.2315
        55                         -0.1828984              -4.9769
        56                         -0.1808907              -4.9223
        57                         -0.1079858              -2.9384
        58                         -0.0591353              -1.6092
        59                          0.0009537               0.0260
        60                          0.0538576               1.4655
        61                          0.0792418               2.1563
       ...                                ...                  ...
        93                          0.7112781              19.3549
      -------------------------------------------------------------
                  HL-Gap            0.0489592 Eh            1.3322 eV
             Fermi-level           -0.3466233 Eh           -9.4321 eV

     #   Z          covCN         q      C6AA      α(0)
     1   6 C        2.917    -0.026    28.651     8.778
     2   6 C        2.918    -0.025    28.619     8.773
     3   6 C        2.924    -0.021    28.521     8.758
     4   6 C        2.976    -0.012    28.320     8.729
     5   6 C        2.976    -0.018    28.445     8.748
     6   6 C        2.923    -0.019    28.475     8.751
     7   6 C        2.835     0.224    23.295     7.909
     8   8 O        0.858    -0.453    22.776     6.399
     9   6 C        2.972    -0.019    28.471     8.752
    10   6 C        2.925    -0.029    28.730     8.790
    11   6 C        2.912    -0.025    28.631     8.774
    12   6 C        2.919    -0.049    29.223     8.865
    13   6 C        2.899     0.093    25.930     8.349
    14   6 C        2.971    -0.057    29.418     8.897
    15   6 C        2.831     0.211    23.542     7.951
    16   8 O        0.858    -0.484    23.438     6.491
    17   7 N        2.691    -0.144    24.124     7.295
    18   6 C        3.734    -0.026    21.128     6.560
    19   6 C        3.672     0.068    19.665     6.356
    20   8 O        1.655    -0.509    23.091     6.487
    21   1 H        0.926     0.067     2.124     2.279
    22   1 H        0.926     0.068     2.109     2.271
    23   1 H        0.926     0.068     2.111     2.272
    24   1 H        0.926     0.063     2.170     2.303
    25   1 H        0.926     0.057     2.232     2.336
    26   1 H        0.926     0.065     2.142     2.289
    27   1 H        0.926     0.085     1.924     2.169
    28   1 H        0.860     0.228     0.972     1.544
    29   1 H        0.924     0.082     1.962     2.190
    30   1 H        0.925     0.077     2.009     2.216
    31   1 H        0.924     0.042     2.424     2.435
    32   1 H        0.924     0.057     2.239     2.340
    33   1 H        0.805     0.362     0.560     1.176

 Mol. C6AA /au·bohr⁶  :      14299.450509
 Mol. C8AA /au·bohr⁸  :     352079.811310
 Mol. α(0) /au        :        188.231656


Wiberg/Mayer (AO) data.
largest (>0.10) Wiberg bond orders for each atom

 ---------------------------------------------------------------------------
     #   Z sym  total        # sym  WBO       # sym  WBO       # sym  WBO
 ---------------------------------------------------------------------------
     1   6 C    3.980 --     6 C    1.448     2 C    1.421    21 H    0.967
     2   6 C    3.982 --     3 C    1.445     1 C    1.421    22 H    0.967
     3   6 C    3.981 --     2 C    1.445     4 C    1.392    23 H    0.964
     4   6 C    3.988 --     3 C    1.392     5 C    1.327    15 C    1.040
     5   6 C    3.988 --     6 C    1.385     4 C    1.327     7 C    1.049
     6   6 C    3.983 --     1 C    1.448     5 C    1.385    24 H    0.965
     7   6 C    3.925 --     8 O    1.700     9 C    1.050     5 C    1.049
     8   8 O    1.978 --     7 C    1.700
     9   6 C    3.988 --    10 C    1.436    14 C    1.277     7 C    1.050
    10   6 C    3.981 --     9 C    1.436    11 C    1.352    25 H    0.965
    11   6 C    3.986 --    12 C    1.531    10 C    1.352    26 H    0.967
    12   6 C    3.980 --    11 C    1.531    13 C    1.250    27 H    0.957
    13   6 C    3.973 --    17 N    1.316    12 C    1.250    14 C    1.237
    14   6 C    3.979 --     9 C    1.277    13 C    1.237    15 C    1.149
    15   6 C    3.941 --    16 O    1.602    14 C    1.149     4 C    1.040
    16   8 O    1.977 --    15 C    1.602
    17   7 N    3.495 --    13 C    1.316    18 C    1.005    28 H    0.879
    18   6 C    3.964 --    17 N    1.005    30 H    0.974    19 C    0.969
                            29 H    0.959
    19   6 C    3.950 --    20 O    1.003    31 H    0.973    32 H    0.972
                            18 C    0.969
    20   8 O    1.923 --    19 C    1.003    33 H    0.856
    21   1 H    0.995 --     1 C    0.967
    22   1 H    0.995 --     2 C    0.967
    23   1 H    0.995 --     3 C    0.964
    24   1 H    0.996 --     6 C    0.965
    25   1 H    0.996 --    10 C    0.965
    26   1 H    0.994 --    11 C    0.967
    27   1 H    0.992 --    12 C    0.957
    28   1 H    0.947 --    17 N    0.879
    29   1 H    0.992 --    18 C    0.959
    30   1 H    0.994 --    18 C    0.974
    31   1 H    0.997 --    19 C    0.973
    32   1 H    0.997 --    19 C    0.972
    33   1 H    0.869 --    20 O    0.856
 ---------------------------------------------------------------------------

Topologies differ in total number of bonds
Writing topology from bond orders to xtbtopo.mol

molecular dipole:
                 x           y           z       tot (Debye)
 q only:        2.101      -1.335      -0.470
   full:        2.022      -1.442      -0.499       6.438
molecular quadrupole (traceless):
                xx          xy          yy          xz          yz          zz
 q only:       29.308       6.952     -18.346      -7.910      -1.763     -10.962
  q+dip:       32.163       5.103     -16.750      -9.512      -2.088     -15.414
   full:       29.280       5.242     -20.113      -8.854      -2.318      -9.166


           -------------------------------------------------
          | TOTAL ENERGY              -56.017296375145 Eh   |
          | GRADIENT NORM               0.000175038590 Eh/α |
          | HOMO-LUMO GAP               1.332247440244 eV   |
           -------------------------------------------------

------------------------------------------------------------------------
 * finished run on 2025/04/11 at 15:56:47.958     
------------------------------------------------------------------------
 total:
 * wall-time:     0 d,  0 h,  0 min,  0.269 sec
 *  cpu-time:     0 d,  0 h,  0 min,  0.066 sec
 * ratio c/w:     0.246 speedup
 SCF:
 * wall-time:     0 d,  0 h,  0 min,  0.070 sec
 *  cpu-time:     0 d,  0 h,  0 min,  0.052 sec
 * ratio c/w:     0.748 speedup

