20
 energy: -386.241630590679 gnorm: 0.035194393809 xtb: 6.7.1 (edcfbbe)
C           -2.67512799798542        0.06659251472951        1.21231697703721
C           -2.52266925801786        0.01204355050534       -0.30299065753426
C           -1.23491271944722       -0.70746134981349       -0.71276577401585
C           -0.01821517630807        0.09179772254068       -0.32094867384222
O            0.13325519185905        1.27622336996553       -0.53588098953746
O            0.88019707299004       -0.66346511839400        0.30029885683307
C            2.11927209123911       -0.06038652522676        0.70921179971427
C            3.13766958869038       -0.07755246133437       -0.42039599818629
H           -3.60009673569530        0.56901102185214        1.48238076895688
H           -2.69004113269203       -0.93668066021507        1.63148303232295
H           -1.84598114001800        0.61390316627204        1.65727835963438
H           -2.49770360650680        1.02641219585483       -0.70558522211266
H           -3.37417950419519       -0.51088815622639       -0.73885950252741
H           -1.20987321543613       -0.81923482426302       -1.79845201849694
H           -1.16740706481731       -1.69208085634981       -0.25160765251149
H            1.91812209504997        0.96630255232819        1.03033258465657
H            2.45250952658677       -0.66381932909416        1.55400807758862
H            2.78598260953454        0.53475944843697       -1.24787146505296
H            4.07980900920787        0.32338970464330       -0.06136040862719
H            3.28985262415782       -1.09451622658501       -0.77157789764191
20
 energy: -386.242853543881 gnorm: 0.013711788448 xtb: 6.7.1 (edcfbbe)
C           -2.67864604860934        0.07221493297997        1.21453304158453
C           -2.52574838798759        0.01231225351141       -0.30316278962751
C           -1.23890134365049       -0.70711448085363       -0.71886625884637
C           -0.01920409054996        0.08363379011945       -0.32277498320026
O            0.13340398920980        1.27465983241248       -0.54150556513102
O            0.88645827483282       -0.67615573268460        0.30510702455517
C            2.12941814790893       -0.05481896880576        0.71496134300338
C            3.13427564618518       -0.07607217095065       -0.42183423350318
H           -3.60653840061014        0.57567662573340        1.49558298353252
H           -2.69377907526690       -0.93456450151103        1.64111570030692
H           -1.84747958544851        0.61981259063193        1.67019467455534
H           -2.51488920590687        1.02481857085326       -0.71848361151579
H           -3.37554625872123       -0.51381647882050       -0.74633152403647
H           -1.20202730827239       -0.81887238928135       -1.80809486655405
H           -1.18485037680279       -1.70111200637586       -0.26985481522955
H            1.92761950101282        0.96504773966892        1.05391131561624
H            2.46841533297688       -0.65772120242562        1.55860120845925
H            2.78775534786348        0.53683895853270       -1.25719347039723
H            4.08361009063694        0.32711481019291       -0.06372632182969
H            3.29711573742881       -1.09753197629020       -0.77316647012482
20
 energy: -386.243133553718 gnorm: 0.005229595984 xtb: 6.7.1 (edcfbbe)
C           -2.68122866102244        0.07701354123945        1.21301252078787
C           -2.53051559759282        0.01333701126184       -0.30465727486978
C           -1.24258412952871       -0.70525784705088       -0.72000002467417
C           -0.02065792608648        0.07516169828804       -0.31632547946295
O            0.13772855604929        1.26673900753129       -0.53867641497921
O            0.88784823574208       -0.68963661561161        0.31648414840267
C            2.13951586805461       -0.05495958907416        0.71652439059989
C            3.13529372402391       -0.07172391097317       -0.42228510198903
H           -3.60995200986979        0.58155141228582        1.49908341839711
H           -2.69658352104323       -0.92983369703418        1.64665381308099
H           -1.84945523014713        0.62578193696998        1.67260226658868
H           -2.53283916391754        1.02365673013342       -0.72961997978279
H           -3.37902161050766       -0.51947781809159       -0.74671364463609
H           -1.19823957963801       -0.81094044202184       -1.81170885961174
H           -1.19892725938307       -1.70792692095037       -0.28524425131066
H            1.93112675162552        0.95997972409533        1.06482128422107
H            2.48537683409698       -0.65705558342684        1.55901055025888
H            2.78828646923248        0.53774165046503       -1.26220945995982
H            4.08930672123192        0.33540508350594       -0.07070355126677
H            3.30598316938019       -1.09520454786582       -0.77103889690695
20
 energy: -386.243180792551 gnorm: 0.002627907848 xtb: 6.7.1 (edcfbbe)
C           -2.68210832000315        0.08085553067910        1.21213133007283
C           -2.53115376917231        0.01218791767038       -0.30444681450420
C           -1.24233114669952       -0.70485242367203       -0.72012815715482
C           -0.01920712538152        0.07113659128774       -0.31432575127732
O            0.14101233106282        1.26213743800879       -0.53405699782913
O            0.88825807791711       -0.69568518455578        0.32170558205602
C            2.14363045810156       -0.05664952018134        0.71864315727192
C            3.13358339984127       -0.06969450369419       -0.42319777360331
H           -3.61066922551786        0.58614103176588        1.49695831812366
H           -2.69758498548762       -0.92463901042509        1.64854320730282
H           -1.85040197338251        0.63078465581266        1.67001576362769
H           -2.53862449164032        1.02066573332499       -0.73347737672373
H           -3.37855379602507       -0.52555108958539       -0.74310707614400
H           -1.19651917905224       -0.80389690671556       -1.81249692689498
H           -1.20198495959632       -1.71070876428589       -0.29270983598254
H            1.93012283060856        0.95604459541375        1.06980102508955
H            2.49274134967998       -0.66071750511596        1.55852917600694
H            2.78390168965433        0.53800655036753       -1.26291979129102
H            4.08718970598441        0.34098022355208       -0.07447067118126
H            3.30916026773100       -1.09219355543233       -0.77198348317291
20
 energy: -386.243206141210 gnorm: 0.001754014816 xtb: 6.7.1 (edcfbbe)
C           -2.68145221223385        0.08563051799403        1.21081461813375
C           -2.53091254711800        0.01018414855229       -0.30492086954276
C           -1.24106121255477       -0.70548840955285       -0.72017103070668
C           -0.01908367222897        0.06839457070820       -0.30848355077977
O            0.14451976611689        1.25800534144096       -0.52821478448660
O            0.88710363179207       -0.70108765758843        0.32798760262677
C            2.14640933933931       -0.06049476424316        0.72124485981181
C            3.13039862902919       -0.06712812427839       -0.42464345920178
H           -3.60995164462022        0.59195683070453        1.49194220823778
H           -2.69717185117975       -0.91742557676368        1.65137010385332
H           -1.85041638792787        0.63787773909299        1.66566862955957
H           -2.54241828722177        1.01619121735917       -0.73863623820475
H           -3.37652507419693       -0.53357029671548       -0.73927298023903
H           -1.19388835158609       -0.79655789487730       -1.81298052353156
H           -1.20237998621233       -1.71368287300654       -0.29941686880328
H            1.92967657648972        0.94993046482940        1.07631878845020
H            2.49948239844962       -0.66832735636276        1.55659503814259
H            2.77467525024555        0.53937523197430       -1.26198252942969
H            4.08274452064798        0.34832840659743       -0.07942497731202
H            3.31071146765234       -1.08775810444497       -0.77479116735923
20
 energy: -386.243222247102 gnorm: 0.002576837491 xtb: 6.7.1 (edcfbbe)
C           -2.67879051192714        0.09223872503012        1.20934079025698
C           -2.53005471680370        0.00663176235670       -0.30597323388341
C           -1.23869838947776       -0.70709274474902       -0.72077404553647
C           -0.01675166908925        0.06498761742847       -0.30573026442966
O            0.14776728283995        1.25484154317948       -0.52036050927699
O            0.88566484782045       -0.70650514416714        0.33308728299621
C            2.14715811301169       -0.06702689561678        0.72567768346320
C            3.12480447918732       -0.06353696077876       -0.42586668726029
H           -3.60746868125109        0.59998666872417        1.48561013852147
H           -2.69390055573574       -0.90718354711227        1.65684003294895
H           -1.84847297089055        0.64878043264799        1.65897543931199
H           -2.54513192842902        1.00932122669448       -0.74626371298039
H           -3.37414154874974       -0.54372935090190       -0.73427708140617
H           -1.19101271654932       -0.78970021403059       -1.81382343205386
H           -1.19982515580675       -1.71709026269239       -0.30590265308341
H            1.92970089969420        0.94059971917443        1.08768364990896
H            2.50462538027449       -0.68111551156295        1.55420002169120
H            2.75916886218178        0.54270543943340       -1.25869434660846
H            4.07521699729418        0.35860000161151       -0.08488399563619
H            3.31060086974040       -1.08135615333127       -0.77986774284421
20
 energy: -386.243232726360 gnorm: 0.001752815665 xtb: 6.7.1 (edcfbbe)
C           -2.67691638506906        0.09549446093586        1.20839513842724
C           -2.52923475074839        0.00503961096820       -0.30700842045647
C           -1.23754871343687       -0.70848106958108       -0.72149996197117
C           -0.01690000649879        0.06410438768912       -0.30319478514905
O            0.14803346943730        1.25421903770320       -0.51762431615366
O            0.88492241138752       -0.70787357024177        0.33466427004588
C            2.14641585666813       -0.07052736986684        0.72751247314386
C            3.12191205519079       -0.06156693519114       -0.42636443667810
H           -3.60592947077750        0.60346262303859        1.48363878810946
H           -2.69074057037041       -0.90236725462864        1.65959906936106
H           -1.84681074116592        0.65457046969924        1.65550710797153
H           -2.54562013599955        1.00642747113512       -0.75026777014674
H           -3.37308766792676       -0.54733170394803       -0.73300879901349
H           -1.18888768258520       -0.78994425039085       -1.81455041347905
H           -1.19822863219459       -1.71869377853995       -0.30728366092840
H            1.93045475132178        0.93554667822542        1.09494626529904
H            2.50569170760629       -0.68831688388072        1.55244624134244
H            2.75159613972278        0.54550243924154       -1.25666874440017
H            4.07172381274652        0.36317937533141       -0.08691638135483
H            3.30961263515756       -1.07808575360404       -0.78332722641795
20
 energy: -386.243242524717 gnorm: 0.001569238593 xtb: 6.7.1 (edcfbbe)
C           -2.67056222649929        0.10530291611942        1.20511867501135
C           -2.52771520119597        0.00118557578172       -0.31047719051369
C           -1.23542200335764       -0.71254077152696       -0.72291330047717
C           -0.01622454624329        0.05990723792003       -0.29938734860071
O            0.14775602775501        1.25192040590646       -0.50928557513255
O            0.88373218749227       -0.71287966485629        0.33738092068513
C            2.14385708216737       -0.08112264132906        0.73256353184495
C            3.11379424125143       -0.05465325346933       -0.42700999288647
H           -3.60077647104305        0.61282728944989        1.47898852867427
H           -2.67894388374446       -0.88818370744620        1.66721516636361
H           -1.84107723291093        0.67244346196325        1.64453999596482
H           -2.54787934144220        0.99882217111971       -0.76266050230023
H           -3.37173091990099       -0.55633744470905       -0.72963360361685
H           -1.18398325298028       -0.79401066639370       -1.81591543842918
H           -1.19591946185767       -1.72319034149207       -0.30895126192377
H            1.93193365758916        0.91980247370830        1.11733939304277
H            2.50868014765018       -0.71003769517037        1.54685079619584
H            2.73175636898280        0.55573260198407       -1.25009275121739
H            4.06212127473157        0.37647213662415       -0.09089525426349
H            3.30705901870117       -1.06709686192062       -0.79378874192323
20
 energy: -386.243246593104 gnorm: 0.000464838645 xtb: 6.7.1 (edcfbbe)
C           -2.67135239548969        0.10490214595814        1.20502178639753
C           -2.52817470390623        0.00227155966821       -0.31022699480270
C           -1.23650815019539       -0.71249906999756       -0.72207239607630
C           -0.01660772084265        0.05930807875250       -0.29997838216970
O            0.14743681415189        1.25102500024215       -0.50993436343622
O            0.88432118128958       -0.71372629854710        0.33631757987137
C            2.14437093118569       -0.08049294132189        0.73128354442310
C            3.11519335541739       -0.05428412057347       -0.42678639113666
H           -3.60160745402538        0.61149657751872        1.47993867262623
H           -2.67898278195898       -0.88914597248986        1.66547053496148
H           -1.84196055535885        0.67152436884290        1.64485461166975
H           -2.54769957265616        1.00018509519651       -0.76157440450212
H           -3.37251610500673       -0.55441089782896       -0.72995925839762
H           -1.18475112515161       -0.79607513930916       -1.81503240948257
H           -1.19839546558980       -1.72272286240795       -0.30680787441667
H            1.93083098118639        0.92018138543501        1.11508780662395
H            2.50915466738757       -0.70841850963232        1.54622354924258
H            2.73603005196432        0.55684262214550       -1.25031282744020
H            4.06363369865522        0.37501860134768       -0.08884736613107
H            3.30803993482443       -1.06661667214303       -0.79367889323855
20
 energy: -386.243246593104 gnorm: 0.000464838645 xtb: 6.7.1 (edcfbbe)
C           -2.67135239548969        0.10490214595814        1.20502178639753
C           -2.52817470390623        0.00227155966821       -0.31022699480270
C           -1.23650815019539       -0.71249906999756       -0.72207239607630
C           -0.01660772084265        0.05930807875250       -0.29997838216970
O            0.14743681415189        1.25102500024215       -0.50993436343622
O            0.88432118128958       -0.71372629854710        0.33631757987137
C            2.14437093118569       -0.08049294132189        0.73128354442310
C            3.11519335541739       -0.05428412057347       -0.42678639113666
H           -3.60160745402538        0.61149657751872        1.47993867262623
H           -2.67898278195898       -0.88914597248986        1.66547053496148
H           -1.84196055535885        0.67152436884290        1.64485461166975
H           -2.54769957265616        1.00018509519651       -0.76157440450212
H           -3.37251610500673       -0.55441089782896       -0.72995925839762
H           -1.18475112515161       -0.79607513930916       -1.81503240948257
H           -1.19839546558980       -1.72272286240795       -0.30680787441667
H            1.93083098118639        0.92018138543501        1.11508780662395
H            2.50915466738757       -0.70841850963232        1.54622354924258
H            2.73603005196432        0.55684262214550       -1.25031282744020
H            4.06363369865522        0.37501860134768       -0.08884736613107
H            3.30803993482443       -1.06661667214303       -0.79367889323855
